Control file title. For DL_FIELD 4.10
49894
    1MOL     C1    1   7.181   5.353   3.932 -0.6770  0.6685 -0.3692
    1MOL     C2    2   7.167   5.292   3.793  0.4831 -0.4656 -0.2751
    1MOL     O3    3   7.203   5.389   3.698 -0.2101 -0.5332  0.1488
    1MOL     C4    4   7.086   5.445   3.647 -0.0103  0.4608  0.4153
    1MOL     H5    5   7.104   5.420   3.970 -0.4681 -1.1779  3.6236
    1MOL     H6    6   7.200   5.277   4.008 -0.8950  0.9016 -0.0765
    1MOL     H7    7   7.071   5.242   3.782  1.2609 -1.5641 -2.2974
    1MOL     H8    8   7.044   5.494   3.735  2.1128  3.5440 -0.2236
    1MOL     H9    9   7.113   5.520   3.574 -0.3632 -0.6255 -0.8588
    1MOL    H10   10   7.010   5.373   3.616  0.3982  1.1359 -2.2269
    1MOL    H11   11   7.265   5.421   3.940 -0.7520  0.6958  0.2071
    1MOL    C12   12   7.268   5.179   3.761 -0.0095 -0.2615  0.3234
    1MOL    C13   13   7.249   5.102   3.637  0.7060 -0.0145 -0.3702
    1MOL    O14   14   7.367   5.026   3.598 -0.0564  0.7282 -0.2778
    1MOL    C15   15   7.458   5.110   3.523 -0.7463  0.0140 -0.0409
    1MOL    H16   16   7.266   5.108   3.843 -0.2521 -0.8330 -0.1694
    1MOL    H17   17   7.363   5.233   3.757  1.4008 -2.6889 -0.0310
    1MOL    H18   18   7.220   5.176   3.562  1.9632 -1.4851 -2.3647
    1MOL    H19   19   7.549   5.058   3.495 -0.4909  0.9121 -0.8939
    1MOL    H20   20   7.394   5.133   3.438 -5.7992 -1.3878  3.1615
    1MOL    H21   21   7.475   5.201   3.581  0.8191 -2.6616  3.9622
    1MOL    C22   22   7.141   5.000   3.659  0.9512  0.0889  0.9372
    1MOL    C23   23   7.078   4.944   3.530 -0.0837 -0.0249  0.3363
    1MOL    O24   24   7.007   4.835   3.579  0.4903 -0.3443  0.6478
    1MOL    C25   25   7.079   4.715   3.557 -0.4318 -0.3297 -0.7281
    1MOL    H26   26   7.063   5.041   3.722 -1.7848 -1.5692 -1.1994
    1MOL    H27   27   7.181   4.918   3.718 -0.3526  0.6317  2.5906
    1MOL    H28   28   7.158   4.917   3.462  0.4411  1.9513  0.1625
    1MOL    H29   29   7.179   4.719   3.602 -0.4478  1.0295 -0.7910
    1MOL    H30   30   7.027   4.629   3.599  0.5570 -1.1211 -1.0962
    1MOL    H31   31   7.090   4.705   3.449 -1.7052 -1.5114 -0.7612
    1MOL    C32   32   6.974   5.038   3.459  0.4758 -0.1121 -0.1276
    1MOL    C33   33   6.907   4.975   3.332  0.2731  0.2929  0.1125
    1MOL    O34   34   6.809   5.071   3.296  0.2700  0.1400 -0.2748
    1MOL    C35   35   6.675   5.051   3.353  0.2682  0.6852  0.3896
    1MOL    H36   36   7.006   5.141   3.446 -0.1821 -0.2013 -2.6019
    1MOL    H37   37   6.894   5.045   3.533  0.3088  0.4652 -0.3559
    1MOL    H38   38   6.869   4.879   3.365 -1.8969  0.5323 -1.5922
    1MOL    H39   39   6.624   5.147   3.349 -0.4519  0.3029  0.4511
    1MOL    H40   40   6.610   5.000   3.282 -0.2629  2.0168 -0.0819
    1MOL    H41   41   6.676   4.999   3.449 -1.9929  1.4636  0.8517
    1MOL    C42   42   7.014   4.978   3.215 -0.5373  0.3404 -0.4157
    1MOL    C43   43   6.945   4.910   3.101 -0.1188 -0.7041  0.1893
    1MOL    O44   44   7.032   4.917   2.992 -0.3982  0.3134 -0.3250
    1MOL    C45   45   6.995   5.008   2.892 -0.9900  0.0904 -0.0630
    1MOL    H46   46   7.101   4.916   3.235  0.7904  1.7166 -1.7497
    1MOL    H47   47   7.048   5.078   3.189  0.9469 -0.3562 -1.2136
    1MOL    H48   48   6.846   4.951   3.082 -0.1010 -0.8133 -0.1435
    1MOL    H49   49   6.900   4.970   2.856 -0.1375 -0.9368 -1.2915
    1MOL    H50   50   6.981   5.106   2.937  1.7362  0.1405  0.8007
    1MOL    H51   51   7.074   5.002   2.817 -0.7880  2.3752 -0.0595
    1MOL    C52   52   6.928   4.761   3.126  0.1058 -0.2117 -0.1171
    1MOL    C53   53   6.783   4.698   3.128 -0.3309 -0.6490  0.1415
    1MOL    O54   54   6.734   4.722   3.000 -0.3160  0.3142  0.2197
    1MOL    C55   55   6.592   4.756   2.998 -0.6495  0.1644 -0.0520
    1MOL    H56   56   6.982   4.736   3.217  1.7433  0.3729 -0.9111
    1MOL    H57   57   6.992   4.715   3.050  1.0897 -2.5031  2.0243
    1MOL    H58   58   6.721   4.763   3.190  0.2817 -0.6695  0.7708
    1MOL    H59   59   6.528   4.670   3.016 -0.9241  0.6298  1.2358
    1MOL    H60   60   6.552   4.836   3.059 -1.0826 -0.6229  0.7058
    1MOL    H61   61   6.571   4.779   2.894  0.2985  0.2287 -0.2346
    1MOL    C62   62   6.775   4.549   3.181  0.1114  0.4092  0.3254
    1MOL    C63   63   6.807   4.521   3.330  0.1095  0.3305 -0.0749
    1MOL    O64   64   6.947   4.506   3.355  0.3922  0.1379  0.6064
    1MOL    C65   65   6.985   4.369   3.339 -0.4767  0.8487  0.9223
    1MOL    H66   66   6.835   4.481   3.122 -1.0774 -0.6760  0.3419
    1MOL    H67   67   6.679   4.504   3.159  0.3375  0.5335 -0.9104
    1MOL    H68   68   6.767   4.423   3.357 -1.2529  1.1171  0.8457
    1MOL    H69   69   7.094   4.377   3.340 -0.4672  0.6425  1.6886
    1MOL    H70   70   6.948   4.303   3.417 -2.1242  1.2917  0.5277
    1MOL    H71   71   6.945   4.328   3.246 -3.3016  0.5256  2.2371
    1MOL    C72   72   6.748   4.600   3.444 -0.6452 -0.1848  0.1370
    1MOL    C73   73   6.597   4.591   3.458 -0.4277 -0.2193  0.7825
    1MOL    O74   74   6.536   4.640   3.340  0.8146  0.5631 -1.0571
    1MOL    C75   75   6.399   4.675   3.353 -0.1771 -0.1294 -0.7929
    1MOL    H76   76   6.768   4.706   3.429 -0.6514 -0.2700 -0.4776
    1MOL    H77   77   6.790   4.578   3.541 -0.6699 -0.0341  0.1829
    1MOL    H78   78   6.573   4.667   3.532  0.3329  0.3152  0.4763
    1MOL    H79   79   6.332   4.590   3.363 -1.5025  1.2612  3.0749
    1MOL    H80   80   6.369   4.752   3.425  1.8857 -0.3652  0.3476
    1MOL    H81   81   6.367   4.724   3.261 -1.3939  0.1607 -0.2208
    1MOL    C82   82   6.535   4.452   3.492 -0.0592  0.1084  0.1711
    1MOL    C83   83   6.604   4.380   3.607 -0.3473 -0.0339  0.2119
    1MOL    O84   84   6.630   4.474   3.710  0.2615  0.1069 -0.3775
    1MOL    C85   85   6.714   4.426   3.811 -0.4137 -0.3119 -0.2327
    1MOL    H86   86   6.537   4.399   3.397 -0.5800 -0.2845  0.3724
    1MOL    H87   87   6.432   4.478   3.514  0.1341 -0.0627  1.3293
    1MOL    H88   88   6.696   4.344   3.559 -0.1438 -1.2756  1.4915
    1MOL    H89   89   6.656   4.389   3.895  1.0531  1.4538  1.6057
    1MOL    H90   90   6.781   4.347   3.776 -0.1861 -1.2885  2.2958
    1MOL    H91   91   6.777   4.506   3.850 -1.7588  1.4903 -1.6983
    1MOL    C92   92   6.518   4.263   3.651  1.1145 -0.1464 -0.1105
    1MOL    C93   93   6.505   4.156   3.549 -0.2519 -0.8251 -0.4411
    1MOL    O94   94   6.633   4.111   3.521 -0.4288  0.0369 -0.2097
    1MOL    C95   95   6.670   4.073   3.387 -0.2231 -0.0600 -0.6865
    1MOL    H96   96   6.418   4.293   3.685 -0.3635 -3.2635 -1.4863
    1MOL    H97   97   6.560   4.217   3.740  2.6542 -0.4601 -0.9897
    1MOL    H98   98   6.453   4.189   3.459 -2.7034 -0.4877  1.0759
    1MOL    H99   99   6.594   4.003   3.352 -0.9696 -0.3998  1.5602
    1MOL   H100  100   6.668   4.158   3.319 -2.1078  0.3164 -0.1727
    1MOL   H101  101   6.771   4.031   3.386  0.4394  1.4969 -0.9825
    1MOL   C102  102   6.426   4.030   3.597  0.6324  0.0642 -0.2960
    1MOL   C103  103   6.273   4.038   3.603 -0.6683 -0.4417 -0.8793
    1MOL   O104  104   6.212   4.135   3.685 -0.3188  0.2348 -0.0375
    1MOL   C105  105   6.206   4.094   3.823 -0.2242 -0.1935  0.2703
    1MOL   H106  106   6.466   3.993   3.691  0.2951 -0.8807 -0.5167
    1MOL   H107  107   6.441   3.952   3.523 -3.4508 -0.6590 -0.5146
    1MOL   H108  108   6.247   3.943   3.650 -3.0220 -0.0834 -1.4106
    1MOL   H109  109   6.146   4.167   3.877 -0.0843  0.8586 -0.9641
    1MOL   H110  110   6.151   4.001   3.835 -1.6921  0.4011 -1.4200
    1MOL   H111  111   6.302   4.089   3.874 -0.7220  1.0926  1.3608
    1MOL   C112  112   6.194   4.053   3.466  0.1523 -0.4399 -0.0233
    1MOL   C113  113   6.190   3.925   3.376 -0.4785  0.0186 -0.1853
    1MOL   O114  114   6.105   3.843   3.446  0.1843  0.1008  0.4798
    1MOL   C115  115   6.098   3.707   3.407 -0.4822 -0.2879 -0.0232
    1MOL   H116  116   6.233   4.137   3.410 -2.2323 -1.1727 -2.9212
    1MOL   H117  117   6.091   4.079   3.493  1.5110  1.5932  3.4215
    1MOL   H118  118   6.291   3.888   3.360 -0.5122 -0.6777  1.1459
    1MOL   H119  119   6.196   3.675   3.371 -0.8940 -3.2591  1.3307
    1MOL   H120  120   6.077   3.634   3.485 -0.7297 -0.5623 -0.3478
    1MOL   H121  121   6.020   3.692   3.333 -0.7251  0.0907  0.1530
    1MOL   C122  122   6.124   3.962   3.236 -0.4342 -0.5014 -0.0475
    1MOL   C123  123   6.236   4.005   3.143 -0.1826 -0.2817 -0.3039
    1MOL   O124  124   6.291   3.886   3.086 -0.0027  0.5063 -0.3686
    1MOL   C125  125   6.420   3.897   3.023  0.1681 -0.3221 -0.1726
    1MOL   H126  126   6.064   4.052   3.251  0.9875 -0.0001  3.1562
    1MOL   H127  127   6.061   3.886   3.191 -1.7594 -0.5464  1.8283
    1MOL   H128  128   6.313   4.044   3.210  0.1726 -0.8790 -0.3603
    1MOL   H129  129   6.416   3.974   2.946 -1.0144  0.5646  0.7508
    1MOL   H130  130   6.500   3.920   3.093 -0.4388 -1.3652  0.8985
    1MOL   H131  131   6.451   3.808   2.970 -0.6758 -1.8577  1.8090
    1MOL   C132  132   6.191   4.104   3.036  0.5011 -0.2653  0.0088
    1MOL   C133  133   6.186   4.243   3.098  0.1090 -0.0329  0.2232
    1MOL   O134  134   6.318   4.259   3.108  0.6098 -0.5445  0.0335
    1MOL   C135  135   6.367   4.355   3.199 -1.0353  0.3204  0.6814
    1MOL   H136  136   6.101   4.067   2.988 -0.6731  3.1323 -0.5199
    1MOL   H137  137   6.258   4.106   2.950  1.0544  0.5014  0.4520
    1MOL   H138  138   6.138   4.246   3.195  1.4819 -1.9020  0.9795
    1MOL   H139  139   6.473   4.338   3.181 -1.6457 -0.9208 -1.9714
    1MOL   H140  140   6.344   4.460   3.178 -0.7656  0.3979  0.7690
    1MOL   H141  141   6.330   4.334   3.299 -1.9383 -2.7360 -0.2383
    1MOL   C142  142   6.143   4.358   3.004 -0.1459  0.0390 -0.0623
    1MOL   C143  143   5.994   4.349   2.956  0.3523  0.1979 -0.3284
    1MOL   O144  144   5.912   4.452   3.016  0.4427 -0.1133  0.2255
    1MOL   C145  145   5.866   4.429   3.146 -0.2203 -0.7363 -0.3270
    1MOL   H146  146   6.209   4.384   2.922 -1.3818  0.5435 -0.9149
    1MOL   H147  147   6.149   4.445   3.070 -0.1323  0.2426 -0.3322
    1MOL   H148  148   5.959   4.247   2.975  2.1028  0.0587  2.3868
    1MOL   H149  149   5.823   4.523   3.183 -0.5524 -1.3728  0.9093
    1MOL   H150  150   5.784   4.358   3.154  1.0718 -2.1211  0.8612
    1MOL   H151  151   5.943   4.399   3.216 -1.1128  1.2981  1.5924
    1MOL   C152  152   5.983   4.367   2.803  0.3808  0.0968 -0.1934
    1MOL   C153  153   5.861   4.315   2.733  0.4390 -0.4429  0.0301
    1MOL   O154  154   5.749   4.405   2.750 -0.3511  0.5259 -0.0179
    1MOL   C155  155   5.671   4.357   2.863  0.3300  0.8234 -0.2034
    1MOL   H156  156   6.062   4.299   2.770 -1.3444 -2.3180  0.5176
    1MOL   H157  157   6.021   4.463   2.767  1.6831  0.0782  1.1001
    1MOL   H158  158   5.841   4.219   2.780 -2.1555  0.9889  1.9919
    1MOL   H159  159   5.722   4.300   2.941 -0.8405  1.5568  1.1334
    1MOL   H160  160   5.638   4.444   2.921  1.8459  1.1302  0.2245
    1MOL   H161  161   5.577   4.318   2.826  1.5552 -4.4635  1.8544
    1MOL   C162  162   5.885   4.295   2.582 -0.3418 -0.0387  1.0023
    1MOL   C163  163   5.750   4.269   2.510 -0.3818 -0.0539  1.0495
    1MOL   O164  164   5.778   4.286   2.368  1.3176 -0.8524  0.0031
    1MOL   C165  165   5.745   4.408   2.312  0.6530 -0.1188  0.5567
    1MOL   H166  166   5.958   4.215   2.568 -1.1672 -0.3030 -2.0684
    1MOL   H167  167   5.914   4.393   2.543 -0.1502 -0.1429  0.8777
    1MOL   H168  168   5.677   4.342   2.543  0.1304  0.8694  0.1528
    1MOL   H169  169   5.814   4.483   2.351 -0.1169  0.5326  0.6695
    1MOL   H170  170   5.754   4.403   2.204 -1.4408  0.4117  0.3328
    1MOL   H171  171   5.643   4.441   2.331  0.8665  0.2336  1.1226
    1MOL   C172  172   5.684   4.128   2.518 -0.0918  0.3494 -0.3954
    1MOL   C173  173   5.545   4.120   2.456  0.1616 -0.2122  0.1927
    1MOL   O174  174   5.510   3.984   2.470 -0.0609 -1.3235  0.0160
    1MOL   C175  175   5.510   3.911   2.349 -0.2015  0.5810  0.3529
    1MOL   H176  176   5.687   4.104   2.624  1.9025  0.4073 -0.4270
    1MOL   H177  177   5.760   4.061   2.477 -0.6551 -1.0175  0.7727
    1MOL   H178  178   5.554   4.147   2.351  0.7255  0.1317  0.3334
    1MOL   H179  179   5.514   3.802   2.360 -2.6953  0.5469  1.0894
    1MOL   H180  180   5.422   3.939   2.293 -0.6276 -1.5790 -0.1222
    1MOL   H181  181   5.602   3.938   2.297 -0.0909  1.2342  0.8780
    1MOL   C182  182   5.437   4.195   2.537  0.5207 -0.5190  0.1715
    1MOL   C183  183   5.297   4.202   2.470 -0.5178  0.4750  0.1971
    1MOL   O184  184   5.209   4.136   2.556  0.2702  0.3208 -0.4018
    1MOL   C185  185   5.219   3.994   2.570  0.3839 -0.2343  0.0587
    1MOL   H186  186   5.464   4.299   2.552  1.3533 -0.7996  0.6613
    1MOL   H187  187   5.442   4.160   2.640 -1.5426 -0.3959  0.3217
    1MOL   H188  188   5.297   4.159   2.370 -3.5554  0.4481  0.1482
    1MOL   H189  189   5.311   3.975   2.624 -2.2820 -0.3795  4.8831
    1MOL   H190  190   5.142   3.966   2.642  0.6534  0.4713  0.6311
    1MOL   H191  191   5.211   3.940   2.476 -0.8835 -0.6636  0.4039
    1MOL   C192  192   5.244   4.346   2.450  0.8330 -0.3574 -0.1479
    1MOL   C193  193   5.304   4.428   2.336 -0.4259 -0.0806 -0.3102
    1MOL   O194  194   5.269   4.566   2.344 -0.0602 -0.0817 -0.5860
    1MOL   C195  195   5.323   4.634   2.234  0.1593 -0.4129 -0.2698
    1MOL   H196  196   5.253   4.402   2.543 -0.5787  1.3419 -0.9964
    1MOL   H197  197   5.137   4.339   2.431  0.7204 -1.3859  0.7929
    1MOL   H198  198   5.281   4.378   2.242 -2.7699  1.3195 -0.5174
    1MOL   H199  199   5.300   4.738   2.258  0.2740 -1.1420  3.2982
    1MOL   H200  200   5.430   4.617   2.226  0.3136  0.7938 -0.8293
    1MOL   H201  201   5.272   4.602   2.143  1.9593  0.1773 -1.5106
    1MOL   H202  202   5.412   4.435   2.351 -0.7443  2.0448  1.1063
    2MOL     C1  203   6.039   1.109   7.704 -0.0562 -0.7755  0.2725
    2MOL     C2  204   6.148   1.030   7.622 -0.0246  0.2353  0.0064
    2MOL     O3  205   6.286   1.069   7.652  0.3480  0.0043 -0.1118
    2MOL     C4  206   6.339   1.164   7.558  0.4410 -0.8545 -0.3316
    2MOL     H5  207   5.941   1.075   7.670  1.0300 -2.4923 -1.1623
    2MOL     H6  208   6.058   1.104   0.001 -0.4201 -0.4395  0.3567
    2MOL     H7  209   6.134   1.059   7.518 -0.8602  3.1336  0.8817
    2MOL     H8  210   6.350   1.132   7.455 -1.9051 -1.4323 -0.4140
    2MOL     H9  211   6.274   1.251   7.559 -0.4677 -1.5220  1.7983
    2MOL    H10  212   6.437   1.199   7.592  0.9167 -1.1177 -1.4136
    2MOL    H11  213   6.051   1.215   7.680  1.3824 -1.1687 -0.7749
    2MOL    C12  214   6.142   0.886   7.660  0.2600 -0.1498  0.1390
    2MOL    C13  215   6.245   0.797   7.595 -0.3998  0.2109 -0.0619
    2MOL    O14  216   6.244   0.674   7.665  0.0195  0.0224  0.2456
    2MOL    C15  217   6.322   0.665   7.783 -0.0111  0.2886 -0.0100
    2MOL    H16  218   6.046   0.833   7.655  1.2589 -1.9745 -0.1907
    2MOL    H17  219   6.171   0.886   7.765 -0.9506  0.0154  0.4832
    2MOL    H18  220   6.340   0.846   7.620 -0.2984  0.2775 -0.5798
    2MOL    H19  221   6.424   0.702   7.772  0.0017 -0.0990 -1.3233
    2MOL    H20  222   6.273   0.730   0.045  0.5776  0.1857  0.4882
    2MOL    H21  223   6.327   0.566   0.016  2.5823  0.9669  1.3033
    2MOL    C22  224   6.223   0.774   7.446  0.5828 -0.1443 -0.2065
    2MOL    C23  225   6.341   0.712   7.372  0.4503 -0.2015 -0.6811
    2MOL    O24  226   6.295   0.694   7.244  0.0813  0.1886  0.1543
    2MOL    C25  227   6.282   0.552   7.219  0.0878  0.2044  0.4347
    2MOL    H26  228   6.176   0.860   7.398 -2.3876 -0.7564  1.4560
    2MOL    H27  229   6.141   0.703   7.435  1.9969 -1.9027  0.4449
    2MOL    H28  230   6.372   0.623   7.427 -0.2282 -0.7764 -1.2192
    2MOL    H29  231   6.221   0.505   7.296 -2.4127  4.3738  1.1700
    2MOL    H30  232   6.236   0.526   7.124  0.3776 -0.3742  0.4540
    2MOL    H31  233   6.380   0.506   7.234  0.3634  0.2855 -1.0951
    2MOL    C32  234   6.461   0.797   7.358  0.4661  0.0288 -0.0189
    2MOL    C33  235   6.582   0.719   7.297  1.0393  0.3588 -0.0329
    2MOL    O34  236   6.649   0.790   7.194  0.5470 -0.6090 -1.0075
    2MOL    C35  237   6.573   0.817   7.077  0.1864  0.0195 -0.6575
    2MOL    H36  238   6.486   0.835   7.457 -0.0206  0.7942 -0.1807
    2MOL    H37  239   6.428   0.887   7.305  3.0380  0.2430 -1.3468
    2MOL    H38  240   6.551   0.628   7.246 -0.6143  0.8865 -0.0056
    2MOL    H39  241   6.517   0.731   7.042  1.5615 -0.7610 -0.9651
    2MOL    H40  242   6.500   0.890   7.112 -0.7660 -1.0400 -0.4227
    2MOL    H41  243   6.636   0.859   6.998 -0.6759 -0.7119 -1.7439
    2MOL    C42  244   6.687   0.707   7.410  0.2708 -0.1935 -0.1813
    2MOL    C43  245   6.812   0.627   7.360 -1.0201 -0.0491  0.3028
    2MOL    O44  246   6.919   0.704   7.404  0.1574  0.1078  0.5819
    2MOL    C45  247   7.031   0.714   7.321  0.2187 -0.0182  0.3034
    2MOL    H46  248   6.645   0.657   7.497 -1.5704  0.6649 -0.5593
    2MOL    H47  249   6.716   0.806   7.445  1.0291 -0.6033  0.3791
    2MOL    H48  250   6.800   0.629   7.251  1.3850 -3.2690 -0.0930
    2MOL    H49  251   7.103   0.633   7.329  0.2017 -0.0501  0.1384
    2MOL    H50  252   7.003   0.728   7.216  0.2667  0.9304  0.4184
    2MOL    H51  253   7.084   0.805   7.346  1.7053 -0.5944 -0.6814
    2MOL    C52  254   6.829   0.490   7.424  0.1435 -0.1961  0.4580
    2MOL    C53  255   6.723   0.386   7.366  0.2549  0.0753 -0.5245
    2MOL    O54  256   6.776   0.334   7.244  0.1558 -0.4020  0.0462
    2MOL    C55  257   6.684   0.296   7.146  0.3477  0.0195  0.0671
    2MOL    H56  258   6.806   0.503   7.530 -0.3713  1.3834  0.1709
    2MOL    H57  259   6.932   0.459   7.412  0.0460  0.0809 -1.1923
    2MOL    H58  260   6.629   0.436   7.342  0.4695  0.7042 -0.0456
    2MOL    H59  261   6.604   0.232   7.182  0.8193  0.4191  1.9087
    2MOL    H60  262   6.645   0.393   7.115  2.1777  1.6460  2.6007
    2MOL    H61  263   6.737   0.252   7.062 -1.0094  0.9408 -1.2932
    2MOL    C62  264   6.705   0.267   7.461  0.2357  0.2199 -0.1976
    2MOL    C63  265   6.609   0.299   7.583 -0.1553  0.2871 -0.1930
    2MOL    O64  266   6.479   0.328   7.521  0.8817  0.3141  0.2670
    2MOL    C65  267   6.390   0.402   7.605 -0.4474  0.5067  0.6996
    2MOL    H66  268   6.804   0.230   7.487  0.4057  0.3430 -0.6737
    2MOL    H67  269   6.669   0.183   7.402  2.1091 -0.4725 -0.3982
    2MOL    H68  270   6.647   0.389   7.631  0.3697  2.0014 -3.6285
    2MOL    H69  271   6.300   0.423   7.547 -0.2552  1.3431  0.7053
    2MOL    H70  272   6.356   0.345   7.692 -0.6466 -0.3559  0.0655
    2MOL    H71  273   6.432   0.500   7.629 -2.6265  0.9954  2.8035
    2MOL    C72  274   6.601   0.176   7.676 -0.5059 -0.4568 -0.2138
    2MOL    C73  275   6.716   0.146   7.766 -0.2424 -0.4194 -0.5523
    2MOL    O74  276   6.738   0.256   0.036 -0.1543  0.2216  0.4101
    2MOL    C75  277   6.867   0.266   0.096  1.0445 -0.0478 -0.2617
    2MOL    H76  278   6.571   0.089   7.616 -0.3817  0.5326 -1.7249
    2MOL    H77  279   6.508   0.190   7.731  0.4718 -0.7931  1.5615
    2MOL    H78  280   6.803   0.126   7.703  0.6424  0.5571  0.3240
    2MOL    H79  281   6.945   0.237   0.027 -0.0555 -0.3684 -1.3894
    2MOL    H80  282   6.883   0.372   0.116 -0.0344  0.1414 -0.3696
    2MOL    H81  283   6.875   0.202   0.184  2.8852  0.8702  0.2539
    2MOL    C82  284   6.712   0.016   0.039  0.1491  0.3114 -0.6002
    2MOL    C83  285   6.678   7.691   7.772 -0.1596 -0.2529 -0.0749
    2MOL    O84  286   6.767   7.686   7.657 -0.1241 -0.1194  0.0735
    2MOL    C85  287   6.721   7.611   7.550  0.1367 -0.5050  0.2723
    2MOL    H86  288   6.648   0.025   0.127 -0.5314  0.1380 -1.0667
    2MOL    H87  289   6.811   0.009   0.082 -0.2009  1.5033  0.4356
    2MOL    H88  290   6.574   7.687   7.741  0.1518  2.1620 -1.5780
    2MOL    H89  291   6.789   7.602   7.466  0.3027 -1.6630  0.5266
    2MOL    H90  292   6.718   7.506   7.579 -0.9816 -0.1445  1.5563
    2MOL    H91  293   6.613   7.618   7.533  0.2812  0.8061 -0.1968
    2MOL    C92  294   6.704   7.567   0.046 -0.2506  0.0628 -0.6595
    2MOL    C93  295   6.578   7.533   0.129 -0.1923  0.4994 -0.3345
    2MOL    O94  296   6.486   7.471   0.040  0.2616  0.1286  0.8544
    2MOL    C95  297   6.359   7.535   0.020 -0.3028 -0.2104 -0.1259
    2MOL    H96  298   6.786   7.585   0.115 -0.2341  0.0739 -0.6826
    2MOL    H97  299   6.715   7.471   7.805  1.0861 -0.8125  1.2114
    2MOL    H98  300   6.540   7.621   0.180 -0.4178 -0.3820  1.0449
    2MOL    H99  301   6.308   7.542   0.116 -1.6602 -1.7483 -0.6952
    2MOL   H100  302   6.379   7.630   7.780 -1.5547 -1.1920 -2.5963
    2MOL   H101  303   6.283   7.474   7.780 -0.0557 -0.1415 -0.5885
    2MOL   C102  304   6.604   7.427   0.248  0.3677 -0.0942  0.8049
    2MOL   C103  305   6.486   7.346   0.318 -0.0615 -0.0210  0.3466
    2MOL   O104  306   6.410   7.460   0.359  0.3387 -0.4212 -0.2910
    2MOL   C105  307   6.314   7.438   0.464  0.1344  0.4292 -0.3719
    2MOL   H106  308   6.667   7.471   0.325  3.0204  1.0122 -1.8934
    2MOL   H107  309   6.666   7.345   0.212  0.9675 -0.0149  1.6371
    2MOL   H108  310   6.536   7.285   0.393  1.0700 -0.5954 -0.8741
    2MOL   H109  311   6.353   7.370   0.539 -1.4166 -2.4810 -2.1254
    2MOL   H110  312   6.275   7.530   0.507  1.0358 -0.2969  2.0455
    2MOL   H111  313   6.230   7.373   0.439  0.2738  0.3768 -0.7110
    2MOL   C112  314   6.398   7.248   0.229 -0.4535 -0.4342  0.1911
    2MOL   C113  315   6.486   7.138   0.166 -0.4359  0.1062 -0.0444
    2MOL   O114  316   6.518   7.051   0.277  0.1845 -0.0345 -0.2280
    2MOL   C115  317   6.631   6.971   0.250  0.5681  0.2239  0.1700
    2MOL   H116  318   6.344   7.309   0.157  1.7529  0.6970 -0.5397
    2MOL   H117  319   6.324   7.204   0.295 -1.1568  1.1168  0.4700
    2MOL   H118  320   6.563   7.168   0.096  0.3538  0.3681  0.9217
    2MOL   H119  321   6.653   6.903   0.333 -2.2475  1.4191  1.9528
    2MOL   H120  322   6.614   6.915   0.158 -2.2635  2.0516 -0.4681
    2MOL   H121  323   6.719   7.032   0.227  1.6221 -1.3652 -0.1315
    2MOL   C122  324   6.383   7.060   0.082  0.1909  0.3921  0.0792
    2MOL   C123  325   6.326   7.132   7.766  0.0307  0.3635  0.3996
    2MOL   O124  326   6.420   7.128   7.661 -0.0010  0.2834  0.7077
    2MOL   C125  327   6.475   7.253   7.630 -0.2560 -0.0167 -0.1050
    2MOL   H126  328   6.305   7.040   0.156 -0.3886 -0.1659 -0.6869
    2MOL   H127  329   6.421   6.964   0.047 -0.0205  0.4556 -0.3262
    2MOL   H128  330   6.303   7.237   7.782  1.7639  0.4952  2.0862
    2MOL   H129  331   6.551   7.279   7.704  0.5442 -0.2442 -0.8471
    2MOL   H130  332   6.534   7.241   7.540 -1.5246 -1.2356 -0.7972
    2MOL   H131  333   6.408   7.337   7.608 -0.9514 -0.5333  0.0164
    2MOL   C132  334   6.195   7.065   7.719 -0.3008 -0.1672  0.6757
    2MOL   C133  335   6.122   7.127   7.607  0.3133  0.1402 -0.2423
    2MOL   O134  336   6.011   7.039   7.594  0.0659  0.5606  0.1922
    2MOL   C135  337   5.950   7.027   7.465  0.6514  0.0330  0.8905
    2MOL   H136  338   6.139   7.040   7.809  1.9975 -1.6305  1.7670
    2MOL   H137  339   6.208   6.964   7.682  0.2528  0.7619 -1.7650
    2MOL   H138  340   6.188   7.114   7.521  0.6933 -2.2261  0.3731
    2MOL   H139  341   5.876   6.947   7.467  0.8188 -0.1221  0.8865
    2MOL   H140  342   5.902   7.118   7.431  0.9903 -1.3051 -3.5719
    2MOL   H141  343   6.024   7.004   7.388  1.6360  1.8961  1.2463
    2MOL   C142  344   6.064   7.273   7.618 -0.6686  0.1538 -0.4353
    2MOL   C143  345   5.976   7.293   7.741 -0.2737 -1.1576  0.0330
    2MOL   O144  346   6.067   7.310   0.045  0.0664 -0.2059  0.5120
    2MOL   C145  347   6.020   7.261   0.172  0.2197  0.0469  0.5489
    2MOL   H146  348   6.009   7.290   7.525 -0.1454  0.1498 -0.7479
    2MOL   H147  349   6.146   7.345   7.610 -0.0074 -0.6026 -0.4784
    2MOL   H148  350   5.928   7.196   7.752 -0.2612 -1.1258  0.3679
    2MOL   H149  351   5.999   7.154   0.160 -4.3835  1.0035 -0.8517
    2MOL   H150  352   6.085   7.269   0.259  1.2081 -1.6590 -0.0087
    2MOL   H151  353   5.929   7.316   0.195 -0.5529 -1.6117  1.6031
    2MOL   C152  354   5.879   7.407   7.732 -0.1041  0.4746  0.5635
    2MOL   C153  355   5.756   7.369   7.657 -0.1418  0.4763 -0.0831
    2MOL   O154  356   5.684   7.267   7.729 -0.2381 -0.2197 -0.4185
    2MOL   C155  357   5.619   7.175   7.640  0.0940  0.0194  0.2597
    2MOL   H156  358   5.929   7.491   7.683 -0.2253  1.0257  1.3764
    2MOL   H157  359   5.834   7.440   0.015 -0.2896  1.4266  0.1479
    2MOL   H158  360   5.797   7.323   7.567 -1.6820  0.4109 -0.7650
    2MOL   H159  361   5.552   7.114   7.701 -0.8142 -0.0019 -0.7614
    2MOL   H160  362   5.561   7.236   7.571 -1.2943 -1.8418 -0.2464
    2MOL   H161  363   5.694   7.113   7.591  0.2771 -0.1196  0.7065
    2MOL   C162  364   5.663   7.488   7.617  1.1977 -0.4163 -1.1384
    2MOL   C163  365   5.677   7.541   7.474  0.4502  0.1770 -0.3957
    2MOL   O164  366   5.655   7.430   7.386  0.2147 -0.4063 -0.1130
    2MOL   C165  367   5.731   7.443   7.268  0.5955 -0.1784  0.5259
    2MOL   H166  368   5.683   7.568   7.689  1.3203 -1.9353  0.5678
    2MOL   H167  369   5.557   7.465   7.623  0.7998  1.6021  0.1298
    2MOL   H168  370   5.782   7.570   7.472  0.2918  0.9129  1.5832
    2MOL   H169  371   5.723   7.347   7.218 -0.9773  0.3902 -0.3772
    2MOL   H170  372   5.691   7.513   7.194  1.8925 -0.8799 -0.8858
    2MOL   H171  373   5.833   7.477   7.283  0.2421  1.1237  0.0345
    2MOL   C172  374   5.575   7.652   7.437 -0.7856 -0.4355  0.8176
    2MOL   C173  375   5.579   7.773   7.533  0.2338 -0.7388  0.4897
    2MOL   O174  376   5.705   0.015   7.543 -1.1202 -0.1361 -0.2089
    2MOL   C175  377   5.736   0.080   7.664 -0.7453 -0.4424  0.3362
    2MOL   H176  378   5.478   7.605   7.441 -1.0994  0.3642  3.4171
    2MOL   H177  379   5.596   7.670   7.331  0.7222 -2.0305  0.8145
    2MOL   H178  380   5.543   7.721   7.622 -1.3613 -1.0349 -0.3209
    2MOL   H179  381   5.822   0.145   7.650  0.4256 -2.2991 -1.3795
    2MOL   H180  382   5.660   0.152   7.694  0.1807  1.2809 -1.4132
    2MOL   H181  383   5.755   0.016   7.750 -1.7546  0.1563  1.0110
    2MOL   C182  384   5.477   0.071   7.497  0.3442 -0.2213  0.5150
    2MOL   C183  385   5.330   0.039   7.538  0.4232 -0.4135  0.1235
    2MOL   O184  386   5.334   7.799   7.672 -0.3065 -0.1244 -0.3559
    2MOL   C185  387   5.283   7.668   7.686  0.1082 -1.0382  0.6278
    2MOL   H186  388   5.464   0.080   7.389  3.0575  0.9446  0.2407
    2MOL   H187  389   5.506   0.166   7.541  2.9057  0.0719 -1.6723
    2MOL   H188  390   5.294   7.777   7.465  1.7869 -0.6597 -0.3124
    2MOL   H189  391   5.177   7.677   7.660  0.1688  0.3320  0.8103
    2MOL   H190  392   5.327   7.596   7.617 -3.4294 -2.5205 -0.2080
    2MOL   H191  393   5.300   7.636   7.789  1.3570 -1.8383  0.1823
    2MOL   C192  394   5.231   0.156   7.538 -0.4351 -0.2627  0.3429
    2MOL   C193  395   5.249   0.249   7.420 -0.0547 -0.2443 -0.0644
    2MOL   O194  396   5.160   0.362   7.419 -0.3412  0.3590 -0.6247
    2MOL   C195  397   5.183   0.452   7.321 -0.5170 -0.7492  0.4388
    2MOL   H196  398   5.257   0.211   7.628 -1.1113  1.8238 -0.6860
    2MOL   H197  399   5.130   0.117   7.551 -0.5302  0.2583  1.2082
    2MOL   H198  400   5.216   0.184   7.339  0.8460 -1.1521  0.2822
    2MOL   H199  401   5.287   0.479   7.342 -0.7467  0.4033  0.1138
    2MOL   H200  402   5.164   0.407   7.224  3.1983 -1.5102 -0.0203
    2MOL   H201  403   5.120   0.541   7.320  1.1294  0.4746 -3.6358
    2MOL   H202  404   5.353   0.283   7.413 -0.3702  1.0468  1.2509
    3MOL     C1  405   1.988   0.742   1.461  0.2032  0.1609  0.0612
    3MOL     C2  406   1.951   0.845   1.355 -0.0872  0.8482  0.0428
    3MOL     O3  407   2.041   0.815   1.251  0.3260  0.0709  0.2063
    3MOL     C4  408   2.067   0.927   1.164 -0.7640  0.3016 -0.1936
    3MOL     H5  409   2.089   0.763   1.498 -0.4605  2.4360  0.6521
    3MOL     H6  410   1.924   0.748   1.549 -0.3625 -0.8673 -0.2692
    3MOL     H7  411   1.970   0.939   1.407  2.3185 -0.4775  1.6773
    3MOL     H8  412   1.993   1.006   1.152 -0.0208  1.1778  0.8923
    3MOL     H9  413   2.161   0.967   1.201 -0.5205  0.1922 -0.6896
    3MOL    H10  414   2.085   0.887   1.064 -1.7132 -4.5673  1.4283
    3MOL    H11  415   1.974   0.646   1.412 -1.8251  0.3515  0.2502
    3MOL    C12  416   1.804   0.850   1.296  0.3717  0.3777  0.1876
    3MOL    C13  417   1.684   0.852   1.397  0.2161  0.8362 -0.2040
    3MOL    O14  418   1.688   0.980   1.460 -0.0249 -0.0156 -0.2890
    3MOL    C15  419   1.738   0.985   1.590 -0.1174 -0.0098  0.2546
    3MOL    H16  420   1.797   0.765   1.228  0.1103  1.4652 -1.1591
    3MOL    H17  421   1.777   0.936   1.235  1.0024  0.7551  0.4424
    3MOL    H18  422   1.698   0.776   1.474 -1.0373  2.0339  1.2445
    3MOL    H19  423   1.702   1.084   1.619  0.8722  1.5987 -3.7075
    3MOL    H20  424   1.699   0.907   1.656  1.4854  0.3262  1.6194
    3MOL    H21  425   1.845   0.967   1.592 -0.3556 -1.5964 -0.0078
    3MOL    C22  426   1.549   0.827   1.329  0.1811  0.4029  0.2179
    3MOL    C23  427   1.435   0.840   1.433  0.4279 -0.1505 -0.4159
    3MOL    O24  428   1.314   0.842   1.364  0.1295  0.3999 -0.5377
    3MOL    C25  429   1.277   0.972   1.319  0.0842  0.9054 -0.6628
    3MOL    H26  430   1.547   0.741   1.261 -0.3839  0.2461  0.4311
    3MOL    H27  431   1.530   0.904   1.254 -0.4573  0.0091 -0.0340
    3MOL    H28  432   1.450   0.933   1.488 -0.0377 -1.2799  1.6602
    3MOL    H29  433   1.200   0.978   1.242 -0.6531  1.6266  0.1253
    3MOL    H30  434   1.249   1.034   1.404 -0.6221  0.5909 -0.6604
    3MOL    H31  435   1.359   1.034   1.282 -0.1542  0.8612 -1.2771
    3MOL    C32  436   1.425   0.717   1.526 -0.4910  0.3768 -0.5761
    3MOL    C33  437   1.329   0.722   1.652  0.4875 -0.1088  0.0262
    3MOL    O34  438   1.324   0.586   1.701  0.0765  0.4021  0.1985
    3MOL    C35  439   1.230   0.502   1.629  0.5599  0.1783  0.3700
    3MOL    H36  440   1.516   0.687   1.578 -1.5895 -1.6227  0.2555
    3MOL    H37  441   1.396   0.626   1.472 -1.1419  0.2421 -0.0102
    3MOL    H38  442   1.230   0.751   1.617 -0.0830 -0.6984  1.1215
    3MOL    H39  443   1.239   0.406   1.678 -2.1648 -0.3462 -0.1117
    3MOL    H40  444   1.124   0.525   1.637  0.3258 -1.0532  0.7992
    3MOL    H41  445   1.253   0.486   1.523  0.1694  0.1404  0.2920
    3MOL    C42  446   1.376   0.803   1.773 -0.2475  0.8647 -0.4483
    3MOL    C43  447   1.288   0.794   1.907  0.1954 -0.0184  0.1176
    3MOL    O44  448   1.145   0.806   1.872  0.1122  0.5404  0.0217
    3MOL    C45  449   1.068   0.859   1.979  0.1820 -0.6854  0.3955
    3MOL    H46  450   1.378   0.911   1.755  1.8900  0.5079 -2.4785
    3MOL    H47  451   1.476   0.778   1.808 -0.5969 -1.1461 -0.8395
    3MOL    H48  452   1.324   0.880   1.962 -1.2876  0.8886 -0.2958
    3MOL    H49  453   1.043   0.793   2.062  1.7695 -0.9438  0.6865
    3MOL    H50  454   1.115   0.944   2.028 -1.6791  1.4115 -1.3260
    3MOL    H51  455   0.978   0.899   1.932 -0.7541 -0.5287  2.2550
    3MOL    C52  456   1.298   0.662   1.987  0.0283 -0.1471 -0.1822
    3MOL    C53  457   1.436   0.620   2.036 -0.0041  0.3255  0.4491
    3MOL    O54  458   1.496   0.717   2.117  0.0148  0.4479 -0.1191
    3MOL    C55  459   1.636   0.708   2.137  0.0017  0.5485  0.2360
    3MOL    H56  460   1.268   0.581   1.920  2.4311  0.9007 -2.6382
    3MOL    H57  461   1.233   0.667   2.074  0.0361 -1.9615 -0.0357
    3MOL    H58  462   1.496   0.609   1.946  1.9923  0.9234  1.6682
    3MOL    H59  463   1.690   0.697   2.043  0.5069  2.0204  0.3358
    3MOL    H60  464   1.682   0.793   2.188 -1.0363  0.6130  1.0874
    3MOL    H61  465   1.659   0.618   2.194  0.0861  1.3567  1.4975
    3MOL    C62  466   1.430   0.484   2.111  0.1901  0.4142 -0.0438
    3MOL    C63  467   1.420   0.367   2.017  0.2070 -0.5268  0.2332
    3MOL    O64  468   1.554   0.360   1.958  0.4685  0.5155  0.4730
    3MOL    C65  469   1.557   0.336   1.826  0.3451 -0.3030  0.1525
    3MOL    H66  470   1.355   0.479   2.190  0.3151  0.3735  0.0731
    3MOL    H67  471   1.523   0.468   2.166 -0.0189  1.1258  0.5154
    3MOL    H68  472   1.351   0.384   1.934  0.2851  2.0891  0.6624
    3MOL    H69  473   1.511   0.244   1.788 -0.2685  0.9162 -2.1396
    3MOL    H70  474   1.513   0.411   1.761  0.1087  0.9179  1.6679
    3MOL    H71  475   1.663   0.318   1.809  0.3535 -0.3989  0.3014
    3MOL    C72  476   1.390   0.233   2.094  0.5536 -0.6927 -0.2998
    3MOL    C73  477   1.239   0.188   2.102  0.5320  0.1508 -0.2638
    3MOL    O74  478   1.251   0.042   2.130 -0.0648 -0.2117 -0.1919
    3MOL    C75  479   1.163   7.771   2.050  0.2109  0.2295  0.6069
    3MOL    H76  480   1.420   0.238   2.199 -0.1387  2.9363 -0.2052
    3MOL    H77  481   1.455   0.157   2.052  0.8644 -1.1171  0.9169
    3MOL    H78  482   1.197   0.201   2.003 -0.4578 -0.5918  0.0566
    3MOL    H79  483   1.199   7.789   1.948 -0.7283 -0.9669  0.0506
    3MOL    H80  484   1.182   7.665   2.068 -1.4101  0.3618  3.3519
    3MOL    H81  485   1.058   7.798   2.062 -0.3548 -1.3464 -0.6682
    3MOL    C82  486   1.160   0.258   2.210  0.5542  0.3332 -0.0209
    3MOL    C83  487   1.086   0.383   2.161  0.2068  0.0945  0.2693
    3MOL    O84  488   0.996   0.334   2.055  0.4012  0.6544  0.6132
    3MOL    C85  489   0.977   0.427   1.950  0.0244 -0.0046  0.0513
    3MOL    H86  490   1.234   0.288   2.285  0.1505  1.7176 -0.1779
    3MOL    H87  491   1.101   0.187   2.269 -0.3857  2.0148  1.0868
    3MOL    H88  492   1.153   0.457   2.117 -0.4366  1.2017  1.0981
    3MOL    H89  493   0.948   0.526   1.985 -1.0921 -0.0923 -0.6151
    3MOL    H90  494   1.071   0.424   1.894 -0.3010  0.7778 -0.5437
    3MOL    H91  495   0.906   0.385   1.878  0.3596  0.3372 -0.4811
    3MOL    C92  496   1.006   0.450   2.271  0.2174  0.2428  0.0291
    3MOL    C93  497   1.084   0.499   2.391  0.0305  0.9199 -0.1421
    3MOL    O94  498   1.124   0.636   2.364 -0.3148  0.3593 -0.7836
    3MOL    C95  499   1.247   0.670   2.430  0.0471 -0.6276 -0.5758
    3MOL    H96  500   0.938   0.369   2.298  1.9260 -0.9338  0.9073
    3MOL    H97  501   0.939   0.529   2.237  0.3230  0.0425 -0.6661
    3MOL    H98  502   1.166   0.430   2.414 -0.8364 -0.6186 -1.5903
    3MOL    H99  503   1.253   0.612   2.522  1.5215  0.0787 -0.2128
    3MOL   H100  504   1.333   0.649   2.366  0.6683  0.9451 -0.2629
    3MOL   H101  505   1.235   0.774   2.459  1.8604 -0.0059 -1.9841
    3MOL   C102  506   0.989   0.495   2.514  0.7421  0.2675 -0.3117
    3MOL   C103  507   0.960   0.361   2.580 -0.2387 -0.4879 -0.4600
    3MOL   O104  508   1.063   0.343   2.676  0.4753  0.2773 -0.1517
    3MOL   C105  509   1.085   0.205   2.706  0.1761 -0.2160 -0.8392
    3MOL   H106  510   0.891   0.528   2.481 -0.3270 -3.4618 -1.1120
    3MOL   H107  511   1.024   0.556   2.597  0.7254 -0.8462  0.5329
    3MOL   H108  512   0.948   0.281   2.507  0.3671 -1.7099  0.7619
    3MOL   H109  513   1.163   0.197   2.782  1.0399  1.0662 -1.5759
    3MOL   H110  514   1.002   0.157   2.758  0.2603  0.3471 -0.1747
    3MOL   H111  515   1.108   0.143   2.619 -0.5680 -1.8172  0.0610
    3MOL   C112  516   0.836   0.371   2.673  0.2313  0.0399 -0.4225
    3MOL   C113  517   0.703   0.369   2.586 -0.5534  0.4472 -0.5468
    3MOL   O114  518   0.717   0.259   2.501 -0.0523  0.5128  0.1205
    3MOL   C115  519   0.650   0.276   2.376 -0.0279 -0.4591 -0.2050
    3MOL   H116  520   0.842   0.461   2.733 -0.8018  1.5018 -2.4525
    3MOL   H117  521   0.823   0.278   2.728 -0.5316  1.2387  1.4603
    3MOL   H118  522   0.691   0.458   2.523 -0.5807 -0.1994 -1.4716
    3MOL   H119  523   0.554   0.327   2.386 -0.0485 -0.4475 -0.4738
    3MOL   H120  524   0.712   0.332   2.306 -2.6443  3.0699  0.1726
    3MOL   H121  525   0.643   0.174   2.338 -1.2937  0.3541 -2.2126
    3MOL   C122  526   0.584   0.344   2.678 -0.0702  0.3943  0.2230
    3MOL   C123  527   0.543   0.476   2.747  0.8211 -0.4920 -0.4860
    3MOL   O124  528   0.503   0.578   2.654 -0.0336 -0.1954 -0.2019
    3MOL   C125  529   0.539   0.710   2.689  0.6026  0.3846 -0.7380
    3MOL   H126  530   0.606   0.261   2.746  1.2027  1.9027  1.7114
    3MOL   H127  531   0.498   0.313   2.619 -1.0114  1.5598  0.9331
    3MOL   H128  532   0.627   0.516   2.804 -1.3594  1.1442  1.7154
    3MOL   H129  533   0.490   0.771   2.613 -0.1825  0.4667 -0.1710
    3MOL   H130  534   0.485   0.746   2.777 -0.7930 -2.2858 -0.4523
    3MOL   H131  535   0.648   0.715   2.690  0.7226 -1.7479 -0.0180
    3MOL   C132  536   0.435   0.455   2.858  0.1022 -0.3116 -0.3570
    3MOL   C133  537   0.480   0.366   2.980  0.4516  0.4890 -0.0608
    3MOL   O134  538   0.458   0.439   3.100 -0.4902 -0.1564 -0.8700
    3MOL   C135  539   0.575   0.457   3.179 -0.5412 -0.3906 -0.1777
    3MOL   H136  540   0.347   0.405   2.819 -0.0819  0.3498 -0.7951
    3MOL   H137  541   0.418   0.553   2.901 -1.2902 -0.5383 -0.3880
    3MOL   H138  542   0.586   0.342   2.967  0.4312  0.8715 -0.8987
    3MOL   H139  543   0.547   0.507   3.271 -0.8191  0.2761 -0.6158
    3MOL   H140  544   0.632   0.368   3.205 -0.7443  0.0405  1.7513
    3MOL   H141  545   0.641   0.522   3.121 -0.4100  0.0973  0.5115
    3MOL   C142  546   0.402   0.234   2.988  0.1095 -0.0339  0.3585
    3MOL   C143  547   0.446   0.134   3.096 -1.2136  0.8179 -0.1939
    3MOL   O144  548   0.337   0.049   3.120 -0.1055  0.2126  0.2166
    3MOL   C145  549   0.242   0.089   3.213  0.2312 -0.4195  0.0280
    3MOL   H146  550   0.403   0.170   2.900 -3.2977 -0.4710  0.5581
    3MOL   H147  551   0.298   0.262   3.004 -0.8484 -3.6549  1.0260
    3MOL   H148  552   0.473   0.199   3.179 -0.4103 -0.0758  0.2599
    3MOL   H149  553   0.225   0.197   3.205 -0.8094 -0.5353  0.5409
    3MOL   H150  554   0.147   0.039   3.195  0.1909 -0.7760  1.1661
    3MOL   H151  555   0.285   0.054   3.307  1.8348  0.5796 -0.3150
    3MOL   C152  556   0.570   0.051   3.042 -0.1138 -0.3172 -0.3573
    3MOL   C153  557   0.657   7.791   3.144  0.2198  0.4073 -0.2882
    3MOL   O154  558   0.718   0.078   3.233 -0.0888  1.1118 -0.4029
    3MOL   C155  559   0.843   0.123   3.183  0.3106 -0.0535 -0.1732
    3MOL   H156  560   0.643   0.109   2.985  0.0062 -0.1905 -0.0724
    3MOL   H157  561   0.530   7.787   2.974  0.4250 -0.1267 -0.8869
    3MOL   H158  562   0.732   7.739   3.085 -1.5873 -1.0729 -1.3239
    3MOL   H159  563   0.914   0.162   3.256 -0.0301  0.5229 -0.1495
    3MOL   H160  564   0.918   0.052   3.147  1.8675  1.5432 -0.1550
    3MOL   H161  565   0.836   0.200   3.106  1.2124 -0.1950 -0.4017
    3MOL   C162  566   0.586   7.689   3.234 -0.8408 -0.4452  0.5035
    3MOL   C163  567   0.692   7.604   3.304  0.4333 -0.4515 -0.2141
    3MOL   O164  568   0.614   7.529   3.402  0.0985 -1.1637 -0.0739
    3MOL   C165  569   0.615   7.590   3.534  0.1061 -0.1432 -0.3250
    3MOL   H166  570   0.507   7.643   3.175 -0.4285  0.6338 -0.9025
    3MOL   H167  571   0.525   7.742   3.307  0.2476 -0.6927  1.6083
    3MOL   H168  572   0.769   7.668   3.348 -1.7756  1.6746  0.6914
    3MOL   H169  573   0.569   7.689   3.525  1.2258  0.1035 -3.8351
    3MOL   H170  574   0.554   7.535   3.606 -0.3907 -0.6826 -1.1513
    3MOL   H171  575   0.710   7.595   3.587  0.5431 -0.1196 -1.1196
    3MOL   C172  576   0.752   7.493   3.215 -0.2242 -0.1314  0.4195
    3MOL   C173  577   0.869   7.411   3.282  0.2662 -0.5760  0.0786
    3MOL   O174  578   0.980   7.498   3.302  0.0558  0.1083 -0.3446
    3MOL   C175  579   1.067   7.510   3.186 -0.5886  0.1067 -0.7189
    3MOL   H176  580   0.790   7.530   3.120 -2.0782 -1.6018 -0.9239
    3MOL   H177  581   0.671   7.423   3.195 -0.5214  0.1557  0.5935
    3MOL   H178  582   0.908   7.329   3.221 -2.1399 -1.7256  0.0416
    3MOL   H179  583   1.008   7.520   3.095 -0.0092 -0.1447 -1.1225
    3MOL   H180  584   1.144   7.586   3.201 -0.5202  0.3432 -2.1723
    3MOL   H181  585   1.122   7.417   3.174  0.3203  0.1442  2.7047
    3MOL   C182  586   0.844   7.332   3.406 -0.0625 -0.2440 -0.1830
    3MOL   C183  587   0.732   7.227   3.394  0.0295  0.1907 -0.0685
    3MOL   O184  588   0.781   7.115   3.318  0.4259 -0.0945 -0.1575
    3MOL   C185  589   0.688   7.054   3.234 -0.0405 -0.3835 -0.2483
    3MOL   H186  590   0.828   7.399   3.491  0.5348  1.2799 -1.2615
    3MOL   H187  591   0.935   7.275   3.429  1.0532  1.5839 -0.0158
    3MOL   H188  592   0.639   7.270   3.357  1.0795  1.5226 -1.1753
    3MOL   H189  593   0.612   7.004   3.295  0.0920 -1.2039 -0.7654
    3MOL   H190  594   0.634   7.115   3.162 -1.4524 -2.1481 -0.6995
    3MOL   H191  595   0.732   6.976   3.173  2.5897 -0.4280  1.6169
    3MOL   C192  596   0.690   7.180   3.540  0.1598  0.2945  0.3590
    3MOL   C193  597   0.577   7.077   3.560 -0.1235 -0.0093  0.1714
    3MOL   O194  598   0.547   7.060   3.700 -0.4036 -0.2575  0.2453
    3MOL   C195  599   0.442   6.974   3.727 -0.2715 -0.0483 -0.0874
    3MOL   H196  600   0.672   7.267   3.602  0.3865  0.9297 -0.4628
    3MOL   H197  601   0.779   7.145   3.592  2.9127  2.0428 -2.9215
    3MOL   H198  602   0.616   6.982   3.522  2.0086  0.2702  1.6119
    3MOL   H199  603   0.462   6.876   3.685  1.2849 -0.0407  0.6121
    3MOL   H200  604   0.424   6.967   3.835  2.0036  2.3516  0.4814
    3MOL   H201  605   0.345   7.015   3.697 -0.0118  0.9148  0.3612
    3MOL   H202  606   0.487   7.112   3.508 -0.7799 -0.8064  0.7414
    4MOL     C1  607   2.549   2.182   2.361  0.5098  0.0595  0.1903
    4MOL     C2  608   2.436   2.139   2.269  0.2600 -0.7445 -1.0080
    4MOL     O3  609   2.405   2.239   2.177  0.5125 -0.2009 -0.1914
    4MOL     C4  610   2.287   2.305   2.226  0.5393  0.0015  0.2565
    4MOL     H5  611   2.641   2.205   2.306  0.1678  0.7809 -0.0823
    4MOL     H6  612   2.529   2.281   2.402  0.1802 -0.3767  1.0935
    4MOL     H7  613   2.358   2.117   2.342 -0.5675  3.2452 -0.5677
    4MOL     H8  614   2.199   2.242   2.231 -0.7831  1.5089 -3.1150
    4MOL     H9  615   2.307   2.368   2.314 -1.6696  2.0220 -0.6289
    4MOL    H10  616   2.253   2.386   2.162  1.2405  0.0077 -0.1118
    4MOL    H11  617   2.563   2.114   2.445  1.3273  1.0890  0.9048
    4MOL    C12  618   2.479   2.011   2.187 -0.2355 -0.1919  0.3438
    4MOL    C13  619   2.376   1.949   2.091 -0.2412 -0.0098  0.3107
    4MOL    O14  620   2.438   1.845   2.018 -0.1011  0.0725 -0.0727
    4MOL    C15  621   2.514   1.889   1.903  0.0065  0.7040 -0.7858
    4MOL    H16  622   2.508   1.931   2.255  0.8606 -0.1132 -0.0246
    4MOL    H17  623   2.568   2.040   2.130 -0.4043 -1.7135 -0.6987
    4MOL    H18  624   2.337   2.026   2.023 -2.6037 -0.1378  1.4653
    4MOL    H19  625   2.442   1.953   1.850 -0.3344  2.4778  1.7103
    4MOL    H20  626   2.599   1.949   1.934  0.9185 -1.0548  0.1957
    4MOL    H21  627   2.544   1.796   1.855  0.1188  0.7205 -0.7480
    4MOL    C22  628   2.265   1.881   2.159 -0.1995  0.3465 -0.7665
    4MOL    C23  629   2.124   1.901   2.100  0.0647 -0.1409 -0.4365
    4MOL    O24  630   2.091   2.036   2.122 -0.2478 -0.4282 -1.4245
    4MOL    C25  631   1.966   2.093   2.105 -0.4881 -0.2138 -0.8273
    4MOL    H26  632   2.267   1.913   2.263 -0.2166 -2.0422  0.0016
    4MOL    H27  633   2.296   1.777   2.173  1.5146  0.6067 -2.5074
    4MOL    H28  634   2.044   1.855   2.158  0.3985  2.1210  1.9320
    4MOL    H29  635   1.897   2.022   2.059 -0.0138 -0.6941 -0.7923
    4MOL    H30  636   1.928   2.099   2.207 -0.3843 -0.5201 -0.7717
    4MOL    H31  637   1.955   2.198   2.078 -0.7557 -0.2267 -0.7689
    4MOL    C32  638   2.096   1.877   1.951  0.1007  0.1324  0.3376
    4MOL    C33  639   2.122   1.729   1.908 -0.8867  0.5723  1.3092
    4MOL    O34  640   2.016   1.639   1.946  0.0270  0.0375  0.2584
    4MOL    C35  641   2.051   1.541   2.048 -0.2233  0.1591  0.3716
    4MOL    H36  642   2.170   1.937   1.898 -0.0475  0.3529  0.3781
    4MOL    H37  643   2.000   1.906   1.908  0.2674  0.0283 -0.1064
    4MOL    H38  644   2.210   1.689   1.959  0.8056  0.6922 -1.4275
    4MOL    H39  645   2.132   1.472   2.020  1.5119  1.1343  2.8408
    4MOL    H40  646   2.072   1.590   2.143  1.3472  0.9350 -0.3595
    4MOL    H41  647   1.967   1.471   2.045  1.3982 -1.8600  0.8266
    4MOL    C42  648   2.159   1.715   1.758 -0.4603 -0.5118  0.4714
    4MOL    C43  649   2.195   1.570   1.709  0.3321 -0.0016 -0.1548
    4MOL    O44  650   2.180   1.546   1.568  0.0592 -0.0239  0.0165
    4MOL    C45  651   2.049   1.511   1.519 -0.3379 -0.5446 -0.6021
    4MOL    H46  652   2.241   1.782   1.731  0.7570 -2.7764 -1.6893
    4MOL    H47  653   2.082   1.750   1.689  0.4095 -0.6708 -0.6085
    4MOL    H48  654   2.127   1.504   1.762 -1.9102  3.0632  0.9390
    4MOL    H49  655   2.059   1.470   1.418 -0.2583  1.0181 -1.2511
    4MOL    H50  656   1.998   1.440   1.583  1.1153 -0.8007  0.2962
    4MOL    H51  657   1.993   1.604   1.510  0.2002 -0.0387  1.0778
    4MOL    C52  658   2.340   1.538   1.727 -0.5475 -0.1875 -0.2036
    4MOL    C53  659   2.368   1.382   1.695  0.4651  0.2790 -0.1716
    4MOL    O54  660   2.436   1.381   1.572  0.6039 -0.5574 -0.1344
    4MOL    C55  661   2.406   1.266   1.496 -0.1412  0.6771  0.2025
    4MOL    H56  662   2.373   1.574   1.825  0.3973  0.4584 -0.7457
    4MOL    H57  663   2.409   1.596   1.665  0.5094 -0.6535  0.5193
    4MOL    H58  664   2.277   1.323   1.706 -0.2394  0.9049 -2.5246
    4MOL    H59  665   2.405   1.172   1.550  0.5074  0.8676  0.5386
    4MOL    H60  666   2.315   1.293   1.443  0.9487  1.7801 -1.1493
    4MOL    H61  667   2.481   1.246   1.419  0.7654  1.1699  0.9511
    4MOL    C62  668   2.471   1.328   1.803  0.3668  0.2882  0.0836
    4MOL    C63  669   2.415   1.295   1.951 -0.3965 -0.3259 -0.1360
    4MOL    O64  670   2.298   1.221   1.943  0.1670 -0.3229  0.2908
    4MOL    C65  671   2.305   1.091   1.887 -0.2742  0.0574 -0.5193
    4MOL    H66  672   2.552   1.400   1.813  0.2681  0.2661  1.1153
    4MOL    H67  673   2.521   1.239   1.764 -0.7204  1.7469 -4.9015
    4MOL    H68  674   2.388   1.388   1.999  1.8999 -0.0573  0.6945
    4MOL    H69  675   2.202   1.054   1.886  0.0193 -0.7795 -0.1642
    4MOL    H70  676   2.340   1.090   1.784 -1.5208 -0.2825 -0.9570
    4MOL    H71  677   2.365   1.019   1.943  1.6210  0.0525 -2.5251
    4MOL    C72  678   2.514   1.224   2.049  0.0399  0.2461  0.0099
    4MOL    C73  679   2.647   1.281   2.103 -0.2363  0.1832 -0.1836
    4MOL    O74  680   2.611   1.394   2.180 -0.5306 -0.0707  0.4870
    4MOL    C75  681   2.620   1.528   2.114  0.0154  0.1447 -0.2422
    4MOL    H76  682   2.531   1.119   2.024 -0.7862 -0.2675  1.5310
    4MOL    H77  683   2.461   1.211   2.144  2.3494 -3.5421  0.8974
    4MOL    H78  684   2.720   1.310   2.027 -0.1511  0.1260 -0.1224
    4MOL    H79  685   2.604   1.604   2.191  1.5482 -0.2824  0.5170
    4MOL    H80  686   2.712   1.561   2.068  0.4709  2.0651  1.9328
    4MOL    H81  687   2.535   1.541   2.047  0.9605 -0.6818 -1.6113
    4MOL    C82  688   2.718   1.170   2.193 -0.6554 -0.3947  0.0176
    4MOL    C83  689   2.860   1.195   2.258 -0.4150 -0.3541  0.1959
    4MOL    O84  690   2.897   1.079   2.320  0.8107 -0.1929  0.3513
    4MOL    C85  691   2.828   1.060   2.443 -0.7542  0.3370 -0.1170
    4MOL    H86  692   2.723   1.091   2.118 -0.9040 -0.1227 -0.2841
    4MOL    H87  693   2.646   1.152   2.273 -0.2915 -0.9777  0.2157
    4MOL    H88  694   2.861   1.281   2.326  0.0929 -0.4190  0.2727
    4MOL    H89  695   2.721   1.079   2.454 -0.8238  0.5624 -1.2039
    4MOL    H90  696   2.834   0.954   2.470 -0.5767  0.2229 -0.6109
    4MOL    H91  697   2.886   1.106   2.523 -0.7895 -1.8459  1.2220
    4MOL    C92  698   2.966   1.219   2.145 -0.5037  0.4568 -0.0606
    4MOL    C93  699   3.106   1.254   2.194  0.1899 -0.3032  0.1359
    4MOL    O94  700   3.203   1.250   2.089 -0.2919  0.3814  0.3093
    4MOL    C95  701   3.249   1.128   2.044  0.4367  0.2444  0.3735
    4MOL    H96  702   2.934   1.295   2.073 -0.7929  2.1243  1.7855
    4MOL    H97  703   2.968   1.132   2.079 -0.7234  1.4354 -1.3967
    4MOL    H98  704   3.149   1.193   2.273  0.5962 -0.5881 -0.3022
    4MOL    H99  705   3.179   1.074   1.979 -1.6698  3.8834 -0.5218
    4MOL   H100  706   3.346   1.138   1.995  1.9602 -2.6283  2.6660
    4MOL   H101  707   3.269   1.056   2.123 -1.0958  0.6047  1.1228
    4MOL   C102  708   3.120   1.398   2.256  0.5500  0.0346  0.2474
    4MOL   C103  709   3.053   1.523   2.184  0.0888 -0.4475 -0.0652
    4MOL   O104  710   3.042   1.642   2.268 -0.4089 -0.0280  0.4077
    4MOL   C105  711   2.940   1.620   2.363 -0.3609 -0.7171 -0.3825
    4MOL   H106  712   3.223   1.429   2.276  0.3030  0.7000  0.5146
    4MOL   H107  713   3.090   1.390   2.360  0.1122 -1.1630  0.0375
    4MOL   H108  714   2.955   1.499   2.143 -0.9754 -0.4070  2.3631
    4MOL   H109  715   2.901   1.713   2.403  0.4203 -0.9917  1.0458
    4MOL   H110  716   2.860   1.564   2.314  1.0152 -2.8208 -0.2936
    4MOL   H111  717   2.974   1.552   2.441 -3.8732  0.5933  2.3954
    4MOL   C112  718   3.124   1.573   2.054 -0.1442 -0.2975  0.7125
    4MOL   C113  719   3.276   1.618   2.073  0.0755 -1.0201 -0.5958
    4MOL   O114  720   3.346   1.617   1.946  0.0660 -0.1632  0.2326
    4MOL   C115  721   3.412   1.493   1.925 -0.2224 -1.1988 -0.2586
    4MOL   H116  722   3.064   1.649   2.005  0.3276  0.2230  0.9398
    4MOL   H117  723   3.132   1.497   1.976  2.9215  0.5156  0.1559
    4MOL   H118  724   3.330   1.549   2.137 -0.3398 -1.9747 -1.2599
    4MOL   H119  725   3.507   1.499   1.977  0.5913  2.1237 -1.9694
    4MOL   H120  726   3.359   1.401   1.948  1.4337 -2.5191 -1.6593
    4MOL   H121  727   3.448   1.482   1.823  0.5540  0.2123 -0.1473
    4MOL   C122  728   3.285   1.761   2.131 -0.1045  0.1959  0.3067
    4MOL   C123  729   3.427   1.834   2.134 -0.0222  0.4921 -0.1768
    4MOL   O124  730   3.398   1.964   2.185 -0.3641 -0.2223 -0.1317
    4MOL   C125  731   3.334   2.054   2.091 -0.0381 -0.4162 -0.8116
    4MOL   H126  732   3.241   1.768   2.230  1.1828  1.9554  0.7843
    4MOL   H127  733   3.222   1.823   2.068  0.1647 -1.1584 -1.3446
    4MOL   H128  734   3.464   1.835   2.032 -1.4841  2.0923 -0.6932
    4MOL   H129  735   3.225   2.048   2.085 -0.4564  3.4729  1.2870
    4MOL   H130  736   3.349   2.153   2.136 -0.3716 -0.4302 -0.6655
    4MOL   H131  737   3.391   2.065   1.999  0.6425  1.2448 -0.2236
    4MOL   C132  738   3.527   1.763   2.229  0.2421  0.0060  0.1349
    4MOL   C133  739   3.659   1.837   2.235  0.1773 -0.2758 -0.9549
    4MOL   O134  740   3.723   1.823   2.363 -0.4622  0.7823  0.1867
    4MOL   C135  741   3.683   1.916   2.461 -0.3628  0.9553  0.2393
    4MOL   H136  742   3.554   1.664   2.192 -0.9590  0.2478 -1.4451
    4MOL   H137  743   3.490   1.753   2.330 -1.1476 -0.5886 -0.4285
    4MOL   H138  744   3.632   1.936   2.201  2.0048  0.1690 -1.1703
    4MOL   H139  745   3.704   2.020   2.439  0.5433  0.6880 -0.2052
    4MOL   H140  746   3.575   1.924   2.476 -0.6355  2.7624 -2.4359
    4MOL   H141  747   3.747   1.897   2.548  0.1189  0.8700 -0.1307
    4MOL   C142  748   3.745   1.796   2.118 -0.4350  0.1101  0.0503
    4MOL   C143  749   3.881   1.878   2.105 -0.4676 -0.3554  0.1286
    4MOL   O144  750   3.977   1.784   2.054  0.0734 -0.0367 -0.3638
    4MOL   C145  751   4.074   1.741   2.147  0.3756  0.2509  0.7857
    4MOL   H146  752   3.694   1.801   2.023 -0.1788 -0.0618 -0.0968
    4MOL   H147  753   3.779   1.693   2.133 -2.3413 -0.7004 -1.1195
    4MOL   H148  754   3.903   1.917   2.204 -0.7425 -0.4184  0.2144
    4MOL   H149  755   4.027   1.703   2.238  1.2496 -2.0063  0.3437
    4MOL   H150  756   4.127   1.656   2.103  1.4162  0.8027  0.9776
    4MOL   H151  757   4.144   1.821   2.168  0.0098  1.0189 -0.8210
    4MOL   C152  758   3.862   1.996   2.011 -0.4748  0.7059  0.0004
    4MOL   C153  759   3.987   2.085   1.985 -0.2174 -0.3614 -0.0748
    4MOL   O154  760   3.953   2.188   1.900 -0.7700  0.4039  0.1573
    4MOL   C155  761   4.017   2.175   1.769  0.3928 -0.8103 -0.6754
    4MOL   H156  762   3.778   2.058   2.044 -0.8493 -0.4636  1.2801
    4MOL   H157  763   3.826   1.948   1.920 -1.4386  1.1250  0.1472
    4MOL   H158  764   4.058   2.014   1.943  1.1395  1.6681 -1.2789
    4MOL   H159  765   4.000   2.076   1.725  1.3269 -0.7419 -1.2011
    4MOL   H160  766   3.966   2.254   1.714 -1.6543 -0.9489  0.9617
    4MOL   H161  767   4.124   2.193   1.778  0.3011 -0.0627 -1.0090
    4MOL   C162  768   4.035   2.148   2.114 -0.1529  0.3295  0.5093
    4MOL   C163  769   4.170   2.221   2.095  0.5136  0.7515  0.2879
    4MOL   O164  770   4.200   2.288   2.217  0.4741 -0.5694  0.6174
    4MOL   C165  771   4.183   2.431   2.199 -0.2882 -0.0754  0.0284
    4MOL   H166  772   4.056   2.079   2.195 -4.1287 -0.7376  0.7070
    4MOL   H167  773   3.955   2.211   2.153  0.4708  1.5399 -0.1164
    4MOL   H168  774   4.161   2.284   2.007  3.9619 -0.2245 -0.8504
    4MOL   H169  775   4.179   2.473   2.300  0.6044 -2.0600  0.9137
    4MOL   H170  776   4.260   2.487   2.146 -2.4055  1.3433 -1.6322
    4MOL   H171  777   4.100   2.451   2.131 -0.9988 -1.8482  0.3603
    4MOL   C172  778   4.280   2.122   2.073  0.2012 -0.0405  0.5828
    4MOL   C173  779   4.423   2.180   2.100  0.0246  0.2931 -0.3070
    4MOL   O174  780   4.517   2.078   2.061 -0.6002  0.1028  0.0171
    4MOL   C175  781   4.501   1.957   2.134 -0.5300 -0.9392 -0.1761
    4MOL   H176  782   4.261   2.083   1.974 -3.5218  0.8581  0.8706
    4MOL   H177  783   4.255   2.042   2.143 -1.8024  0.5048  0.5335
    4MOL   H178  784   4.426   2.186   2.208 -0.3050  0.2188 -0.2954
    4MOL   H179  785   4.498   1.983   2.240 -1.5744 -1.3912 -0.0858
    4MOL   H180  786   4.405   1.907   2.121 -1.9619  1.6386  0.1724
    4MOL   H181  787   4.579   1.885   2.114  0.9070  0.8354 -1.0411
    4MOL   C182  788   4.461   2.305   2.022 -0.2095  0.0888 -0.2998
    4MOL   C183  789   4.577   2.376   2.092 -1.4062 -0.0370 -0.4072
    4MOL   O184  790   4.600   2.483   2.007 -0.3209  0.5807  0.5653
    4MOL   C185  791   4.688   2.457   1.896  0.0034 -0.5986 -0.0005
    4MOL   H186  792   4.367   2.360   2.030  0.1201  0.2728  3.3899
    4MOL   H187  793   4.494   2.283   1.921 -2.0143  2.2708 -1.4294
    4MOL   H188  794   4.663   2.310   2.105 -1.1213  0.6016  1.0914
    4MOL   H189  795   4.668   2.362   1.846  0.2731 -0.8197  0.3094
    4MOL   H190  796   4.695   2.544   1.831 -0.9442 -0.9401 -0.5794
    4MOL   H191  797   4.784   2.444   1.945 -1.1355  0.3351  2.5770
    4MOL   C192  798   4.555   2.423   2.238 -0.6392  0.5878 -0.7947
    4MOL   C193  799   4.663   2.518   2.275 -0.5098 -0.2966 -0.1953
    4MOL   O194  800   4.651   2.557   2.416  0.5051  0.0916  0.3489
    4MOL   C195  801   4.727   2.673   2.454 -0.1484 -0.1607  0.0340
    4MOL   H196  802   4.552   2.346   2.315 -0.0191 -0.5741 -1.9039
    4MOL   H197  803   4.454   2.463   2.252 -0.3962  0.7962  0.3911
    4MOL   H198  804   4.665   2.604   2.208 -0.0066 -0.1318  0.0331
    4MOL   H199  805   4.710   2.715   2.553 -0.6662 -0.1063 -0.0732
    4MOL   H200  806   4.835   2.659   2.451 -0.1949 -0.2146 -2.0065
    4MOL   H201  807   4.697   2.756   2.389 -0.3372 -0.1027  0.1949
    4MOL   H202  808   4.752   2.455   2.274 -0.8007 -0.7172  0.2386
    5MOL     C1  809   3.254   0.603   2.547  1.2007  0.0994 -0.3722
    5MOL     C2  810   3.181   0.736   2.573  0.3336 -0.0655 -0.8974
    5MOL     O3  811   3.209   0.839   2.469  0.2724 -0.1019  0.7039
    5MOL     C4  812   3.343   0.879   2.462 -0.3970 -0.0512  0.1113
    5MOL     H5  813   3.243   0.590   2.439  0.0780 -2.1767 -0.0262
    5MOL     H6  814   3.355   0.607   2.587  0.5716  0.7283  1.1877
    5MOL     H7  815   3.199   0.781   2.671 -1.7689  2.2700 -1.5338
    5MOL     H8  816   3.383   0.872   2.563  1.9193  0.0885 -0.7439
    5MOL     H9  817   3.409   0.836   2.386 -1.5522  0.4443 -1.1927
    5MOL    H10  818   3.336   0.984   2.435  2.0582  0.2311  0.4531
    5MOL    H11  819   3.201   0.525   2.603  0.6986 -0.4405 -1.5700
    5MOL    C12  820   3.027   0.728   2.569  0.0571 -0.0968  0.1379
    5MOL    C13  821   2.965   0.631   2.674  0.3635  0.1690  0.0205
    5MOL    O14  822   3.009   0.671   2.805  0.2654  0.0079 -0.5440
    5MOL    C15  823   3.009   0.558   2.889  0.1651 -0.5214 -0.4386
    5MOL    H16  824   2.991   0.697   2.471  0.0085 -0.5513  0.2976
    5MOL    H17  825   2.986   0.828   2.580  1.6166  0.3914  1.6939
    5MOL    H18  826   2.990   0.530   2.641  0.0070  0.4402 -1.1039
    5MOL    H19  827   3.010   0.596   2.991 -1.3534 -0.1855 -0.5333
    5MOL    H20  828   2.926   0.490   2.868 -0.7094  0.6350 -0.8171
    5MOL    H21  829   3.102   0.502   2.881 -0.5146 -1.8559  0.7045
    5MOL    C22  830   2.814   0.629   2.664  1.2745 -1.1993  0.2605
    5MOL    C23  831   2.753   0.537   2.563 -0.4520 -0.2355 -0.3054
    5MOL    O24  832   2.769   0.402   2.590  0.5911 -1.1663 -0.2048
    5MOL    C25  833   2.701   0.342   2.707 -0.5829 -0.9950  0.0813
    5MOL    H26  834   2.774   0.728   2.642 -0.6045 -1.7096  1.3282
    5MOL    H27  835   2.767   0.608   2.760  0.8898 -1.2418  0.0614
    5MOL    H28  836   2.811   0.543   2.471 -1.4016  1.3847 -0.8227
    5MOL    H29  837   2.725   0.388   2.803 -0.1630 -2.0192  0.4816
    5MOL    H30  838   2.596   0.348   2.676 -0.5622 -0.6197  0.0815
    5MOL    H31  839   2.740   0.240   2.709  0.3629 -0.6573 -0.8395
    5MOL    C32  840   2.610   0.581   2.515  0.0982 -0.5455  0.6536
    5MOL    C33  841   2.604   0.713   2.433 -0.5424  0.1425 -0.3109
    5MOL    O34  842   2.638   0.679   2.302 -0.4326  0.0208 -0.0166
    5MOL    C35  843   2.756   0.742   2.255  0.7232  0.1693 -0.0992
    5MOL    H36  844   2.545   0.596   2.600 -0.1007  0.3200  0.3533
    5MOL    H37  845   2.560   0.502   2.458 -0.5352  1.1964 -1.2289
    5MOL    H38  846   2.667   0.790   2.476  0.4089 -0.3920 -0.7459
    5MOL    H39  847   2.845   0.720   2.313  0.3483  1.5766  1.0471
    5MOL    H40  848   2.772   0.703   2.154  1.7619 -1.7338  0.7681
    5MOL    H41  849   2.743   0.850   2.258 -1.4780 -0.0816  0.2491
    5MOL    C42  850   2.468   0.777   2.423 -0.0369  0.5820 -0.5951
    5MOL    C43  851   2.421   0.851   2.547 -0.0362 -0.2786 -0.6217
    5MOL    O44  852   2.511   0.959   2.574  0.3589  0.4366 -0.1459
    5MOL    C45  853   2.549   0.990   2.704 -0.4498  0.5538 -0.1891
    5MOL    H46  854   2.403   0.690   2.411 -0.7406  1.0975 -0.5883
    5MOL    H47  855   2.447   0.835   2.333  1.5274  0.9116 -0.7585
    5MOL    H48  856   2.422   0.772   2.622  0.7462  0.8156  0.5385
    5MOL    H49  857   2.631   1.060   2.691 -0.2421  0.1343 -1.1463
    5MOL    H50  858   2.459   1.043   2.738 -0.7404  1.9146 -2.9222
    5MOL    H51  859   2.581   0.916   2.777  0.1403  1.4575  0.4800
    5MOL    C52  860   2.283   0.914   2.521  0.1435 -0.1179 -0.4644
    5MOL    C53  861   2.166   0.815   2.500 -0.4645  0.2934  0.7668
    5MOL    O54  862   2.165   0.728   2.610 -0.2793 -0.0023  0.3633
    5MOL    C55  863   2.138   0.594   2.588  0.6249 -0.9692  0.4852
    5MOL    H56  864   2.288   0.983   2.437 -0.4447  0.3729 -0.1037
    5MOL    H57  865   2.255   0.978   2.605  1.7422 -0.2841  0.2171
    5MOL    H58  866   2.193   0.761   2.409  0.0427  1.6827  0.0979
    5MOL    H59  867   2.140   0.562   2.692 -0.7232 -0.7541  0.5906
    5MOL    H60  868   2.040   0.591   2.538  0.8214  0.2816 -0.0042
    5MOL    H61  869   2.215   0.557   2.520 -0.1498  0.8618 -1.4696
    5MOL    C62  870   2.035   0.897   2.485 -0.6139 -0.1394 -0.4690
    5MOL    C63  871   2.017   0.985   2.362  0.2974  0.1755 -0.2122
    5MOL    O64  872   1.998   0.907   2.244 -0.4895 -0.0711 -0.0267
    5MOL    C65  873   2.115   0.895   2.165  0.2511  1.0148  0.0962
    5MOL    H66  874   2.034   0.962   2.572  0.9667 -0.3087 -0.3210
    5MOL    H67  875   1.950   0.830   2.501  0.3642 -1.6277 -1.3665
    5MOL    H68  876   2.100   1.055   2.350  1.1583 -0.3817  2.3830
    5MOL    H69  877   2.080   0.851   2.072  0.6896 -1.0792  0.9030
    5MOL    H70  878   2.151   0.991   2.127 -0.3936  1.8863  1.6272
    5MOL    H71  879   2.192   0.829   2.204 -1.1462  0.1402  1.4702
    5MOL    C72  880   1.891   1.068   2.371  0.9106 -0.2175  0.4082
    5MOL    C73  881   1.852   1.176   2.259 -0.5670  0.0895 -0.1780
    5MOL    O74  882   1.961   1.274   2.248  0.3351 -0.0981 -1.1251
    5MOL    C75  883   1.949   1.381   2.342  0.5878 -0.3595 -0.4109
    5MOL    H76  884   1.867   1.110   2.468  0.4719  1.4468 -0.3950
    5MOL    H77  885   1.815   0.990   2.365  1.2742 -0.5933  0.7216
    5MOL    H78  886   1.770   1.241   2.289  0.0997  0.8370  0.0114
    5MOL    H79  887   1.850   1.429   2.335  0.1133 -1.1985  0.5062
    5MOL    H80  888   1.967   1.346   2.443 -0.7169 -0.4268 -0.1871
    5MOL    H81  889   2.016   1.465   2.322  0.2640 -0.1342 -0.5807
    5MOL    C82  890   1.848   1.125   2.116 -0.3274 -0.2302 -1.0931
    5MOL    C83  891   1.785   1.224   2.017  0.0590 -0.0932 -0.7396
    5MOL    O84  892   1.833   1.169   1.894  0.2257  0.2733 -0.6338
    5MOL    C85  893   1.948   1.237   1.850  0.3561 -0.7318  0.4223
    5MOL    H86  894   1.802   1.026   2.116  0.5950 -0.6776 -3.5150
    5MOL    H87  895   1.953   1.111   2.094 -0.0429  0.5636 -0.2866
    5MOL    H88  896   1.813   1.327   2.038 -1.2221  0.5656 -2.1723
    5MOL    H89  897   2.021   1.258   1.927  1.0741  0.8206 -0.6683
    5MOL    H90  898   2.002   1.180   1.775 -0.4297 -0.2813 -0.4987
    5MOL    H91  899   1.922   1.330   1.800  0.1593 -0.3944  1.1382
    5MOL    C92  900   1.633   1.215   2.010 -0.1890 -0.4144 -0.3103
    5MOL    C93  901   1.565   1.318   1.912  0.2195  0.3254 -0.0263
    5MOL    O94  902   1.425   1.275   1.895  0.3304  0.8771  0.2398
    5MOL    C95  903   1.403   1.195   1.775  0.1324  0.0258  0.2165
    5MOL    H96  904   1.618   1.236   2.115 -3.5746 -3.4782 -0.0872
    5MOL    H97  905   1.591   1.118   1.986  0.5445 -0.8084 -0.0197
    5MOL    H98  906   1.620   1.329   1.819  0.1716 -1.1716 -0.2498
    5MOL    H99  907   1.298   1.173   1.757  0.6796 -1.6999 -1.0465
    5MOL   H100  908   1.449   1.245   1.690  1.3626 -0.3322  0.6603
    5MOL   H101  909   1.459   1.101   1.781 -1.1850 -0.8599 -1.0019
    5MOL   C102  910   1.560   1.458   1.981 -0.0014  0.5140 -0.2215
    5MOL   C103  911   1.660   1.560   1.928  0.1924 -0.0218 -0.3172
    5MOL   O104  912   1.613   1.632   1.813  0.5288 -0.0221  0.7733
    5MOL   C105  913   1.701   1.628   1.701  0.3719  0.0838  0.7006
    5MOL   H106  914   1.562   1.455   2.090  1.2343 -1.1514 -0.2616
    5MOL   H107  915   1.463   1.506   1.967 -1.1334 -1.2502  1.3331
    5MOL   H108  916   1.754   1.516   1.896 -1.3504 -1.1684 -3.4484
    5MOL   H109  917   1.799   1.670   1.722  0.7189 -0.1382 -0.4207
    5MOL   H110  918   1.711   1.526   1.665  1.2932  0.4387 -0.0773
    5MOL   H111  919   1.649   1.687   1.625  1.4507 -0.4426 -0.4545
    5MOL   C112  920   1.704   1.671   2.030 -1.2463  0.3923  0.0609
    5MOL   C113  921   1.598   1.765   2.090 -0.2144 -0.3070 -0.0175
    5MOL   O114  922   1.490   1.686   2.142  0.3333 -0.1813  0.2951
    5MOL   C115  923   1.358   1.717   2.101 -0.2494  0.1568  0.0077
    5MOL   H116  924   1.787   1.735   1.998 -0.3246 -1.0899 -0.5844
    5MOL   H117  925   1.746   1.618   2.116 -0.9748  3.1650  1.6897
    5MOL   H118  926   1.570   1.839   2.015 -0.8488 -0.2385  0.2809
    5MOL   H119  927   1.290   1.641   2.141 -0.6786 -0.7755 -2.3929
    5MOL   H120  928   1.332   1.816   2.139 -0.3493  0.4803 -0.9031
    5MOL   H121  929   1.357   1.714   1.992 -1.5887 -3.0911  0.0241
    5MOL   C122  930   1.667   1.850   2.193 -0.7032 -0.9152  0.3900
    5MOL   C123  931   1.589   1.968   2.248  0.1745 -0.2979 -0.4315
    5MOL   O124  932   1.661   2.038   2.349 -0.0793  0.4899  0.0591
    5MOL   C125  933   1.668   1.968   2.472 -0.0449 -0.2084 -0.1988
    5MOL   H126  934   1.759   1.893   2.153 -0.8452  0.1718  1.2051
    5MOL   H127  935   1.712   1.800   2.279 -0.6738 -0.3947  0.6784
    5MOL   H128  936   1.504   1.915   2.290  1.2779 -0.1595  2.0523
    5MOL   H129  937   1.572   1.929   2.507 -0.0640 -0.4608 -0.5353
    5MOL   H130  938   1.742   1.888   2.477  2.1835  1.8838  2.1167
    5MOL   H131  939   1.701   2.039   2.548  1.0961  1.1953 -1.9734
    5MOL   C132  940   1.535   2.081   2.143  0.1442  0.2033  0.0506
    5MOL   C133  941   1.445   2.190   2.222 -0.0239  0.2214 -0.6597
    5MOL   O134  942   1.449   2.298   2.125  1.0396  0.0342  0.0973
    5MOL   C135  943   1.455   2.421   2.186  0.6466  0.5146  0.0357
    5MOL   H136  944   1.475   2.043   2.061  0.4028  0.3529 -0.2066
    5MOL   H137  945   1.630   2.123   2.108  0.7964 -2.1818 -1.1137
    5MOL   H138  946   1.499   2.217   2.313  2.5845 -3.2509 -1.0443
    5MOL   H139  947   1.393   2.423   2.276  0.1035 -5.2861 -0.0111
    5MOL   H140  948   1.550   2.453   2.228  0.5049  0.4275  0.4230
    5MOL   H141  949   1.418   2.499   2.119 -1.6081  1.0025  1.7584
    5MOL   C142  950   1.303   2.144   2.257 -0.5452 -0.2405 -0.2943
    5MOL   C143  951   1.288   2.115   2.407 -0.1965  0.3102 -0.1478
    5MOL   O144  952   1.300   2.236   2.474 -0.1739  0.3201 -0.2419
    5MOL   C145  953   1.365   2.222   2.596 -1.1231 -0.6044  0.1628
    5MOL   H146  954   1.264   2.055   2.209 -1.3480  0.4463 -0.9262
    5MOL   H147  955   1.235   2.225   2.229  1.7262  2.6320  2.0767
    5MOL   H148  956   1.371   2.049   2.431 -0.3279  0.0746 -0.3276
    5MOL   H149  957   1.321   2.148   2.662  2.0810 -2.8635 -0.1241
    5MOL   H150  958   1.466   2.182   2.584 -0.4423  1.0931 -0.0154
    5MOL   H151  959   1.365   2.323   2.639  0.3101 -0.5555  0.0828
    5MOL   C152  960   1.145   2.067   2.452  0.5384 -0.4525  0.3161
    5MOL   C153  961   1.095   1.923   2.422 -0.3943 -0.6447  0.3425
    5MOL   O154  962   1.157   1.830   2.515  0.2244  0.0273 -0.0842
    5MOL   C155  963   1.242   1.735   2.448 -0.4873  0.1763  0.2534
    5MOL   H156  964   1.084   2.131   2.388 -0.6080 -0.3242  1.5143
    5MOL   H157  965   1.109   2.107   2.547 -1.5135 -0.3801 -0.4550
    5MOL   H158  966   1.107   1.917   2.314 -1.2884 -1.1982  0.2739
    5MOL   H159  967   1.180   1.690   2.371 -1.0142  1.0521  0.1486
    5MOL   H160  968   1.332   1.786   2.413 -2.0392  1.4993 -1.9506
    5MOL   H161  969   1.279   1.656   2.513 -0.1042 -0.4436 -0.7085
    5MOL   C162  970   0.946   1.903   2.452 -0.0958  0.3640  0.0798
    5MOL   C163  971   0.849   1.993   2.388 -0.8885 -0.6723 -0.0775
    5MOL   O164  972   0.847   1.968   2.245 -0.0462 -0.1698  0.3589
    5MOL   C165  973   0.909   2.077   2.170 -0.0361 -0.5778 -0.2556
    5MOL   H166  974   0.930   1.897   2.560 -0.0878  1.4993  0.1416
    5MOL   H167  975   0.922   1.799   2.429  1.3589 -0.2762  1.3296
    5MOL   H168  976   0.877   2.095   2.415  0.3130 -0.7486 -1.0236
    5MOL   H169  977   0.899   2.068   2.062  1.0352  0.2693 -0.4335
    5MOL   H170  978   0.871   2.178   2.186 -1.3803 -1.3246  1.3458
    5MOL   H171  979   1.015   2.091   2.192  0.0565 -2.0789  0.3117
    5MOL   C172  980   0.698   1.974   2.428 -0.3220  0.0160 -0.1954
    5MOL   C173  981   0.593   2.080   2.382 -0.5531 -0.4539  0.9800
    5MOL   O174  982   0.465   2.021   2.401 -0.4746  0.1782 -0.1558
    5MOL   C175  983   0.417   1.940   2.293  0.0400 -0.7700  0.1573
    5MOL   H176  984   0.691   1.972   2.536 -2.8706  0.7805 -0.3107
    5MOL   H177  985   0.663   1.872   2.419  1.5039 -0.6548  0.0562
    5MOL   H178  986   0.604   2.102   2.276 -0.4061 -0.1828  1.0501
    5MOL   H179  987   0.393   2.011   2.214  0.3952  0.3328  1.0343
    5MOL   H180  988   0.469   1.851   2.259 -1.7151 -0.9584 -2.1590
    5MOL   H181  989   0.323   1.902   2.333  0.6117 -1.9475  0.3940
    5MOL   C182  990   0.594   2.205   2.466  0.1181  0.0560  0.0428
    5MOL   C183  991   0.492   2.308   2.424  0.2740  0.7855  0.2728
    5MOL   O184  992   0.471   2.400   2.525  0.1863  0.9738  0.2745
    5MOL   C185  993   0.338   2.434   2.558  0.4908 -0.0161 -0.4416
    5MOL   H186  994   0.693   2.250   2.458  1.0644 -2.1049 -0.5583
    5MOL   H187  995   0.573   2.175   2.569  1.7995  0.4470  0.5147
    5MOL   H188  996   0.404   2.257   2.386 -0.5262  1.5605  1.0501
    5MOL   H189  997   0.293   2.357   2.621 -1.4219  0.9349 -0.5842
    5MOL   H190  998   0.342   2.519   2.627  0.3611 -0.4758  0.1385
    5MOL   H191  999   0.280   2.455   2.468  0.9677 -2.1657 -1.2919
    5MOL   C192 1000   0.543   2.387   2.301 -0.1982  0.2702  0.5830
    5MOL   C193 1001   0.443   2.489   2.239  0.6749  0.4986 -0.4064
    5MOL   O194 1002   0.515   2.551   2.137 -0.2242 -0.7606 -0.3212
    5MOL   C195 1003   0.456   2.656   2.072  0.0173 -0.6576 -0.4752
    5MOL   H196 1004   0.568   2.322   2.217  0.1649  0.7409  0.3215
    5MOL   H197 1005   0.631   2.444   2.331 -0.8688  0.9173  1.3521
    5MOL   H198 1006   0.420   2.568   2.311 -0.6664 -1.8742  1.8694
    5MOL   H199 1007   0.430   2.744   2.132 -0.9912 -1.2336 -0.0665
    5MOL   H200 1008   0.525   2.684   1.992 -1.5904  1.3956 -1.1958
    5MOL   H201 1009   0.363   2.625   2.024 -0.3711 -2.2010  1.2457
    5MOL   H202 1010   0.352   2.440   2.206  0.8838  0.8496 -1.5299
    6MOL     C1 1011   2.032   0.106   5.189 -0.4401 -0.1226  0.2769
    6MOL     C2 1012   2.169   0.047   5.191  0.0752  0.0030 -0.4137
    6MOL     O3 1013   2.158   7.728   5.264  0.0837  0.6120 -0.4570
    6MOL     C4 1014   2.154   7.724   5.402  0.1012 -0.4418 -0.0458
    6MOL     H5 1015   2.034   0.200   5.133 -1.5374  1.6522  3.0888
    6MOL     H6 1016   1.960   0.038   5.144 -0.2461 -0.3164  0.2637
    6MOL     H7 1017   2.237   0.102   5.256  0.1765 -0.7324  0.0989
    6MOL     H8 1018   2.135   7.621   5.433  0.4310 -0.2486  0.8119
    6MOL     H9 1019   2.242   7.773   5.444 -0.0140 -1.2512  1.1621
    6MOL    H10 1020   2.080   7.790   5.447  0.4963 -1.6510  2.4191
    6MOL    H11 1021   2.007   0.129   5.293  1.5244 -0.3979  0.8263
    6MOL    C12 1022   2.218   0.016   5.053 -0.8058 -0.5452 -0.9938
    6MOL    C13 1023   2.287   0.134   4.980  0.1011 -0.0755  0.1000
    6MOL    O14 1024   2.401   0.158   5.063 -0.0042  0.2251  0.3305
    6MOL    C15 1025   2.443   0.293   5.050 -0.7723  0.3884 -0.7937
    6MOL    H16 1026   2.138   7.768   5.007  0.4335 -1.4062 -2.0993
    6MOL    H17 1027   2.288   7.744   5.065 -1.4676 -0.6718  2.6213
    6MOL    H18 1028   2.224   0.222   4.975 -1.5105 -1.0845  1.8315
    6MOL    H19 1029   2.491   0.300   4.953  1.1725  0.1311  0.1342
    6MOL    H20 1030   2.356   0.358   5.058  0.7844  2.4458 -0.1136
    6MOL    H21 1031   2.524   0.337   5.108  0.4944 -1.2793 -1.2808
    6MOL    C22 1032   2.325   0.108   4.833 -0.0217  0.0191  0.4047
    6MOL    C23 1033   2.209   0.082   4.736 -0.6142  0.1828  0.0144
    6MOL    O24 1034   2.134   0.195   4.735  0.3659  0.9222 -0.0327
    6MOL    C25 1035   1.992   0.171   4.757 -0.2554 -0.1822  0.2776
    6MOL    H26 1036   2.384   0.017   4.827 -0.1092 -0.0372  0.4117
    6MOL    H27 1037   2.390   0.185   4.791 -0.3629 -0.5672 -1.2397
    6MOL    H28 1038   2.148   0.003   4.779 -0.2495 -0.2533 -0.2705
    6MOL    H29 1039   1.974   0.116   4.849 -1.4747 -0.3529 -0.0525
    6MOL    H30 1040   1.948   0.271   4.767  0.5345  0.1169  0.8530
    6MOL    H31 1041   1.936   0.120   4.679 -0.2978 -0.3211  0.3984
    6MOL    C32 1042   2.236   0.037   4.590  0.3478  0.3110 -0.3027
    6MOL    C33 1043   2.256   7.699   4.556  0.2754  0.1591  0.4204
    6MOL    O34 1044   2.159   7.614   4.627  0.4510  0.1935  0.6156
    6MOL    C35 1045   2.226   7.496   4.670  0.2551  0.4223  0.4692
    6MOL    H36 1046   2.313   0.102   4.548 -2.2116  3.6610 -0.0744
    6MOL    H37 1047   2.148   0.063   4.532 -0.9025 -2.1228  0.4388
    6MOL    H38 1048   2.355   7.670   4.589  0.3120 -2.9493 -2.1659
    6MOL    H39 1049   2.247   7.423   4.591  1.1680  0.5726  0.5656
    6MOL    H40 1050   2.310   7.511   4.738 -0.5656  1.3490  1.2941
    6MOL    H41 1051   2.146   7.443   4.721 -1.3947  1.8090 -0.6261
    6MOL    C42 1052   2.264   7.661   4.407  0.6204  0.0632  0.0288
    6MOL    C43 1053   2.378   7.727   4.331  0.1268 -0.6956  0.6144
    6MOL    O44 1054   2.496   7.674   4.385 -0.1041  0.3419  0.3036
    6MOL    C45 1055   2.607   7.766   4.409  0.5604  0.1760 -0.0983
    6MOL    H46 1056   2.172   7.684   4.352 -0.4642 -0.1041  1.7428
    6MOL    H47 1057   2.274   7.553   4.399  1.2538  0.0649  0.8119
    6MOL    H48 1058   2.369   0.024   4.345 -1.9946 -0.9409  1.2816
    6MOL    H49 1059   2.647   7.802   4.314 -0.8159  1.0194 -0.3576
    6MOL    H50 1060   2.588   0.039   4.476 -2.5674  0.0007 -0.7167
    6MOL    H51 1061   2.688   7.708   4.455 -0.2011  0.0700  1.1423
    6MOL    C52 1062   2.380   7.692   4.181 -0.0657 -0.2098 -0.6393
    6MOL    C53 1063   2.276   7.776   4.096 -0.2208  0.7588  0.8443
    6MOL    O54 1064   2.328   0.100   4.075  0.0583 -0.1135  0.6177
    6MOL    C55 1065   2.239   0.186   4.007 -0.2052 -0.5268 -0.0166
    6MOL    H56 1066   2.354   7.587   4.168  0.6711 -0.9391  3.2068
    6MOL    H57 1067   2.482   7.713   4.149  0.8823  0.4207  2.5511
    6MOL    H58 1068   2.182   7.792   4.149 -0.4599  1.0086  0.3472
    6MOL    H59 1069   2.225   0.149   3.906 -0.1179 -0.0951 -0.1853
    6MOL    H60 1070   2.143   0.197   4.057  0.6810  2.8342  1.0837
    6MOL    H61 1071   2.280   0.287   3.999 -0.4640 -0.5480 -1.6010
    6MOL    C62 1072   2.238   7.687   3.966 -0.0432  0.0349 -0.6062
    6MOL    C63 1073   2.350   7.635   3.874  0.2967 -0.1690 -0.2538
    6MOL    O64 1074   2.280   7.536   3.802 -0.7779  0.1288  0.1270
    6MOL    C65 1075   2.340   7.409   3.795 -0.0331  0.3013  0.1715
    6MOL    H66 1076   2.155   7.734   3.913  0.7630  1.2807 -0.7724
    6MOL    H67 1077   2.193   7.600   4.013 -1.1287  0.2830 -1.1645
    6MOL    H68 1078   2.435   7.587   3.923 -1.2550 -2.2928  0.4574
    6MOL    H69 1079   2.362   7.378   3.897  0.3737  1.3255  0.4027
    6MOL    H70 1080   2.277   7.334   3.748 -1.9475  0.1740  2.8551
    6MOL    H71 1081   2.433   7.411   3.737 -0.3279  1.2318 -0.2869
    6MOL    C72 1082   2.382   7.740   3.767 -0.6063 -0.2273 -0.0261
    6MOL    C73 1083   2.500   7.704   3.665 -0.1054 -0.0274  0.0231
    6MOL    O74 1084   2.532   7.804   3.570  0.4196  0.2151  0.1339
    6MOL    C75 1085   2.431   0.035   3.475 -0.8420 -0.6375  0.2664
    6MOL    H76 1086   2.414   0.024   3.811  2.5371 -2.0938  1.8757
    6MOL    H77 1087   2.291   7.764   3.712 -0.7298  0.8611  0.6493
    6MOL    H78 1088   2.469   7.611   3.617 -1.7110 -0.4417  1.7954
    6MOL    H79 1089   2.380   7.765   3.422 -1.9799  2.5228 -3.6333
    6MOL    H80 1090   2.352   0.098   3.515  1.8412  2.8125  0.3308
    6MOL    H81 1091   2.485   0.087   3.396 -0.2280 -2.9237 -0.8718
    6MOL    C82 1092   2.639   7.673   3.737  0.1226  0.7246 -0.2279
    6MOL    C83 1093   2.686   7.786   3.830  0.1319  0.2048  0.2360
    6MOL    O84 1094   2.766   7.727   3.930  0.1435  0.0398  0.0250
    6MOL    C85 1095   2.799   7.810   4.048  0.5276  0.4385  0.3452
    6MOL    H86 1096   2.716   7.652   3.663 -0.9172 -0.3243 -1.0429
    6MOL    H87 1097   2.626   7.579   3.791 -2.3204  1.0273 -0.2475
    6MOL    H88 1098   2.597   0.022   3.872 -0.7397  0.6498 -2.0445
    6MOL    H89 1099   2.730   0.059   4.107 -1.5082 -0.8824 -0.6763
    6MOL    H90 1100   2.842   7.739   4.119  1.4392 -1.9705 -2.5343
    6MOL    H91 1101   2.877   0.072   4.024 -0.5156  0.6025 -2.7377
    6MOL    C92 1102   2.767   0.077   3.740  0.5752  0.3131 -0.1588
    6MOL    C93 1103   2.777   0.221   3.786 -0.0091 -0.3843 -0.0697
    6MOL    O94 1104   2.836   0.292   3.682  0.1308 -0.0222  0.3044
    6MOL    C95 1105   2.970   0.318   3.699 -0.3724  0.0635 -0.5135
    6MOL    H96 1106   2.740   0.074   3.635 -0.3426  0.0880  0.0794
    6MOL    H97 1107   2.869   0.037   3.739  0.9974  1.3790 -2.5981
    6MOL    H98 1108   2.830   0.238   3.879  1.2611  0.9514 -1.0134
    6MOL    H99 1109   3.019   0.386   3.629 -0.9616  2.7174  1.5695
    6MOL   H100 1110   2.997   0.357   3.798 -0.6966 -1.0752  0.0315
    6MOL   H101 1111   3.030   0.228   3.688  0.5883  0.7397 -0.9062
    6MOL   C102 1112   2.638   0.285   3.810  0.8541 -0.3400  0.4113
    6MOL   C103 1113   2.623   0.430   3.860 -0.9088  0.0018  0.1525
    6MOL   O104 1114   2.641   0.505   3.748  0.4525 -0.2338 -0.2557
    6MOL   C105 1115   2.718   0.626   3.762 -0.3599 -0.2214  0.3297
    6MOL   H106 1116   2.575   0.225   3.875  1.5798 -1.7589 -0.1775
    6MOL   H107 1117   2.580   0.280   3.718  0.6107  1.1380  0.4615
    6MOL   H108 1118   2.705   0.442   3.931 -0.0473  0.2047 -0.8627
    6MOL   H109 1119   2.711   0.690   3.674  1.1653 -0.8495 -0.2527
    6MOL   H110 1120   2.674   0.695   3.835  1.4035  1.7862 -0.4433
    6MOL   H111 1121   2.821   0.610   3.795 -1.0681 -0.9621  2.2702
    6MOL   C112 1122   2.489   0.452   3.925  0.3335 -0.0465 -0.7272
    6MOL   C113 1123   2.439   0.595   3.970 -0.9136 -0.3858 -0.3659
    6MOL   O114 1124   2.441   0.686   3.858  0.2155  0.0415 -0.2175
    6MOL   C115 1125   2.353   0.651   3.753 -0.0367  0.8309  0.2428
    6MOL   H116 1126   2.471   0.391   4.014  2.9811  0.9633  0.5527
    6MOL   H117 1127   2.416   0.410   3.856 -0.2662 -2.2914  1.1954
    6MOL   H118 1128   2.516   0.628   4.040 -0.4569 -0.3176 -0.8949
    6MOL   H119 1129   2.352   0.739   3.689  1.0443  0.9795  0.4214
    6MOL   H120 1130   2.407   0.579   3.692  2.4331  2.1407  0.7935
    6MOL   H121 1131   2.254   0.618   3.783  1.2670 -1.1016  2.5798
    6MOL   C122 1132   2.304   0.597   4.042 -0.1875 -0.7178 -0.3153
    6MOL   C123 1133   2.251   0.743   4.077  0.2426  0.3436  0.3383
    6MOL   O124 1134   2.119   0.725   4.141 -0.5354 -0.4847  0.1842
    6MOL   C125 1135   2.004   0.747   4.055 -0.1158  0.2357  0.6339
    6MOL   H126 1136   2.320   0.535   4.130  1.4649 -0.8957 -0.7344
    6MOL   H127 1137   2.228   0.534   3.996 -0.3530  0.5810 -1.8464
    6MOL   H128 1138   2.243   0.804   3.987 -1.1158  0.1831  0.3422
    6MOL   H129 1139   1.991   0.848   4.019  0.7057  0.0078 -0.3257
    6MOL   H130 1140   1.999   0.664   3.984 -0.0825  0.0798  0.8105
    6MOL   H131 1141   1.915   0.728   4.116 -0.3335  2.3523  0.9895
    6MOL   C132 1142   2.338   0.809   4.184 -0.3095  0.2330  0.2857
    6MOL   C133 1143   2.318   0.948   4.239 -0.0824  0.5482 -0.3526
    6MOL   O134 1144   2.412   0.968   4.345 -0.0688 -0.4013 -0.0310
    6MOL   C135 1145   2.347   0.982   4.471 -0.2829 -0.1385 -0.3898
    6MOL   H136 1146   2.444   0.807   4.156 -0.5771 -1.4573 -0.6684
    6MOL   H137 1147   2.327   0.746   4.272  1.5491  0.5527  0.7645
    6MOL   H138 1148   2.216   0.957   4.276 -0.2271  0.4215 -0.7209
    6MOL   H139 1149   2.304   1.081   4.486 -0.5193 -0.5042  1.4081
    6MOL   H140 1150   2.268   0.909   4.484 -0.5954  0.4957  1.4729
    6MOL   H141 1151   2.423   0.966   4.548 -0.7691  0.4766  0.2181
    6MOL   C142 1152   2.343   1.057   4.132  0.0763 -0.4297  0.2431
    6MOL   C143 1153   2.213   1.112   4.075 -0.5146  0.4334 -0.1701
    6MOL   O144 1154   2.123   1.157   4.173 -0.5860  0.2324  0.9754
    6MOL   C145 1155   1.993   1.122   4.156 -0.3649  0.1477 -0.2171
    6MOL   H146 1156   2.407   1.017   4.054  0.2041  0.9449 -0.3710
    6MOL   H147 1157   2.394   1.142   4.179 -0.8078  0.4585 -0.3942
    6MOL   H148 1158   2.165   1.035   4.014  1.3340 -0.2927 -0.7490
    6MOL   H149 1159   1.964   1.036   4.216  1.1055  0.7563  1.4211
    6MOL   H150 1160   1.928   1.195   4.203 -0.8208  0.7241 -1.6898
    6MOL   H151 1161   1.964   1.119   4.051  1.2604 -1.1863 -0.6418
    6MOL   C152 1162   2.242   1.245   3.992 -0.1981  0.0767 -0.4827
    6MOL   C153 1163   2.309   1.218   3.853 -0.0401 -0.2470 -0.3532
    6MOL   O154 1164   2.220   1.126   3.803  0.0226 -0.1653  0.0058
    6MOL   C155 1165   2.262   1.022   3.714 -0.1817 -0.5790  0.3310
    6MOL   H156 1166   2.302   1.312   4.054 -2.7939  0.1466  2.0205
    6MOL   H157 1167   2.140   1.282   3.982  0.2535  1.0988 -1.3851
    6MOL   H158 1168   2.413   1.186   3.856  0.1300  0.2858 -0.6016
    6MOL   H159 1169   2.216   0.925   3.734  0.7875 -0.7627  1.7033
    6MOL   H160 1170   2.239   1.043   3.609  0.9185 -0.1456  0.1669
    6MOL   H161 1171   2.370   1.013   3.728 -0.1570  0.1108  0.5878
    6MOL   C162 1172   2.291   1.335   3.752  0.0678  0.5509 -0.1764
    6MOL   C163 1173   2.376   1.461   3.773 -0.2029  0.0094 -0.0312
    6MOL   O164 1174   2.344   1.496   3.908 -0.1862 -0.5780  0.6061
    6MOL   C165 1175   2.308   1.628   3.947  0.8344  0.0860  0.9208
    6MOL   H166 1176   2.188   1.370   3.753 -0.0740  0.1294  0.4206
    6MOL   H167 1177   2.314   1.296   3.653  1.0778 -2.5008  1.1707
    6MOL   H168 1178   2.350   1.540   3.703  0.6760  1.0250  0.7561
    6MOL   H169 1179   2.265   1.636   4.046 -2.6493  2.0129 -0.6495
    6MOL   H170 1180   2.402   1.683   3.934  0.0412  1.1425 -0.4516
    6MOL   H171 1181   2.238   1.681   3.882  2.1632 -0.4340 -0.9958
    6MOL   C172 1182   2.533   1.445   3.768 -0.2755  0.0490 -0.0265
    6MOL   C173 1183   2.591   1.409   3.632  0.0785 -0.1609 -0.3274
    6MOL   O174 1184   2.561   1.516   3.536 -0.0220  0.9246  0.1864
    6MOL   C175 1185   2.529   1.476   3.399 -0.5193 -1.0344 -0.1494
    6MOL   H176 1186   2.568   1.373   3.842 -2.8246 -3.2161 -1.8998
    6MOL   H177 1187   2.580   1.536   3.805  1.5656 -0.4688 -1.0269
    6MOL   H178 1188   2.535   1.322   3.599 -2.2505  1.2930 -0.2912
    6MOL   H179 1189   2.441   1.412   3.399 -0.8588 -0.6593  2.8415
    6MOL   H180 1190   2.494   1.559   3.339  1.6434 -0.2112 -0.2951
    6MOL   H181 1191   2.610   1.423   3.351 -0.7690 -0.0414 -1.6982
    6MOL   C182 1192   2.742   1.393   3.624  0.1668  0.7234 -0.6499
    6MOL   C183 1193   2.791   1.266   3.692  0.2847 -0.2115 -0.2267
    6MOL   O184 1194   2.728   1.158   3.620 -0.5880  0.2934 -0.3733
    6MOL   C185 1195   2.687   1.057   3.702 -0.2426 -0.2623 -0.2474
    6MOL   H186 1196   2.789   1.487   3.652 -0.3648  0.6546  0.5356
    6MOL   H187 1197   2.755   1.380   3.517 -3.2802  1.7521 -1.2617
    6MOL   H188 1198   2.773   1.261   3.799  0.6348  0.3850 -0.1375
    6MOL   H189 1199   2.629   1.091   3.788 -2.1298 -1.1792 -1.1115
    6MOL   H190 1200   2.632   0.979   3.649  0.8576 -1.4884  0.3784
    6MOL   H191 1201   2.773   1.004   3.742  2.3923  3.3781 -0.9324
    6MOL   C192 1202   2.946   1.248   3.679 -0.2657  0.4082  0.0138
    6MOL   C193 1203   3.049   1.322   3.770  0.6174  0.1694  0.5456
    6MOL   O194 1204   3.181   1.283   3.729  0.0179 -0.1560 -0.5766
    6MOL   C195 1205   3.284   1.323   3.814 -0.0370  0.0859  0.5223
    6MOL   H196 1206   2.966   1.274   3.575 -2.2183 -1.8643 -0.9778
    6MOL   H197 1207   2.980   1.145   3.687  3.2855  1.6575  1.9514
    6MOL   H198 1208   3.021   1.290   3.871 -1.6696 -0.1375 -0.1684
    6MOL   H199 1209   3.377   1.333   3.757  0.7312 -3.4547  1.0452
    6MOL   H200 1210   3.259   1.420   3.856  0.1835  0.6811 -0.6823
    6MOL   H201 1211   3.293   1.243   3.887 -3.0337 -1.0352 -0.2733
    6MOL   H202 1212   3.033   1.429   3.752  0.5179  0.2219  0.9275
    7MOL     C1 1213   1.685   5.616   2.396  0.0002  0.9069  0.3624
    7MOL     C2 1214   1.757   5.517   2.305 -0.6705  0.1549 -0.2396
    7MOL     O3 1215   1.688   5.390   2.301 -0.0336 -0.0591 -0.2270
    7MOL     C4 1216   1.712   5.292   2.403  0.0885 -0.0807  0.0643
    7MOL     H5 1217   1.583   5.640   2.366  0.0451  2.2307  1.2212
    7MOL     H6 1218   1.667   5.574   2.495 -2.8494  3.2583  0.9068
    7MOL     H7 1219   1.860   5.507   2.341  0.1388  1.0242 -2.2355
    7MOL     H8 1220   1.653   5.203   2.385  1.3384 -0.7052 -1.0530
    7MOL     H9 1221   1.816   5.262   2.393  1.5124  3.3656  3.2734
    7MOL    H10 1222   1.705   5.337   2.502  2.7114 -1.1812  0.7796
    7MOL    H11 1223   1.748   5.704   2.406 -0.9223  1.6278 -0.0720
    7MOL    C12 1224   1.753   5.563   2.159 -0.4282 -0.6912  0.4468
    7MOL    C13 1225   1.849   5.680   2.120 -0.5390  0.4301  0.0239
    7MOL    O14 1226   1.966   5.633   2.048 -0.8134 -0.2803 -0.3815
    7MOL    C15 1227   2.059   5.554   2.123  0.1257 -0.3577 -0.3759
    7MOL    H16 1228   1.650   5.568   2.126 -0.0097  0.7481 -0.6819
    7MOL    H17 1229   1.785   5.469   2.113 -0.0466 -0.2836 -0.1221
    7MOL    H18 1230   1.875   5.740   2.207 -1.1507 -0.3234  0.7319
    7MOL    H19 1231   2.052   5.575   2.230 -2.0696  1.0855 -0.7589
    7MOL    H20 1232   2.029   5.451   2.104 -0.2650 -0.4492  0.6825
    7MOL    H21 1233   2.160   5.565   2.084  1.1333  0.2526  2.3050
    7MOL    C22 1234   1.783   5.768   2.004  0.4012  0.2695 -0.4642
    7MOL    C23 1235   1.843   5.905   1.990 -0.8393  0.1081  0.3555
    7MOL    O24 1236   1.806   5.971   2.109 -0.2986 -0.3210 -0.0944
    7MOL    C25 1237   1.837   6.109   2.110 -0.4881 -0.2611  0.6661
    7MOL    H26 1238   1.678   5.775   2.033  0.0119  0.0379 -1.7928
    7MOL    H27 1239   1.790   5.722   1.905  1.4426 -0.4747 -0.0517
    7MOL    H28 1240   1.794   5.961   1.911  1.3786  0.3142 -0.9308
    7MOL    H29 1241   1.944   6.124   2.122 -0.3665  2.5015 -2.9082
    7MOL    H30 1242   1.796   6.147   2.016  2.1095 -0.1829 -0.4738
    7MOL    H31 1243   1.774   6.168   2.177  0.0209 -0.2457  1.1293
    7MOL    C32 1244   1.997   5.908   1.962 -0.5100 -0.6774 -0.0916
    7MOL    C33 1245   2.035   5.855   1.827  0.1782 -0.6209 -0.1483
    7MOL    O34 1246   1.993   5.945   1.727 -0.1996  0.0659 -0.1532
    7MOL    C35 1247   1.976   5.879   1.606 -0.3570 -0.1975 -0.6317
    7MOL    H36 1248   2.053   5.855   2.039  0.1984  0.3459  0.1086
    7MOL    H37 1249   2.032   6.011   1.972  1.5721 -1.6236  3.1101
    7MOL    H38 1250   1.995   5.755   1.811 -1.1871 -0.2760  1.0077
    7MOL    H39 1251   2.075   5.850   1.572 -0.2606 -0.0518 -0.4801
    7MOL    H40 1252   1.912   5.791   1.613 -2.4944  1.2878 -0.8086
    7MOL    H41 1253   1.932   5.934   1.523  1.0943 -0.7631 -1.7817
    7MOL    C42 1254   2.190   5.831   1.818  0.4827  0.1588  0.6028
    7MOL    C43 1255   2.283   5.956   1.811 -0.0125 -0.5345 -0.3009
    7MOL    O44 1256   2.287   6.019   1.942  0.2213 -0.0586 -0.5658
    7MOL    C45 1257   2.296   6.160   1.945 -0.0910 -0.2734 -1.0018
    7MOL    H46 1258   2.213   5.760   1.739  0.0993  2.0256 -1.2189
    7MOL    H47 1259   2.213   5.771   1.906 -0.1694 -0.3787  0.4162
    7MOL    H48 1260   2.234   6.026   1.743 -0.7820 -1.3728 -0.6235
    7MOL    H49 1261   2.296   6.186   2.050 -1.0267 -1.8530 -0.5941
    7MOL    H50 1262   2.396   6.191   1.914  0.1137  0.1046  0.0447
    7MOL    H51 1263   2.210   6.191   1.885  0.2450 -0.2737 -1.4944
    7MOL    C52 1264   2.421   5.927   1.759  0.2303 -0.0489  0.0784
    7MOL    C53 1265   2.431   5.919   1.611 -0.2694 -0.0984  0.6403
    7MOL    O54 1266   2.417   6.045   1.549 -0.1380 -0.3961 -0.0491
    7MOL    C55 1267   2.307   6.050   1.450  0.1054  0.0023  0.4323
    7MOL    H56 1268   2.449   5.831   1.802  1.2029 -0.4305 -1.3382
    7MOL    H57 1269   2.489   6.000   1.802 -1.2858  1.0703  0.6116
    7MOL    H58 1270   2.360   5.847   1.569 -2.2297  1.6147  0.9967
    7MOL    H59 1271   2.206   6.069   1.487 -0.4071  0.8278 -1.3598
    7MOL    H60 1272   2.331   6.130   1.381 -2.4329 -0.3545 -0.9376
    7MOL    H61 1273   2.305   5.960   1.388 -1.1806  0.1922  0.1864
    7MOL    C62 1274   2.567   5.872   1.559 -0.2692  0.4696  0.0891
    7MOL    C63 1275   2.583   5.853   1.404 -0.7378  0.4724 -0.5315
    7MOL    O64 1276   2.724   5.853   1.370  0.1370 -0.0614  0.0212
    7MOL    C65 1277   2.797   5.743   1.426  0.2230  0.1738  0.2593
    7MOL    H66 1278   2.586   5.778   1.610 -0.3361 -0.5131 -1.6646
    7MOL    H67 1279   2.641   5.943   1.598  0.9703 -2.9383  4.3706
    7MOL    H68 1280   2.544   5.934   1.342 -0.1930  1.6787  0.6709
    7MOL    H69 1281   2.894   5.725   1.379 -1.1345 -1.4759 -2.0312
    7MOL    H70 1282   2.816   5.758   1.532 -1.5938 -1.6303  0.8784
    7MOL    H71 1283   2.753   5.644   1.412  0.4183  0.3285 -1.6002
    7MOL    C72 1284   2.512   5.729   1.337 -0.4470 -0.4606  0.3041
    7MOL    C73 1285   2.550   5.699   1.189  0.4633 -0.9374 -0.5300
    7MOL    O74 1286   2.456   5.599   1.148  0.2597  0.7234 -0.2554
    7MOL    C75 1287   2.511   5.466   1.127  0.2967 -0.0727 -0.6532
    7MOL    H76 1288   2.405   5.752   1.335 -0.3126  0.0671 -1.8272
    7MOL    H77 1289   2.519   5.632   1.386 -1.4589 -1.0836 -0.7581
    7MOL    H78 1290   2.651   5.658   1.191 -0.2760 -3.0450 -2.9814
    7MOL    H79 1291   2.436   5.401   1.082 -1.0337  1.6398 -0.9662
    7MOL    H80 1292   2.591   5.471   1.053  3.0749  0.7200  2.3054
    7MOL    H81 1293   2.552   5.416   1.215  2.6669  1.8017 -0.6354
    7MOL    C82 1294   2.547   5.807   1.080 -0.2200 -0.3423  0.0161
    7MOL    C83 1295   2.641   5.780   0.957  0.4430  0.2039  0.0947
    7MOL    O84 1296   2.598   5.853   0.840  0.4043  0.1941  0.4975
    7MOL    C85 1297   2.505   5.789   0.763 -0.1988  0.4704 -0.0100
    7MOL    H86 1298   2.546   5.912   1.110 -1.9805 -0.7956  1.5974
    7MOL    H87 1299   2.445   5.814   1.041 -0.8323  0.7509  1.7347
    7MOL    H88 1300   2.650   5.673   0.936 -0.1605 -0.1322  1.4496
    7MOL    H89 1301   2.542   5.692   0.728 -0.2687 -0.0756  1.3801
    7MOL    H90 1302   2.408   5.798   0.812  0.6576 -1.7691  2.2219
    7MOL    H91 1303   2.492   5.853   0.676  0.2643  1.0251  0.3255
    7MOL    C92 1304   2.789   5.830   0.980 -0.2930 -0.0699 -0.7716
    7MOL    C93 1305   2.894   5.792   0.872  0.4151 -0.1125 -0.4263
    7MOL    O94 1306   3.032   5.820   0.907 -0.6549 -0.2431 -0.3158
    7MOL    C95 1307   3.061   5.946   0.966  0.4041  0.6494  0.6268
    7MOL    H96 1308   2.822   5.776   1.069 -0.4335  1.9164  0.5402
    7MOL    H97 1309   2.776   5.937   1.000 -0.4773  0.3984 -3.3228
    7MOL    H98 1310   2.868   5.857   0.789  2.8460  0.8872 -0.4463
    7MOL    H99 1311   3.049   5.955   1.074 -0.3914 -0.8369  0.6733
    7MOL   H100 1312   3.159   5.984   0.938  1.5832 -1.1213  2.1897
    7MOL   H101 1313   2.979   6.010   0.935  0.9642  0.5835 -1.0118
    7MOL   C102 1314   2.890   5.647   0.811  0.5918  0.4549  0.0798
    7MOL   C103 1315   2.987   5.627   0.690  0.1300 -0.3295  0.1117
    7MOL   O104 1316   2.991   5.486   0.662 -0.2707  0.5369  0.5072
    7MOL   C105 1317   3.086   5.410   0.732 -0.4681 -1.1945  0.0346
    7MOL   H106 1318   2.787   5.627   0.782  1.9966 -0.7188 -4.5923
    7MOL   H107 1319   2.919   5.578   0.890  1.7884  0.8684  0.0243
    7MOL   H108 1320   3.080   5.680   0.712 -0.1172 -0.1926  0.8358
    7MOL   H109 1321   3.186   5.436   0.699 -0.7358  1.0991  0.9675
    7MOL   H110 1322   3.074   5.421   0.840  3.0955  5.6763 -0.0508
    7MOL   H111 1323   3.068   5.305   0.706  0.0750 -1.4502  0.6827
    7MOL   C112 1324   2.923   5.694   0.567  0.2471  0.6047  0.6760
    7MOL   C113 1325   2.971   5.845   0.544 -0.3115  0.1092 -0.4328
    7MOL   O114 1326   3.069   5.870   0.441  0.3412 -0.9184 -0.8535
    7MOL   C115 1327   3.202   5.921   0.478 -0.4581 -0.3156  0.8243
    7MOL   H116 1328   2.815   5.693   0.579  0.3705 -0.6942  1.6765
    7MOL   H117 1329   2.947   5.644   0.473  0.0594  2.7951 -0.5970
    7MOL   H118 1330   3.017   5.878   0.638 -1.8517  1.6560 -0.1877
    7MOL   H119 1331   3.262   5.954   0.393 -1.9699  0.6977  0.1227
    7MOL   H120 1332   3.190   6.021   0.519  0.6971 -0.4986  1.6314
    7MOL   H121 1333   3.267   5.858   0.539 -1.3357 -1.5486  0.5095
    7MOL   C122 1334   2.862   5.948   0.516  0.3790 -0.4356 -0.1057
    7MOL   C123 1335   2.791   5.947   0.383 -0.7558 -0.0089 -0.0835
    7MOL   O124 1336   2.728   5.820   0.373  0.1362 -0.2856 -0.4568
    7MOL   C125 1337   2.743   5.748   0.252  0.7369 -0.1620 -0.5207
    7MOL   H126 1338   2.917   6.041   0.519  0.1926 -0.3428  0.6627
    7MOL   H127 1339   2.790   5.960   0.597 -1.7829  0.8138 -2.1506
    7MOL   H128 1340   2.856   5.955   0.296  1.1183 -1.3085  1.1796
    7MOL   H129 1341   2.696   5.650   0.243  0.7261 -0.2301  0.2520
    7MOL   H130 1342   2.716   5.813   0.169  1.0931  1.6306  0.7387
    7MOL   H131 1343   2.850   5.731   0.238  1.6069  2.4407  2.3279
    7MOL   C132 1344   2.675   6.055   0.355 -0.2954  0.2943 -0.4660
    7MOL   C133 1345   2.726   6.196   0.327  0.0034  0.1921  0.2904
    7MOL   O134 1346   2.625   6.269   0.257  0.1720 -0.2555  0.0369
    7MOL   C135 1347   2.652   6.267   0.115  0.1040  0.2876 -0.2069
    7MOL   H136 1348   2.593   6.045   0.427  0.2131  0.3059  0.1228
    7MOL   H137 1349   2.624   6.033   0.262 -0.8724 -1.5492  0.2664
    7MOL   H138 1350   2.819   6.186   0.270  1.1413 -0.8767  2.2800
    7MOL   H139 1351   2.663   6.162   0.089  0.1168 -0.6121  3.1880
    7MOL   H140 1352   2.565   6.308   0.063 -0.7302  1.4899  2.0572
    7MOL   H141 1353   2.744   6.323   0.097 -1.6903  3.6275  0.6398
    7MOL   C142 1354   2.731   6.274   0.456 -0.7405  0.4389 -0.4012
    7MOL   C143 1355   2.801   6.407   0.445 -1.4268  0.1316  0.2877
    7MOL   O144 1356   2.795   6.480   0.565 -0.1035 -0.4082  0.7569
    7MOL   C145 1357   2.675   6.566   0.562 -0.1132  0.5828 -0.5811
    7MOL   H146 1358   2.776   6.214   0.535 -1.9969 -0.3158 -0.2397
    7MOL   H147 1359   2.632   6.293   0.496 -0.1101  2.6429  0.1718
    7MOL   H148 1360   2.760   6.465   0.363 -2.3275 -2.4301 -1.1259
    7MOL   H149 1361   2.586   6.505   0.577  1.1907 -1.4580 -1.0651
    7MOL   H150 1362   2.667   6.631   0.649 -0.3082  0.4131 -0.4719
    7MOL   H151 1363   2.671   6.630   0.473 -0.6864  1.4303  0.0394
    7MOL   C152 1364   2.949   6.398   0.427  0.1203  0.0864  0.5430
    7MOL   C153 1365   3.011   6.532   0.374 -0.1494  0.7197  0.4486
    7MOL   O154 1366   3.147   6.533   0.414 -0.4541  0.1928 -0.1545
    7MOL   C155 1367   3.161   6.595   0.544 -0.8603 -0.9697 -0.4278
    7MOL   H156 1368   2.978   6.322   0.354 -2.8247  0.4619 -1.0781
    7MOL   H157 1369   2.985   6.375   0.527 -2.0520  2.7577  1.9869
    7MOL   H158 1370   2.966   6.622   0.414  0.0180  1.5415 -1.1723
    7MOL   H159 1371   3.264   6.628   0.553 -1.6971  0.8851  3.4254
    7MOL   H160 1372   3.110   6.691   0.546  0.1091 -0.4668  0.8478
    7MOL   H161 1373   3.138   6.531   0.629  0.7631  0.5092  1.1515
    7MOL   C162 1374   3.008   6.535   0.219  0.0427  0.3197  0.5349
    7MOL   C163 1375   3.056   6.672   0.161 -0.4053 -0.3066  0.2010
    7MOL   O164 1376   3.140   6.639   0.047  0.0856 -0.0758  0.1991
    7MOL   C165 1377   3.263   6.696   0.048 -0.2196 -0.3667 -0.4358
    7MOL   H166 1378   2.912   6.514   0.172 -1.3161  2.4315  2.2711
    7MOL   H167 1379   3.075   6.456   0.184  0.5091 -0.0725  2.2633
    7MOL   H168 1380   3.115   6.712   0.244  0.4845  0.4478 -0.7884
    7MOL   H169 1381   3.324   6.673   7.772 -1.5038  1.1373 -1.7962
    7MOL   H170 1382   3.251   6.805   0.048  0.9774 -0.2250 -1.3528
    7MOL   H171 1383   3.317   6.666   0.138 -0.7830  1.8761  0.6867
    7MOL   C172 1384   2.947   6.768   0.104  0.2206  0.2441 -0.1410
    7MOL   C173 1385   2.844   6.814   0.212 -0.7884  0.3953 -0.2941
    7MOL   O174 1386   2.910   6.895   0.304  0.4836 -0.6228 -0.1505
    7MOL   C175 1387   2.847   6.902   0.438 -0.2734 -0.8539 -0.0214
    7MOL   H176 1388   2.887   6.711   0.032  2.8973  0.2728 -2.4681
    7MOL   H177 1389   2.982   6.853   0.046 -0.4879  0.0686 -0.8366
    7MOL   H178 1390   2.813   6.719   0.254 -1.8003  0.1552 -1.5531
    7MOL   H179 1391   2.848   6.799   0.474  1.4849 -0.8019  0.1470
    7MOL   H180 1392   2.901   6.969   0.505 -0.2372  0.4788 -1.3639
    7MOL   H181 1393   2.741   6.923   0.425 -0.2671  0.5205  2.0067
    7MOL   C182 1394   2.717   6.873   0.142  0.3053 -0.8359 -0.1468
    7MOL   C183 1395   2.614   6.765   0.101 -0.0022 -0.0028  0.5448
    7MOL   O184 1396   2.546   6.729   0.219  0.2015 -1.2256  0.6694
    7MOL   C185 1397   2.474   6.603   0.221 -0.2063 -0.7704  0.0836
    7MOL   H186 1398   2.765   6.923   0.058 -1.0658 -0.9701 -1.0141
    7MOL   H187 1399   2.669   6.949   0.204  1.2958  0.5458 -1.0456
    7MOL   H188 1400   2.658   6.675   0.060 -0.0982 -1.5552  3.6664
    7MOL   H189 1401   2.466   6.564   0.323  0.7292  1.8809  1.2166
    7MOL   H190 1402   2.376   6.618   0.178 -0.2526  3.8305  1.4830
    7MOL   H191 1403   2.532   6.530   0.164  0.0564 -0.6420  0.1816
    7MOL   C192 1404   2.512   6.823   0.004  0.4815  0.4401 -0.4327
    7MOL   C193 1405   2.528   6.769   7.671 -0.0629 -0.2729  0.6739
    7MOL   O194 1406   2.436   6.831   7.587  0.9267 -0.4341  0.1823
    7MOL   C195 1407   2.493   6.933   7.501  0.0041 -0.1447  0.0109
    7MOL   H196 1408   2.522   6.931   7.807  0.4100  0.5597  1.1777
    7MOL   H197 1409   2.410   6.798   0.034 -0.3563  1.0538 -2.6282
    7MOL   H198 1410   2.497   6.665   7.670 -2.5242  0.4366  0.0909
    7MOL   H199 1411   2.579   6.891   7.448  1.0258 -0.4116  1.8159
    7MOL   H200 1412   2.412   6.942   7.429 -0.8137  3.9464  1.2698
    7MOL   H201 1413   2.513   7.025   7.556  0.9297 -0.8323  0.8449
    7MOL   H202 1414   2.629   6.764   7.629  0.7856 -0.5827  2.6828
    8MOL     C1 1415   1.119   1.961   1.635 -0.4450 -0.4177 -0.1121
    8MOL     C2 1416   1.225   2.056   1.689 -0.4201  0.3399 -0.8927
    8MOL     O3 1417   1.242   2.041   1.831 -0.1421  0.0438  0.0160
    8MOL     C4 1418   1.156   2.131   1.909  0.2195 -0.1998  0.1721
    8MOL     H5 1419   1.151   1.856   1.635 -0.5774 -0.5012 -2.8011
    8MOL     H6 1420   1.026   1.961   1.691 -0.0719 -0.7735  0.5136
    8MOL     H7 1421   1.208   2.162   1.670 -1.5692  0.8363  2.5416
    8MOL     H8 1422   1.158   2.094   2.012 -2.2095  1.8192  0.9853
    8MOL     H9 1423   1.189   2.235   1.908  0.1949 -0.1659  1.3987
    8MOL    H10 1424   1.054   2.134   1.871  0.6899  1.5615 -0.9866
    8MOL    H11 1425   1.094   1.992   1.534  3.5879 -0.7850 -1.3138
    8MOL    C12 1426   1.357   2.030   1.631  0.1342  0.3044  0.1431
    8MOL    C13 1427   1.474   2.117   1.686  0.0479  0.0803 -0.1439
    8MOL    O14 1428   1.600   2.062   1.662 -0.0239  0.6269 -0.1217
    8MOL    C15 1429   1.638   1.961   1.749  0.4104  0.6213  0.5371
    8MOL    H16 1430   1.362   2.047   1.524 -0.0475  1.3574  0.2989
    8MOL    H17 1431   1.390   1.926   1.632  0.0294  0.2622 -0.8137
    8MOL    H18 1432   1.471   2.139   1.793 -0.4149  2.0262 -0.5550
    8MOL    H19 1433   1.640   1.992   1.854 -0.0295  0.2094  0.6702
    8MOL    H20 1434   1.579   1.872   1.726 -1.8648  2.5127 -1.2881
    8MOL    H21 1435   1.740   1.942   1.716  1.4025  3.5142  1.7681
    8MOL    C22 1436   1.478   2.248   1.611 -0.1304  0.1279 -0.2645
    8MOL    C23 1437   1.586   2.346   1.660  0.0991  1.0312 -0.3208
    8MOL    O24 1438   1.601   2.447   1.561 -0.0018 -0.3324 -0.0809
    8MOL    C25 1439   1.696   2.406   1.466  0.2224  0.9238  0.4061
    8MOL    H26 1440   1.384   2.303   1.618  0.7762  1.7419 -0.5951
    8MOL    H27 1441   1.485   2.224   1.505  0.6222  0.4476 -0.2901
    8MOL    H28 1442   1.674   2.293   1.695 -2.5989 -2.7454  0.9533
    8MOL    H29 1443   1.664   2.310   1.426  0.2525  1.3046 -0.5490
    8MOL    H30 1444   1.699   2.475   1.381 -0.1475 -1.3329 -1.4941
    8MOL    H31 1445   1.798   2.405   1.505  0.2385  1.4900  0.3840
    8MOL    C32 1446   1.527   2.428   1.780 -0.0280  0.0819 -0.2995
    8MOL    C33 1447   1.619   2.525   1.845  0.4826  0.5269  0.8298
    8MOL    O34 1448   1.545   2.620   1.918  0.1165 -0.3911 -0.0264
    8MOL    C35 1449   1.545   2.752   1.856  0.3786 -0.0763  0.5264
    8MOL    H36 1450   1.492   2.356   1.853  0.6971  0.4388  0.4030
    8MOL    H37 1451   1.439   2.479   1.740 -0.7194 -1.2051 -0.4288
    8MOL    H38 1452   1.666   2.576   1.761  0.8413 -0.7354  0.2551
    8MOL    H39 1453   1.480   2.816   1.915  0.1770 -0.4735  0.7387
    8MOL    H40 1454   1.638   2.809   1.854 -0.3447  1.1121 -2.3395
    8MOL    H41 1455   1.505   2.741   1.755  0.0612  0.9759  0.5321
    8MOL    C42 1456   1.731   2.464   1.940  0.0663  0.5000  0.0191
    8MOL    C43 1457   1.842   2.549   2.000 -0.4392  0.8934 -0.0410
    8MOL    O44 1458   1.937   2.484   2.090  0.1431  0.1466 -0.7786
    8MOL    C45 1459   1.886   2.454   2.216  0.0061  0.0298  0.0047
    8MOL    H46 1460   1.775   2.385   1.879  0.5618  1.5864 -1.0499
    8MOL    H47 1461   1.677   2.416   2.021  2.9259  0.0848  1.7454
    8MOL    H48 1462   1.795   2.628   2.059  3.3862  0.6546  3.5926
    8MOL    H49 1463   1.974   2.441   2.279 -0.6570 -0.9670  0.7382
    8MOL    H50 1464   1.822   2.529   2.263 -0.5406 -1.2158  1.2745
    8MOL    H51 1465   1.826   2.363   2.215  1.2320 -0.8383  1.9457
    8MOL    C52 1466   1.934   2.616   1.891 -0.8064  0.9627 -0.0549
    8MOL    C53 1467   1.984   2.532   1.769 -0.4721 -0.2740 -0.2563
    8MOL    O54 1468   2.071   2.616   1.689  0.3106  0.2235  0.4829
    8MOL    C55 1469   2.004   2.706   1.604  0.1883  0.3884  0.5034
    8MOL    H56 1470   2.020   2.661   1.940 -1.5367  1.5187  0.7500
    8MOL    H57 1471   1.876   2.697   1.845 -1.0172  1.1193  0.4793
    8MOL    H58 1472   1.887   2.499   1.730 -0.0812 -3.2595  1.1040
    8MOL    H59 1473   1.965   2.796   1.652  1.3368  1.1201  0.0809
    8MOL    H60 1474   2.071   2.752   1.532  0.3356  2.2056  1.7696
    8MOL    H61 1475   1.919   2.651   1.564 -0.0077 -0.7763  2.4417
    8MOL    C62 1476   2.051   2.392   1.805  0.1294 -0.3439  0.1745
    8MOL    C63 1477   2.130   2.313   1.699  0.2708  0.5119 -0.3343
    8MOL    O64 1478   2.041   2.262   1.596 -0.5855 -0.2109 -0.1440
    8MOL    C65 1479   1.969   2.145   1.638 -0.7358 -0.1827 -0.6676
    8MOL    H66 1480   1.981   2.331   1.863 -0.4053  0.8739  0.8219
    8MOL    H67 1481   2.117   2.420   1.887 -0.0463 -1.1186  0.5930
    8MOL    H68 1482   2.162   2.225   1.755  0.6480 -0.3560 -1.8975
    8MOL    H69 1483   1.907   2.117   1.553 -1.1315 -2.2908  0.2716
    8MOL    H70 1484   2.033   2.062   1.669  0.8222  1.5114  0.8078
    8MOL    H71 1485   1.892   2.170   1.712 -0.2250  1.0912 -0.5521
    8MOL    C72 1486   2.257   2.378   1.639  0.4523  0.1627  0.1148
    8MOL    C73 1487   2.315   2.283   1.530  0.0187  0.4322  0.0086
    8MOL    O74 1488   2.435   2.345   1.478 -0.2525  0.6804  0.1271
    8MOL    C75 1489   2.412   2.440   1.372 -0.3327 -0.3620 -0.2182
    8MOL    H76 1490   2.324   2.393   1.724 -0.6024 -0.8281  1.1389
    8MOL    H77 1491   2.230   2.477   1.603  0.1346 -0.3495 -1.0720
    8MOL    H78 1492   2.244   2.256   1.451  0.7926 -0.0851 -0.5113
    8MOL    H79 1493   2.329   2.510   1.382 -0.0463  0.1187 -1.1742
    8MOL    H80 1494   2.500   2.502   1.356 -1.7114  2.3065  2.1119
    8MOL    H81 1495   2.396   2.380   1.282 -0.3298  1.6857 -1.6251
    8MOL    C82 1496   2.360   2.150   1.584  0.1715  0.3865 -0.0827
    8MOL    C83 1497   2.430   2.050   1.483  0.3509  0.0312  0.1683
    8MOL    O84 1498   2.505   1.949   1.549  0.4920  0.0469 -0.0999
    8MOL    C85 1499   2.639   1.979   1.579  0.1027 -0.0624 -0.3959
    8MOL    H86 1500   2.277   2.096   1.630  1.9853  0.0927  2.9762
    8MOL    H87 1501   2.429   2.157   1.668  1.2963  0.9456 -1.0375
    8MOL    H88 1502   2.501   2.100   1.417  1.2608 -0.5381  0.7225
    8MOL    H89 1503   2.698   2.031   1.504 -0.1521 -0.3688 -0.8102
    8MOL    H90 1504   2.647   2.045   1.665  0.0681 -1.1547  0.4559
    8MOL    H91 1505   2.698   1.891   1.606 -1.1271 -1.1440 -1.1358
    8MOL    C92 1506   2.315   1.983   1.394 -0.7358 -0.0026 -0.7847
    8MOL    C93 1507   2.368   1.912   1.272  0.2342  0.2521  0.5497
    8MOL    O94 1508   2.271   1.821   1.231  0.5550  0.1592 -0.4132
    8MOL    C95 1509   2.259   1.694   1.307 -0.2112  0.0857 -0.0954
    8MOL    H96 1510   2.236   2.054   1.367 -1.2333 -0.2356  0.0343
    8MOL    H97 1511   2.269   1.918   1.468  0.8873 -0.0337  0.2232
    8MOL    H98 1512   2.458   1.853   1.290  1.2084  1.1921 -1.0931
    8MOL    H99 1513   2.348   1.634   1.330 -0.5756  0.0455  1.2311
    8MOL   H100 1514   2.208   1.723   1.398  1.9334  1.7923  0.6010
    8MOL   H101 1515   2.200   1.625   1.246 -0.1589 -1.7435  1.8712
    8MOL   C102 1516   2.393   2.013   1.160  0.2172 -0.4851  0.4302
    8MOL   C103 1517   2.448   1.952   1.027 -0.3745 -0.6905 -0.0926
    8MOL   O104 1518   2.430   2.062   0.937 -0.5146  0.1904  0.1471
    8MOL   C105 1519   2.410   2.016   0.806 -0.4667 -0.0579  0.3834
    8MOL   H106 1520   2.452   2.095   1.202 -1.2460 -0.3167  2.2533
    8MOL   H107 1521   2.292   2.052   1.144  0.4237 -0.1829 -0.1546
    8MOL   H108 1522   2.369   1.880   1.004 -3.4046  2.0970  1.0652
    8MOL   H109 1523   2.310   1.978   0.784 -0.4018 -0.5595  0.9576
    8MOL   H110 1524   2.429   2.100   0.740  0.1293 -1.3991 -1.1855
    8MOL   H111 1525   2.481   1.941   0.772  0.5024  1.8109 -1.8384
    8MOL   C112 1526   2.589   1.890   1.046 -0.4984  0.4044 -0.1859
    8MOL   C113 1527   2.598   1.746   1.069 -0.1044 -0.0581 -0.1902
    8MOL   O114 1528   2.579   1.678   0.940  0.3892 -0.2136 -0.1668
    8MOL   C115 1529   2.486   1.571   0.945 -0.1539 -0.1431 -0.2620
    8MOL   H116 1530   2.643   1.940   1.127  1.3533 -1.1620 -0.4090
    8MOL   H117 1531   2.645   1.905   0.953 -0.2997  0.3896 -0.0679
    8MOL   H118 1532   2.529   1.705   1.143  0.7704  3.1018  2.4955
    8MOL   H119 1533   2.464   1.536   0.844  0.9530  0.3624 -0.6916
    8MOL   H120 1534   2.529   1.488   1.002  1.2728  1.9215  1.7581
    8MOL   H121 1535   2.394   1.610   0.988 -0.8143 -2.1726  0.2177
    8MOL   C122 1536   2.739   1.700   1.121 -0.3107  0.3922 -0.3174
    8MOL   C123 1537   2.774   1.738   1.267 -1.0884  0.0036 -0.6297
    8MOL   O124 1538   2.779   1.618   1.341 -0.2778  0.1606 -0.2971
    8MOL   C125 1539   2.663   1.587   1.422  0.2979 -0.3306 -0.0153
    8MOL   H126 1540   2.819   1.720   1.051 -0.0395  1.4595  0.2978
    8MOL   H127 1541   2.733   1.591   1.119 -1.4298  0.3626  2.8213
    8MOL   H128 1542   2.698   1.806   1.305 -1.2104  0.5991 -1.9167
    8MOL   H129 1543   2.680   1.617   1.525 -0.9101 -0.5912  0.2698
    8MOL   H130 1544   2.571   1.629   1.382 -0.1107 -1.5228 -0.3467
    8MOL   H131 1545   2.650   1.479   1.428 -0.8975 -0.2464 -0.9062
    8MOL   C132 1546   2.921   1.793   1.275  0.3194 -0.3674 -0.4797
    8MOL   C133 1547   2.950   1.938   1.236 -0.0030  0.1834 -0.1413
    8MOL   O134 1548   2.867   2.013   1.320 -0.5926 -0.0053 -0.1125
    8MOL   C135 1549   2.819   2.137   1.280 -0.0972 -0.4423  0.5327
    8MOL   H136 1550   2.986   1.728   1.217 -0.6230 -3.8615  2.1819
    8MOL   H137 1551   2.950   1.780   1.380 -0.9328 -0.6926 -0.1696
    8MOL   H138 1552   2.913   1.942   1.133  2.2790  0.1222 -0.9961
    8MOL   H139 1553   2.729   2.159   1.337 -1.4409 -1.1281 -1.2716
    8MOL   H140 1554   2.905   2.201   1.299 -0.6407  0.7966 -1.0405
    8MOL   H141 1555   2.793   2.134   1.174  2.5013  0.9985 -0.1776
    8MOL   C142 1556   3.098   1.981   1.256 -0.6692  0.2434 -0.3534
    8MOL   C143 1557   3.191   1.932   1.143  0.4614  0.2466  1.0544
    8MOL   O144 1558   3.142   1.978   1.018  0.1043  0.0272  0.3113
    8MOL   C145 1559   3.122   1.869   0.931 -0.2684  0.5045 -0.0192
    8MOL   H146 1560   3.135   1.944   1.351  0.3401  1.1440 -0.3991
    8MOL   H147 1561   3.086   2.089   1.249 -0.7706  0.1867 -1.1460
    8MOL   H148 1562   3.202   1.824   1.146  0.9405  0.3071  1.7573
    8MOL   H149 1563   3.046   1.796   0.961  0.5974 -0.5974 -0.4551
    8MOL   H150 1564   3.080   1.922   0.845 -0.1865 -2.0252 -1.6952
    8MOL   H151 1565   3.216   1.823   0.902 -0.6712  1.5693 -3.3108
    8MOL   C152 1566   3.347   1.975   1.149 -0.2610 -0.3162  0.3822
    8MOL   C153 1567   3.433   1.919   1.265  0.7263  0.4296  0.2552
    8MOL   O154 1568   3.478   1.782   1.237 -0.1661  0.0741 -0.9739
    8MOL   C155 1569   3.375   1.684   1.237 -0.1757  0.2896 -0.3060
    8MOL   H156 1570   3.349   2.083   1.167 -2.0982 -0.3059  0.6827
    8MOL   H157 1571   3.385   1.947   1.051  0.3968 -0.6663  0.7378
    8MOL   H158 1572   3.369   1.928   1.353  0.3657 -2.0437  0.2852
    8MOL   H159 1573   3.324   1.673   1.142  0.6308  0.3887 -0.7536
    8MOL   H160 1574   3.402   1.581   1.260  0.0348  0.4513  0.1783
    8MOL   H161 1575   3.309   1.705   1.322 -0.3594 -1.3983 -0.0111
    8MOL   C162 1576   3.557   2.006   1.283 -0.6583 -0.2247 -0.2047
    8MOL   C163 1577   3.656   1.954   1.390 -0.0730 -0.8184 -0.3560
    8MOL   O164 1578   3.774   2.026   1.364 -0.5698 -0.1323 -0.5639
    8MOL   C165 1579   3.894   1.993   1.440 -0.2246 -0.3611  0.1254
    8MOL   H166 1580   3.529   2.108   1.309 -1.2071 -0.3962 -0.1157
    8MOL   H167 1581   3.615   2.004   1.191  0.8847 -1.5541  0.7539
    8MOL   H168 1582   3.675   1.849   1.370 -0.5942 -0.8530 -0.6740
    8MOL   H169 1583   3.911   1.886   1.435 -1.5448 -0.7340  2.5788
    8MOL   H170 1584   3.982   2.044   1.399 -0.1749 -1.2848 -0.9262
    8MOL   H171 1585   3.888   2.012   1.548  1.6456  1.5096 -0.0687
    8MOL   C172 1586   3.619   1.997   1.538  0.7541  0.3942  0.1491
    8MOL   C173 1587   3.543   1.885   1.604  0.0501  0.3055  0.4114
    8MOL   O174 1588   3.639   1.806   1.673  0.1493 -0.1310 -0.3074
    8MOL   C175 1589   3.644   1.678   1.628  0.8042  0.0163  0.3908
    8MOL   H176 1590   3.558   2.088   1.539 -0.1905 -0.2407  0.6701
    8MOL   H177 1591   3.701   2.036   1.599 -1.4639  3.2599  1.4448
    8MOL   H178 1592   3.494   1.820   1.531  2.3413 -1.6654  0.5531
    8MOL   H179 1593   3.696   1.673   1.532 -1.0224  1.3046 -0.6944
    8MOL   H180 1594   3.691   1.606   1.696  2.6317  0.5297 -0.2980
    8MOL   H181 1595   3.545   1.640   1.606  0.9995 -0.2566 -0.0243
    8MOL   C182 1596   3.429   1.928   1.696  0.0718 -0.4632 -0.4916
    8MOL   C183 1597   3.298   1.967   1.628  0.1719  0.1882 -0.2023
    8MOL   O184 1598   3.231   1.855   1.558 -0.9501 -0.0920  0.1826
    8MOL   C185 1599   3.188   1.750   1.637  0.2496  0.0623  0.0107
    8MOL   H186 1600   3.466   2.013   1.754  0.0452 -1.4428  0.9803
    8MOL   H187 1601   3.410   1.842   1.759 -0.4041  1.9476  2.8186
    8MOL   H188 1602   3.324   2.035   1.547 -0.0402 -0.7290 -1.0392
    8MOL   H189 1603   3.137   1.682   1.570  2.9221 -0.8730 -1.1748
    8MOL   H190 1604   3.274   1.699   1.681 -0.9631 -2.0293  0.0231
    8MOL   H191 1605   3.112   1.783   1.707  2.1001  1.4886  1.4129
    8MOL   C192 1606   3.191   2.027   1.717 -0.0085 -0.3785 -0.0477
    8MOL   C193 1607   3.055   2.055   1.652  0.2743 -0.2364  0.4868
    8MOL   O194 1608   2.967   2.098   1.759 -0.5897  0.2049  0.4057
    8MOL   C195 1609   2.969   2.237   1.780  0.1646 -0.0040  0.4510
    8MOL   H196 1610   3.241   2.114   1.759  0.3670 -0.9116  0.6278
    8MOL   H197 1611   3.171   1.971   1.809 -1.6388  0.4261  0.1217
    8MOL   H198 1612   3.016   1.966   1.603  3.2099 -1.2747 -0.1093
    8MOL   H199 1613   3.068   2.268   1.815  1.2098  0.3869 -2.6986
    8MOL   H200 1614   2.945   2.299   1.693 -0.7511  0.6590  1.1625
    8MOL   H201 1615   2.903   2.263   1.863 -0.0894  0.9781 -0.0480
    8MOL   H202 1616   3.051   2.125   1.569 -0.7801  0.7699  1.3775
    9MOL     C1 1617   7.682   3.961   6.930  0.7908  0.5388  0.8654
    9MOL     C2 1618   7.750   4.061   6.844  0.2932 -0.1876  0.0542
    9MOL     O3 1619   7.679   4.183   6.837  0.5423 -0.2122  0.5888
    9MOL     C4 1620   7.704   4.263   6.719 -0.3813 -0.1595  0.0598
    9MOL     H5 1621   7.641   4.005   7.022  2.2471  0.7294  1.4447
    9MOL     H6 1622   7.601   3.926   6.866  3.1083 -1.5111 -1.0202
    9MOL     H7 1623   7.768   4.019   6.745 -1.5312  2.5390 -1.5230
    9MOL     H8 1624   7.642   4.352   6.718 -0.2279 -0.0490  0.5202
    9MOL     H9 1625   7.805   4.302   6.717  0.5540 -2.1863  3.3739
    9MOL    H10 1626   7.676   4.216   6.624 -0.0026  1.6969 -0.9840
    9MOL    H11 1627   7.738   3.873   6.961  2.4087  0.4771 -2.0310
    9MOL    C12 1628   0.080   4.095   6.901 -0.2412 -0.6645 -0.2980
    9MOL    C13 1629   0.193   3.997   6.886 -0.0873 -0.1545 -0.2320
    9MOL    O14 1630   0.158   3.869   6.939 -0.8354 -0.0947  0.3620
    9MOL    C15 1631   0.211   3.864   7.073  0.1673  0.0378 -0.2116
    9MOL    H16 1632   0.074   4.137   7.002 -2.9000  2.4985 -1.6557
    9MOL    H17 1633   0.119   4.179   6.844 -1.2865 -2.0809 -3.2139
    9MOL    H18 1634   0.273   4.040   6.947 -2.1074  1.2905  1.4870
    9MOL    H19 1635   0.185   3.955   7.128  1.5131 -0.5960  1.5180
    9MOL    H20 1636   0.179   3.771   7.118 -1.7143  0.9287  0.3266
    9MOL    H21 1637   0.320   3.855   7.074  0.2403  0.7858 -0.6503
    9MOL    C22 1638   0.243   3.968   6.745 -0.1577  0.2385 -0.0797
    9MOL    C23 1639   0.286   4.091   6.654  0.2828 -0.4005  0.1389
    9MOL    O24 1640   0.390   4.156   6.726 -0.0010  0.0155 -0.2693
    9MOL    C25 1641   0.366   4.284   6.775 -0.1957 -0.7784 -0.1719
    9MOL    H26 1642   0.181   3.891   6.698  0.4717  0.4945 -1.3603
    9MOL    H27 1643   0.331   3.903   6.751 -0.6267 -0.6615 -2.1717
    9MOL    H28 1644   0.197   4.154   6.650 -0.4985 -1.5967 -1.5184
    9MOL    H29 1645   0.456   4.345   6.784 -1.9263  1.6802  0.9382
    9MOL    H30 1646   0.299   4.339   6.709  0.9158 -0.4773 -1.0690
    9MOL    H31 1647   0.326   4.286   6.877  0.0988 -1.8471 -0.0264
    9MOL    C32 1648   0.345   4.073   6.513  0.5384 -0.4177  0.8080
    9MOL    C33 1649   0.235   4.055   6.404 -0.3151  0.2376 -0.0088
    9MOL    O34 1650   0.142   4.161   6.407  0.2707 -0.6757  0.7556
    9MOL    C35 1651   0.009   4.136   6.368  0.4614 -0.4516 -0.4200
    9MOL    H36 1652   0.421   3.996   6.508  2.5372  1.5637 -0.2916
    9MOL    H37 1653   0.397   4.163   6.477  1.0198 -1.1574 -0.3784
    9MOL    H38 1654   0.178   3.967   6.436 -1.3530  1.1599  0.7038
    9MOL    H39 1655   0.007   4.089   6.270  2.5955  0.6803 -1.0428
    9MOL    H40 1656   7.765   4.069   6.435  0.6094 -1.3679 -1.2164
    9MOL    H41 1657   7.769   4.232   6.375  3.8918  1.3535  1.0807
    9MOL    C42 1658   0.301   4.029   6.268  0.5059 -0.4666 -0.3119
    9MOL    C43 1659   0.365   3.889   6.242  0.5522  0.2503 -0.0222
    9MOL    O44 1660   0.263   3.790   6.274 -0.0647  0.1430 -0.2572
    9MOL    C45 1661   0.305   3.672   6.341  0.7110 -0.3213  0.1373
    9MOL    H46 1662   0.365   4.110   6.232 -1.2072  1.2295  0.3038
    9MOL    H47 1663   0.221   4.034   6.194  1.1071 -0.4288 -0.9587
    9MOL    H48 1664   0.444   3.877   6.315  1.4783  0.6277 -0.9455
    9MOL    H49 1665   0.338   3.701   6.441 -1.6685 -0.3303  0.9581
    9MOL    H50 1666   0.220   3.604   6.341  0.3035  0.1905 -0.1259
    9MOL    H51 1667   0.388   3.620   6.293  1.6984 -0.2604  1.7451
    9MOL    C52 1668   0.419   3.875   6.104 -0.1797 -0.4683  0.3510
    9MOL    C53 1669   0.551   3.961   6.075  0.1547 -0.0025 -0.5973
    9MOL    O54 1670   0.651   3.927   6.169  0.6863  0.1168  0.9042
    9MOL    C55 1671   0.736   4.028   6.216 -0.7353 -0.0246 -0.5568
    9MOL    H56 1672   0.342   3.889   6.029 -1.2477 -0.0848  1.5084
    9MOL    H57 1673   0.457   3.773   6.094  2.7779  0.3792  2.2907
    9MOL    H58 1674   0.527   4.067   6.083 -1.5615 -0.3609 -0.8949
    9MOL    H59 1675   0.792   3.987   6.299 -2.6679 -1.3116  0.1543
    9MOL    H60 1676   0.822   4.057   6.156  1.0919 -1.2574  1.4403
    9MOL    H61 1677   0.680   4.118   6.241  2.2107  1.4616  0.8342
    9MOL    C62 1678   0.612   3.941   5.933  0.1049  0.3582  0.1346
    9MOL    C63 1679   0.544   4.021   5.821  0.3371 -0.3921 -0.3450
    9MOL    O64 1680   0.520   4.155   5.856 -0.0194 -0.5799  0.4547
    9MOL    C65 1681   0.635   4.235   5.880  0.1814 -0.2010  0.2987
    9MOL    H66 1682   0.614   3.836   5.906  2.2619  0.4239 -0.0908
    9MOL    H67 1683   0.720   3.954   5.944  0.6599 -3.3668 -0.4343
    9MOL    H68 1684   0.445   3.978   5.807 -0.7214  1.7284  0.4122
    9MOL    H69 1685   0.701   4.250   5.794  0.7415  1.5694  1.0243
    9MOL    H70 1686   0.589   4.332   5.899 -1.7708 -1.0201 -0.1058
    9MOL    H71 1687   0.698   4.213   5.966  0.3430  1.3847  0.5875
    9MOL    C72 1688   0.615   4.015   5.685 -0.5087 -0.3947 -0.4349
    9MOL    C73 1689   0.526   4.072   5.564  0.7668 -0.1166 -0.3137
    9MOL    O74 1690   0.527   4.216   5.577 -0.4883  0.5521 -0.1136
    9MOL    C75 1691   0.396   4.275   5.570 -0.0488 -0.5857 -0.2670
    9MOL    H76 1692   0.635   3.909   5.668 -0.1339 -0.6682  1.6408
    9MOL    H77 1693   0.713   4.063   5.682 -0.7214 -0.0003 -1.7313
    9MOL    H78 1694   0.425   4.031   5.572  0.5345  0.6109  0.7077
    9MOL    H79 1695   0.321   4.213   5.620  0.4984  0.9521  2.5772
    9MOL    H80 1696   0.387   4.378   5.604 -0.2966 -0.8141  0.3795
    9MOL    H81 1697   0.353   4.263   5.471  0.4063  0.1854 -0.5631
    9MOL    C82 1698   0.582   4.049   5.427  0.5114 -0.1615 -0.4910
    9MOL    C83 1699   0.597   3.897   5.383 -0.1098 -0.3901  0.3264
    9MOL    O84 1700   0.460   3.856   5.369 -0.0485  0.7534  0.1354
    9MOL    C85 1701   0.376   3.909   5.268 -0.5258  0.7965 -0.3883
    9MOL    H86 1702   0.684   4.085   5.434  0.4971  0.0434 -1.3047
    9MOL    H87 1703   0.521   4.112   5.363  0.5390  0.7379  0.3540
    9MOL    H88 1704   0.630   3.832   5.464 -2.8898  0.4774  2.2183
    9MOL    H89 1705   0.331   4.006   5.288  1.8825  1.8362  0.2423
    9MOL    H90 1706   0.426   3.922   5.172 -1.3794 -0.4857 -1.0277
    9MOL    H91 1707   0.311   3.825   5.245 -1.2221  2.2702 -4.0837
    9MOL    C92 1708   0.689   3.883   5.250  0.3937  0.0023 -0.1763
    9MOL    C93 1709   0.677   3.742   5.181 -0.2468  0.2627  0.2957
    9MOL    O94 1710   0.765   3.739   5.059  0.4487  0.1001  0.4470
    9MOL    C95 1711   0.708   3.802   4.949 -0.2965  0.2937 -0.4676
    9MOL    H96 1712   0.789   3.917   5.274  0.6284  0.6589 -2.0081
    9MOL    H97 1713   0.648   3.961   5.185 -2.8300 -0.7821  0.7975
    9MOL    H98 1714   0.571   3.724   5.165 -0.8125  2.6997  1.1334
    9MOL    H99 1715   0.652   3.892   4.976  2.1052  1.2800  1.5987
    9MOL   H100 1716   0.787   3.812   4.874 -1.5703  1.3430 -1.6856
    9MOL   H101 1717   0.641   3.734   4.898  1.4761 -2.3589  0.6515
    9MOL   C102 1718   0.726   3.634   5.276 -0.5887 -0.0467  0.0936
    9MOL   C103 1719   0.705   3.486   5.224 -0.7266  0.3028 -0.3878
    9MOL   O104 1720   0.805   3.419   5.295 -0.1183  0.7485  0.4567
    9MOL   C105 1721   0.827   3.280   5.255  0.7549  0.6624 -0.1805
    9MOL   H106 1722   0.675   3.648   5.371 -1.3588 -1.0499 -0.1644
    9MOL   H107 1723   0.830   3.653   5.301 -0.0605 -4.1015  1.3047
    9MOL   H108 1724   0.719   3.476   5.116 -3.2763 -0.9683 -0.6128
    9MOL   H109 1725   0.738   3.219   5.269  0.3508  1.7573  2.1932
    9MOL   H110 1726   0.870   3.269   5.155  0.1786  0.8746 -0.4531
    9MOL   H111 1727   0.896   3.232   5.324 -1.4719  1.1476  2.4543
    9MOL   C112 1728   0.562   3.433   5.270  0.2780  0.4520 -0.7499
    9MOL   C113 1729   0.491   3.336   5.177  0.2608  0.2485  0.2904
    9MOL   O114 1730   0.403   3.260   5.266  0.4347  0.5102  0.2554
    9MOL   C115 1731   0.457   3.145   5.327  0.5855  0.0175  0.4911
    9MOL   H116 1732   0.488   3.513   5.274 -0.6131 -0.3116 -1.6207
    9MOL   H117 1733   0.574   3.385   5.367 -1.3965  2.0284  0.2771
    9MOL   H118 1734   0.551   3.272   5.113  1.8479  1.6485  0.3343
    9MOL   H119 1735   0.373   3.085   5.364 -0.8008  1.7970  0.3035
    9MOL   H120 1736   0.508   3.082   5.254 -0.3846  1.2889 -1.3234
    9MOL   H121 1737   0.530   3.174   5.403 -0.8997  2.5008  1.0248
    9MOL   C122 1738   0.398   3.412   5.079  0.4569 -0.2958 -0.3803
    9MOL   C123 1739   0.310   3.320   4.990 -0.8057  0.7441 -0.8140
    9MOL   O124 1740   0.201   3.399   4.940 -0.1669 -0.2793 -0.3933
    9MOL   C125 1741   0.076   3.380   5.006 -0.2860  0.5451  0.1462
    9MOL   H126 1742   0.442   3.491   5.019 -0.8910  0.1074 -0.8539
    9MOL   H127 1743   0.326   3.463   5.143 -0.0164 -1.0756 -0.2804
    9MOL   H128 1744   0.275   3.240   5.055  2.8682 -0.9217 -0.7486
    9MOL   H129 1745   0.001   3.437   4.951 -3.6889 -1.6707  2.2245
    9MOL   H130 1746   0.064   3.272   4.992 -0.3656  0.6844 -0.8632
    9MOL   H131 1747   0.087   3.411   5.110 -1.0130  0.4076  0.2668
    9MOL   C132 1748   0.388   3.262   4.877  0.6812 -0.2240 -0.6839
    9MOL   C133 1749   0.310   3.160   4.794  0.4881  0.0007 -0.9360
    9MOL   O134 1750   0.403   3.101   4.711  0.0348  0.5401  0.1726
    9MOL   C135 1751   0.409   3.168   4.584  0.6145  0.1201  0.0790
    9MOL   H136 1752   0.481   3.215   4.908  0.6674  1.2996  1.8521
    9MOL   H137 1753   0.422   3.345   4.814  1.4727 -0.8204 -1.0517
    9MOL   H138 1754   0.234   3.211   4.737  0.1265  1.5365  0.8704
    9MOL   H139 1755   0.468   3.109   4.514 -1.9331 -3.4595  0.8195
    9MOL   H140 1756   0.322   3.200   4.527  1.0287  0.5794 -0.3056
    9MOL   H141 1757   0.477   3.254   4.587 -0.7211  1.1409  1.8169
    9MOL   C142 1758   0.248   3.052   4.885  0.1195  0.1081 -0.1924
    9MOL   C143 1759   0.204   2.923   4.805 -0.0778  0.0135  0.2708
    9MOL   O144 1760   0.142   2.831   4.894  0.5724  0.3663 -0.3693
    9MOL   C145 1761   0.233   2.754   4.966  0.0150 -0.9635  0.0016
    9MOL   H146 1762   0.164   3.092   4.942  1.3236  1.0425  0.9309
    9MOL   H147 1763   0.326   3.034   4.958  0.3676  0.2688 -0.4164
    9MOL   H148 1764   0.295   2.891   4.756 -0.7225  1.0494 -1.6353
    9MOL   H149 1765   0.311   2.817   5.008  0.8789 -2.1356  0.1978
    9MOL   H150 1766   0.179   2.707   5.049 -1.5121  0.6740 -0.0386
    9MOL   H151 1767   0.274   2.672   4.908 -0.6160 -0.7256 -0.7879
    9MOL   C152 1768   0.090   2.945   4.700  0.1808 -0.6184 -0.0029
    9MOL   C153 1769   0.068   2.822   4.616  0.3832 -0.2708  0.1550
    9MOL   O154 1770   7.758   2.844   4.542  0.2404 -0.0427  0.0831
    9MOL   C155 1771   7.676   2.734   4.528  0.2533 -0.3808  0.0443
    9MOL   H156 1772   0.114   3.021   4.626 -1.6349  1.1859  1.2137
    9MOL   H157 1773   7.807   2.957   4.755  1.5541 -0.7722  2.4368
    9MOL   H158 1774   0.061   2.736   4.683 -3.4531 -0.4153 -0.3249
    9MOL   H159 1775   7.595   2.760   4.460  0.0480  1.2463  0.8936
    9MOL   H160 1776   7.729   2.647   4.490 -2.1449 -1.7662 -0.2421
    9MOL   H161 1777   7.630   2.697   4.620 -4.3193 -1.6221 -2.5584
    9MOL   C162 1778   0.182   2.806   4.507  0.3062 -0.2326 -0.2332
    9MOL   C163 1779   0.215   2.659   4.481  0.3620 -0.5833 -1.2939
    9MOL   O164 1780   0.268   2.645   4.350 -0.5806  0.0466  0.9664
    9MOL   C165 1781   0.184   2.587   4.255  0.0813 -0.2278  0.4497
    9MOL   H166 1782   0.273   2.862   4.529 -1.1174  2.2885 -0.5153
    9MOL   H167 1783   0.148   2.855   4.416  0.5218  0.2253 -0.0696
    9MOL   H168 1784   0.121   2.606   4.495 -0.0388  0.9182  2.3531
    9MOL   H169 1785   0.231   2.579   4.157  1.1945 -1.5047  1.0708
    9MOL   H170 1786   0.147   2.487   4.279  2.4428 -0.9163  1.2975
    9MOL   H171 1787   0.109   2.665   4.240  0.3479 -0.0586 -0.0473
    9MOL   C172 1788   0.324   2.599   4.576  0.2407  0.5819  0.1418
    9MOL   C173 1789   0.322   2.439   4.568 -0.1315  0.1707 -0.1741
    9MOL   O174 1790   0.416   2.381   4.655  0.0859  0.4136 -0.2761
    9MOL   C175 1791   0.545   2.354   4.598 -0.5625  0.0430  0.0368
    9MOL   H176 1792   0.300   2.631   4.678 -2.4420  1.4972 -0.7404
    9MOL   H177 1793   0.417   2.654   4.564 -0.2183  0.9775 -1.7014
    9MOL   H178 1794   0.346   2.403   4.468  1.5554 -0.7112  0.5276
    9MOL   H179 1795   0.547   2.267   4.533 -1.6571 -0.1469  0.2419
    9MOL   H180 1796   0.581   2.447   4.553 -1.0688 -0.0060 -0.4602
    9MOL   H181 1797   0.619   2.346   4.679 -0.0406  4.7368  0.1923
    9MOL   C182 1798   0.190   2.364   4.601  0.3192 -0.1842 -0.2030
    9MOL   C183 1799   0.128   2.396   4.745 -0.2249 -0.1113 -0.0368
    9MOL   O184 1800   7.807   2.452   4.724 -0.3274  0.2155 -0.7339
    9MOL   C185 1801   7.759   2.532   4.828  0.2434 -0.5458  0.2727
    9MOL   H186 1802   0.209   2.257   4.589  1.5568 -0.2534  2.2558
    9MOL   H187 1803   0.114   2.390   4.527  0.0454 -0.4073 -0.0017
    9MOL   H188 1804   0.194   2.471   4.789  1.5546 -1.7316  0.0776
    9MOL   H189 1805   0.014   2.613   4.859  0.3380 -0.7220  0.5365
    9MOL   H190 1806   7.667   2.574   4.787 -0.3253  1.0476  3.0721
    9MOL   H191 1807   7.741   2.481   4.922 -2.6318  1.2897  0.7981
    9MOL   C192 1808   0.118   2.260   4.824 -0.1694  0.0281 -0.2329
    9MOL   C193 1809   0.262   2.213   4.857 -0.1956  0.4483 -0.2677
    9MOL   O194 1810   0.270   2.112   4.963 -0.1272  0.2469 -0.7246
    9MOL   C195 1811   0.215   1.984   4.922 -0.6396 -0.1022  0.6446
    9MOL   H196 1812   0.064   2.182   4.770  3.3892 -3.0352  0.3846
    9MOL   H197 1813   0.067   2.270   4.920  1.7603  0.5129  0.7638
    9MOL   H198 1814   0.327   2.293   4.891 -1.7429  0.8813  1.8337
    9MOL   H199 1815   0.106   1.985   4.926 -0.6823 -0.5274 -0.1656
    9MOL   H200 1816   0.241   1.972   4.816  1.5732  1.6741  0.9485
    9MOL   H201 1817   0.252   1.894   4.971 -0.6640  0.1018  1.0388
    9MOL   H202 1818   0.295   2.167   4.764  1.0549  0.2050  0.2817
   10MOL     C1 1819   0.202   4.696   2.616 -0.2070 -0.0182  0.2722
   10MOL     C2 1820   0.219   4.835   2.558  0.0288 -0.6388  0.2927
   10MOL     O3 1821   0.347   4.840   2.501 -0.0775 -0.0212  0.3551
   10MOL     C4 1822   0.443   4.936   2.548 -0.0080 -0.1454 -0.2041
   10MOL     H5 1823   0.112   4.696   2.677 -0.4801 -0.3957 -0.1339
   10MOL     H6 1824   0.192   4.618   2.541 -0.6790  2.1614 -2.0114
   10MOL     H7 1825   0.209   4.917   2.629  2.5972  0.2967 -0.3736
   10MOL     H8 1826   0.456   4.931   2.657  0.0978 -1.8303 -0.2893
   10MOL     H9 1827   0.537   4.895   2.511  1.9023  3.6653  0.1987
   10MOL    H10 1828   0.422   5.034   2.505  0.5564 -0.7976 -2.0129
   10MOL    H11 1829   0.283   4.655   2.677 -0.0603 -0.9004 -0.5169
   10MOL    C12 1830   0.112   4.858   2.445  0.1794 -0.4527  0.3434
   10MOL    C13 1831   0.133   4.978   2.350  0.1012  0.5004 -0.7986
   10MOL    O14 1832   0.176   4.940   2.222  0.1583 -0.1090  0.0070
   10MOL    C15 1833   0.316   4.927   2.209 -0.1759 -0.8277  0.2657
   10MOL    H16 1834   0.017   4.876   2.496 -0.5772  0.8967 -1.4950
   10MOL    H17 1835   0.118   4.771   2.380 -0.6204 -0.3089  0.0685
   10MOL    H18 1836   0.202   5.047   2.400  0.1583 -0.0929 -0.0493
   10MOL    H19 1837   0.364   4.981   2.292 -2.6565  0.3815  0.9428
   10MOL    H20 1838   0.335   4.820   2.220 -2.6441 -1.2656  0.3552
   10MOL    H21 1839   0.347   4.961   2.110 -4.3633  1.3208 -0.3908
   10MOL    C22 1840   0.004   5.055   2.312  0.7754  0.1656  0.3292
   10MOL    C23 1841   0.033   5.192   2.263 -1.6341  0.9770 -0.5745
   10MOL    O24 1842   7.721   5.233   2.216  0.3491  0.3687  0.1624
   10MOL    C25 1843   7.696   5.212   2.075 -0.5727  0.2123 -0.1600
   10MOL    H26 1844   7.758   5.066   2.405  0.0294  2.3027 -0.3455
   10MOL    H27 1845   7.741   5.004   2.250  0.1165 -0.3323  1.5003
   10MOL    H28 1846   0.115   5.189   2.191 -2.4261  1.1291 -1.4861
   10MOL    H29 1847   7.618   5.282   2.048 -2.2661 -1.5476  0.0330
   10MOL    H30 1848   7.786   5.240   2.021  0.4045  2.2052  2.4352
   10MOL    H31 1849   7.658   5.111   2.058  2.9217 -1.1172 -0.5540
   10MOL    C32 1850   0.062   5.288   2.380  0.5434 -0.3824  0.2478
   10MOL    C33 1851   0.107   5.425   2.335 -0.0249  0.5110  0.3702
   10MOL    O34 1852   0.130   5.504   2.453 -0.1344 -0.4372  0.0438
   10MOL    C35 1853   0.015   5.531   2.533  0.4369 -0.5620 -0.6279
   10MOL    H36 1854   0.120   5.239   2.458  0.4945 -2.3294 -0.9256
   10MOL    H37 1855   7.783   5.297   2.441  0.6944  1.8540  0.1934
   10MOL    H38 1856   0.030   5.469   2.273 -0.3902  1.1639  1.2814
   10MOL    H39 1857   7.735   5.553   2.477  0.0625 -2.6291 -0.8764
   10MOL    H40 1858   7.797   5.441   2.588 -2.7618 -0.3975 -1.9241
   10MOL    H41 1859   0.033   5.603   2.612 -1.4906 -0.3356 -0.3802
   10MOL    C42 1860   0.243   5.414   2.265 -0.0788  0.5843 -0.0301
   10MOL    C43 1861   0.322   5.545   2.249  0.5508 -0.1377  0.1613
   10MOL    O44 1862   0.456   5.521   2.200  0.3199 -0.0018 -0.2656
   10MOL    C45 1863   0.546   5.480   2.305  0.0707 -0.4073 -0.0944
   10MOL    H46 1864   0.234   5.376   2.163  1.7444 -0.3782  0.1489
   10MOL    H47 1865   0.304   5.341   2.318 -0.5996 -0.2829 -0.6024
   10MOL    H48 1866   0.329   5.595   2.346  2.8063 -0.2341  0.0793
   10MOL    H49 1867   0.543   5.553   2.386 -0.0604 -1.0290  0.4649
   10MOL    H50 1868   0.518   5.381   2.342  0.3017 -0.0116  1.1523
   10MOL    H51 1869   0.646   5.486   2.262  0.5241 -0.9194  0.8654
   10MOL    C52 1870   0.278   5.641   2.139  0.3980 -0.3046  0.2681
   10MOL    C53 1871   0.336   5.783   2.153  0.5611  0.2082  0.1596
   10MOL    O54 1872   0.337   5.851   2.032 -0.0486  0.0287 -0.1630
   10MOL    C55 1873   0.449   5.843   1.944 -0.3771  0.3479  1.0741
   10MOL    H56 1874   0.170   5.656   2.137  0.2775 -0.8948  1.4247
   10MOL    H57 1875   0.301   5.589   2.046  0.8722  0.0577  0.1867
   10MOL    H58 1876   0.432   5.772   2.205  1.7055  1.1171 -1.7068
   10MOL    H59 1877   0.482   5.741   1.928  2.1349  1.2716  0.0475
   10MOL    H60 1878   0.414   5.875   1.846  1.6748  2.3887  0.9539
   10MOL    H61 1879   0.535   5.905   1.971  0.3288 -0.3526  0.4393
   10MOL    C62 1880   0.244   5.866   2.252  0.4051  0.4268 -0.3946
   10MOL    C63 1881   0.310   5.995   2.297  0.3370  0.3494  0.1077
   10MOL    O64 1882   0.218   6.085   2.350  0.0355 -1.0567 -0.3087
   10MOL    C65 1883   0.143   6.177   2.267  0.3847 -0.2389  0.2550
   10MOL    H66 1884   0.216   5.805   2.337 -0.3212 -0.6726 -1.4182
   10MOL    H67 1885   0.155   5.885   2.192  1.2229  0.4002 -1.6474
   10MOL    H68 1886   0.340   6.042   2.203 -0.5405  1.7147  0.4953
   10MOL    H69 1887   0.208   6.239   2.206 -0.3806  0.6023  0.2892
   10MOL    H70 1888   0.080   6.107   2.211  0.1830 -1.2522  1.7177
   10MOL    H71 1889   0.083   6.237   2.335 -0.3263 -2.8059  1.9508
   10MOL    C72 1890   0.424   5.992   2.397 -0.2908  0.3193  0.2699
   10MOL    C73 1891   0.494   6.127   2.426 -0.0574  0.0099 -0.9394
   10MOL    O74 1892   0.600   6.112   2.510 -0.4447  0.0481  0.2514
   10MOL    C75 1893   0.577   6.050   2.633 -0.0330 -0.3379  0.1465
   10MOL    H76 1894   0.510   5.929   2.372  2.3530  3.5234  0.7836
   10MOL    H77 1895   0.376   5.949   2.484  0.3513 -2.0475 -0.5072
   10MOL    H78 1896   0.421   6.186   2.483  0.2531  0.6130 -1.1598
   10MOL    H79 1897   0.653   6.065   2.709  0.1987  0.1543 -0.1801
   10MOL    H80 1898   0.483   6.083   2.679 -1.0268 -1.2051 -1.2191
   10MOL    H81 1899   0.579   5.944   2.605  2.8295 -0.2665 -0.0161
   10MOL    C82 1900   0.541   6.221   2.312 -0.4354  1.0696 -0.8834
   10MOL    C83 1901   0.622   6.153   2.204  0.1102 -0.5145 -0.5590
   10MOL    O84 1902   0.650   6.251   2.113  0.2547 -0.4785 -0.8953
   10MOL    C85 1903   0.556   6.271   2.005 -0.7221  0.3495  0.1873
   10MOL    H86 1904   0.599   6.305   2.351 -1.0803  1.1075 -0.0109
   10MOL    H87 1905   0.449   6.266   2.276 -1.8467 -0.1880  1.0878
   10MOL    H88 1906   0.560   6.069   2.173  0.3154 -1.0997  0.5945
   10MOL    H89 1907   0.456   6.285   2.045 -0.1122  2.2299  1.1014
   10MOL    H90 1908   0.592   6.353   1.943 -1.4262  0.2469 -0.3667
   10MOL    H91 1909   0.559   6.178   1.948 -0.9771  0.6927 -0.3971
   10MOL    C92 1910   0.761   6.104   2.248  0.3420 -0.2964 -0.4036
   10MOL    C93 1911   0.860   6.068   2.136 -0.6587  0.1836 -0.6338
   10MOL    O94 1912   0.786   5.985   2.047 -0.6348 -0.0819 -0.4690
   10MOL    C95 1913   0.837   5.857   2.040 -0.5459 -0.3864 -0.2904
   10MOL    H96 1914   0.737   6.012   2.303  1.7646 -0.6672 -0.3891
   10MOL    H97 1915   0.802   6.179   2.316 -2.0048 -0.4889  1.3398
   10MOL    H98 1916   0.934   6.015   2.196 -0.9279  0.6011  0.0838
   10MOL    H99 1917   0.843   5.814   2.140  1.1460 -1.2127 -0.7164
   10MOL   H100 1918   0.780   5.791   1.974 -1.0263 -1.5899  1.2982
   10MOL   H101 1919   0.937   5.854   1.998 -1.4958 -1.8087 -2.5530
   10MOL   C102 1920   0.936   6.196   2.064 -0.4802  0.4349  0.1701
   10MOL   C103 1921   1.078   6.155   2.013  0.0904 -0.3197 -0.3687
   10MOL   O104 1922   1.123   6.269   1.930  0.5649  0.1464 -0.7130
   10MOL   C105 1923   1.250   6.253   1.866  0.1456  0.3009 -0.4537
   10MOL   H106 1924   0.939   6.282   2.130 -1.1015 -0.2670  1.1419
   10MOL   H107 1925   0.873   6.229   1.982  1.4797 -0.5265 -1.7731
   10MOL   H108 1926   1.082   6.059   1.963 -0.1704 -1.8353  2.4160
   10MOL   H109 1927   1.262   6.344   1.806  1.0741  0.6083  0.1960
   10MOL   H110 1928   1.331   6.236   1.936 -0.0382  0.8357 -0.1019
   10MOL   H111 1929   1.247   6.165   1.802  1.3787 -0.6742  0.8249
   10MOL   C112 1930   1.181   6.132   2.130 -0.3518 -0.0827 -0.1320
   10MOL   C113 1931   1.292   6.026   2.107  0.1825 -0.0951 -0.5412
   10MOL   O114 1932   1.387   6.049   2.216 -0.5293 -0.1578 -0.2477
   10MOL   C115 1933   1.495   5.967   2.208  0.3613 -0.6458 -0.3706
   10MOL   H116 1934   1.134   6.098   2.223 -1.5008  1.1953 -0.2203
   10MOL   H117 1935   1.217   6.233   2.153  1.0804 -0.8016  0.8385
   10MOL   H118 1936   1.340   6.049   2.012 -0.5975  0.5123 -0.7892
   10MOL   H119 1937   1.526   5.941   2.107  0.6100 -0.0028 -0.4622
   10MOL   H120 1938   1.583   6.022   2.241 -0.6006 -0.3675  1.7850
   10MOL   H121 1939   1.501   5.876   2.267  0.4630 -0.5924 -0.2978
   10MOL   C122 1940   1.229   5.887   2.116  0.2640  0.3152  0.3558
   10MOL   C123 1941   1.296   5.796   2.007  0.2482  0.1913  0.1924
   10MOL   O124 1942   1.280   5.661   2.040 -0.1666 -0.1124  0.0631
   10MOL   C125 1943   1.394   5.611   2.094  0.2139  0.4382  0.1909
   10MOL   H126 1944   1.122   5.884   2.096  1.0664 -0.8467 -4.1070
   10MOL   H127 1945   1.240   5.839   2.214 -0.1532  1.7812  1.1335
   10MOL   H128 1946   1.404   5.812   2.005  0.1463  1.8523  3.8158
   10MOL   H129 1947   1.440   5.659   2.180  2.1851 -0.2470 -0.4420
   10MOL   H130 1948   1.391   5.508   2.129  0.2854 -0.1260 -1.4327
   10MOL   H131 1949   1.474   5.621   2.020  0.0115  1.0784  0.0547
   10MOL   C132 1950   1.247   5.815   1.864 -1.1421  0.1755  0.0059
   10MOL   C133 1951   1.318   5.749   1.741  0.3424  0.2623  0.8499
   10MOL   O134 1952   1.460   5.750   1.759  0.3389 -0.0394  0.4364
   10MOL   C135 1953   1.514   5.884   1.760 -0.3486  0.2911  0.1835
   10MOL   H136 1954   1.247   5.923   1.846 -1.1492  0.2916  0.7053
   10MOL   H137 1955   1.139   5.798   1.868 -1.3278  1.4651  0.9210
   10MOL   H138 1956   1.297   5.808   1.651  0.7340 -0.6817  0.1329
   10MOL   H139 1957   1.498   5.941   1.851 -1.2913  0.1205  0.1274
   10MOL   H140 1958   1.622   5.870   1.751 -0.3988 -0.6986  0.9920
   10MOL   H141 1959   1.487   5.945   1.674 -1.3634 -0.1304  0.1913
   10MOL   C142 1960   1.279   5.599   1.710 -0.2077 -0.0988 -0.1785
   10MOL   C143 1961   1.140   5.582   1.649 -0.0125 -0.2148 -0.2046
   10MOL   O144 1962   1.133   5.657   1.538  0.0838  0.1686 -0.0338
   10MOL   C145 1963   1.003   5.689   1.491  0.0666 -0.0378  0.7677
   10MOL   H146 1964   1.295   5.536   1.797  2.9513 -1.4491 -1.6694
   10MOL   H147 1965   1.355   5.578   1.634 -0.1816 -0.2063 -0.1224
   10MOL   H148 1966   1.063   5.630   1.711  0.5714 -0.7163  0.9127
   10MOL   H149 1967   0.942   5.736   1.569 -2.6274 -3.3690  0.7800
   10MOL   H150 1968   0.999   5.762   1.409  2.0012  0.7737  1.3527
   10MOL   H151 1969   0.944   5.600   1.473  2.3513 -1.8753  2.0960
   10MOL   C152 1970   1.121   5.434   1.610  0.9898 -0.4750  0.1404
   10MOL   C153 1971   1.059   5.357   1.724  0.2652 -0.4913 -0.1505
   10MOL   O154 1972   1.138   5.353   1.837 -0.3752 -0.3308  0.3031
   10MOL   C155 1973   1.240   5.251   1.836 -0.0581 -0.4962 -0.7903
   10MOL   H156 1974   1.215   5.406   1.564  0.3336 -1.5556 -0.5593
   10MOL   H157 1975   1.051   5.426   1.527  1.1133  1.8325 -0.2242
   10MOL   H158 1976   1.071   5.255   1.687  0.1493 -0.5617  0.0048
   10MOL   H159 1977   1.203   5.149   1.820 -0.3918 -0.6525  0.8884
   10MOL   H160 1978   1.323   5.257   1.766 -2.1818 -0.0977 -3.3524
   10MOL   H161 1979   1.306   5.256   1.922  1.8409  1.3446 -2.3292
   10MOL   C162 1980   0.914   5.386   1.754  0.1521  0.3430 -0.4000
   10MOL   C163 1981   0.858   5.290   1.858  0.9602  0.1584 -0.3009
   10MOL   O164 1982   0.727   5.326   1.879  0.1384  0.3107 -0.7816
   10MOL   C165 1983   0.688   5.384   2.003  0.0487  0.1977  0.9990
   10MOL   H166 1984   0.860   5.388   1.659  0.7296  0.4268 -0.7331
   10MOL   H167 1985   0.910   5.480   1.809 -1.8416 -1.1636  2.0708
   10MOL   H168 1986   0.919   5.298   1.948 -2.8034  2.8385  2.1364
   10MOL   H169 1987   0.721   5.488   2.015 -0.2987  0.8861 -3.1437
   10MOL   H170 1988   0.579   5.394   2.004 -0.0778 -1.1605  1.3058
   10MOL   H171 1989   0.711   5.327   2.093  1.4669 -1.5471 -0.4416
   10MOL   C172 1990   0.848   5.134   1.822 -0.1543  0.6384 -0.0302
   10MOL   C173 1991   0.787   5.044   1.935 -0.4631 -0.4662 -0.0657
   10MOL   O174 1992   0.709   4.942   1.869 -0.5416 -0.7494 -0.1981
   10MOL   C175 1993   0.580   4.982   1.838 -0.5837  0.5130  0.4398
   10MOL   H176 1994   0.950   5.102   1.804 -0.2388  1.4624 -2.1694
   10MOL   H177 1995   0.789   5.128   1.730  1.9441  2.3563 -1.5404
   10MOL   H178 1996   0.731   5.113   1.997  1.0430  1.7833 -1.1524
   10MOL   H179 1997   0.561   5.083   1.804  0.9417  0.4071 -0.7916
   10MOL   H180 1998   0.541   4.911   1.765  1.3967  0.3917 -0.5310
   10MOL   H181 1999   0.524   4.948   1.925 -0.5701 -0.6651  0.0096
   10MOL   C182 2000   0.885   4.971   2.024  0.4470  0.4855  0.2926
   10MOL   C183 2001   0.938   5.052   2.137  0.3903 -0.7133 -0.0904
   10MOL   O184 2002   0.894   5.009   2.264  0.1427 -0.3086  0.0376
   10MOL   C185 2003   0.770   5.064   2.296 -0.0711  0.7252 -0.3326
   10MOL   H186 2004   0.965   4.943   1.955  0.8180  1.1585  0.4468
   10MOL   H187 2005   0.844   4.882   2.071  0.5878  1.0433  1.4846
   10MOL   H188 2006   0.923   5.159   2.123  1.4120 -0.3191  1.7023
   10MOL   H189 2007   0.697   5.027   2.225 -0.1697 -1.0355  0.6506
   10MOL   H190 2008   0.744   5.028   2.396  1.7857  0.7708  0.1858
   10MOL   H191 2009   0.776   5.172   2.299 -2.0520  0.9469 -3.1366
   10MOL   C192 2010   1.087   5.032   2.142  1.0369  0.6114  0.5412
   10MOL   C193 2011   1.157   5.109   2.243 -1.4444  0.0081  0.1527
   10MOL   O194 2012   1.291   5.052   2.255 -0.1287  0.0451  0.2858
   10MOL   C195 2013   1.356   5.119   2.359 -0.5713 -0.1482 -0.0666
   10MOL   H196 2014   1.123   5.058   2.042  0.7819  1.5157  0.6771
   10MOL   H197 2015   1.099   4.927   2.169 -1.8462  0.2806  0.6885
   10MOL   H198 2016   1.115   5.094   2.343 -1.6736  0.3359  0.1087
   10MOL   H199 2017   1.299   5.107   2.451 -0.9045  1.9856  0.0278
   10MOL   H200 2018   1.456   5.077   2.367 -0.5995  0.0548  1.4317
   10MOL   H201 2019   1.363   5.227   2.349  0.0448 -0.3908 -2.6817
   10MOL   H202 2020   1.151   5.215   2.216  1.1768 -0.5474 -2.8099
   11MOL     C1 2021   7.366   4.578   0.793 -0.1746 -0.0593 -0.2304
   11MOL     C2 2022   7.479   4.511   0.868 -0.3947  0.3724 -0.1724
   11MOL     O3 2023   7.575   4.462   0.767 -0.2044  0.3006 -0.2176
   11MOL     C4 2024   7.550   4.328   0.735  0.5607  0.2109  0.3366
   11MOL     H5 2025   7.412   4.647   0.722  2.7386 -2.1312 -0.4321
   11MOL     H6 2026   7.305   4.506   0.738 -1.0778  0.9915 -0.6385
   11MOL     H7 2027   7.445   4.433   0.935  2.9794 -0.5424  0.5888
   11MOL     H8 2028   7.534   4.265   0.822  0.5848  0.1459  0.2932
   11MOL     H9 2029   7.464   4.325   0.668 -0.5718  1.8689  1.6566
   11MOL    H10 2030   7.640   4.307   0.677 -0.3324  1.2078 -1.4709
   11MOL    H11 2031   7.294   4.625   0.860 -1.0918 -0.4440 -0.9262
   11MOL    C12 2032   7.544   4.610   0.964  0.2550 -0.2423  0.5926
   11MOL    C13 2033   7.690   4.574   1.009  0.9850 -0.0420  0.1369
   11MOL    O14 2034   7.715   4.677   1.106 -0.0079 -0.2028  0.0994
   11MOL    C15 2035   0.019   4.751   1.091 -0.1239 -0.7039  0.0488
   11MOL    H16 2036   7.478   4.613   1.051  0.1626 -2.7819  0.6362
   11MOL    H17 2037   7.540   4.710   0.921 -0.3158  0.1707  1.5861
   11MOL    H18 2038   7.764   4.583   0.930  0.3420  0.5171 -0.3999
   11MOL    H19 2039   0.019   4.789   0.989  0.2897  0.8415  0.6066
   11MOL    H20 2040   0.025   4.835   1.161 -3.0695 -0.9987  0.7408
   11MOL    H21 2041   0.104   4.689   1.117  0.8975  1.1253  1.1779
   11MOL    C22 2042   7.696   4.430   1.064 -0.3825 -0.3608  0.3058
   11MOL    C23 2043   0.028   4.369   1.094  0.3735  0.0369  0.6291
   11MOL    O24 2044   7.805   4.228   1.118  0.2262 -0.0437  0.1673
   11MOL    C25 2045   7.774   4.194   1.250  0.5116 -0.5799  0.2995
   11MOL    H26 2046   7.656   4.360   0.991 -0.8170 -1.8691  1.9291
   11MOL    H27 2047   7.628   4.430   1.149 -0.8613  0.4004 -0.0796
   11MOL    H28 2048   0.072   4.412   1.184 -0.0635 -0.6853  1.2019
   11MOL    H29 2049   7.707   4.270   1.289 -2.2481 -1.6146 -2.2812
   11MOL    H30 2050   7.731   4.094   1.250  0.2637 -0.5073  2.5535
   11MOL    H31 2051   0.060   4.194   1.302  0.0508 -0.5575  1.1595
   11MOL    C32 2052   0.124   4.360   0.978  0.3341 -0.0261  0.5362
   11MOL    C33 2053   0.271   4.337   1.015 -0.4406  0.1171 -0.2630
   11MOL    O34 2054   0.319   4.440   1.105 -0.0092 -0.0928 -0.4385
   11MOL    C35 2055   0.353   4.559   1.049  0.2122 -0.2925  0.2339
   11MOL    H36 2056   0.121   4.453   0.921  1.6235  0.4339  1.1940
   11MOL    H37 2057   0.086   4.280   0.914 -0.0638  1.3515 -0.9862
   11MOL    H38 2058   0.314   4.353   0.916  0.5982  1.5480  0.4198
   11MOL    H39 2059   0.427   4.565   0.968 -0.3739 -0.9203 -0.3538
   11MOL    H40 2060   0.262   4.603   1.008 -0.3441 -1.8271 -0.2082
   11MOL    H41 2061   0.391   4.621   1.130 -0.5914 -1.0387  1.1920
   11MOL    C42 2062   0.310   4.205   1.078 -0.2739  0.9002 -1.3669
   11MOL    C43 2063   0.297   4.080   0.982  0.0317  0.1398  0.2828
   11MOL    O44 2064   0.368   4.104   0.858 -0.0277 -0.5428 -0.3756
   11MOL    C45 2065   0.315   4.060   0.735 -0.6730  0.2246 -0.2322
   11MOL    H46 2066   0.250   4.191   1.168  0.6513 -2.5729 -1.2149
   11MOL    H47 2067   0.413   4.210   1.115 -1.2622  2.4847  1.3742
   11MOL    H48 2068   0.190   4.078   0.963  0.3214 -0.3796 -1.4179
   11MOL    H49 2069   0.260   4.143   0.690  0.7214  1.5649  0.5041
   11MOL    H50 2070   0.402   4.026   0.678 -0.6041  1.3660 -0.8220
   11MOL    H51 2071   0.253   3.970   0.742  1.3029 -1.1106  0.4613
   11MOL    C52 2072   0.344   3.941   1.044 -0.2565 -0.3048  0.0764
   11MOL    C53 2073   0.273   3.888   1.169  0.4275  0.5308 -0.0363
   11MOL    O54 2074   0.284   3.988   1.272 -0.3887 -0.7180  1.1045
   11MOL    C55 2075   0.224   3.952   1.401  0.4090 -0.2163  0.4096
   11MOL    H56 2076   0.449   3.960   1.068 -0.8089  1.2997  1.3428
   11MOL    H57 2077   0.348   3.865   0.966  1.8003  0.8226 -0.9654
   11MOL    H58 2078   0.314   3.802   1.222 -0.0039  0.5899  0.3926
   11MOL    H59 2079   0.116   3.964   1.398  0.5501  1.0060 -2.9098
   11MOL    H60 2080   0.244   3.847   1.425  0.9976 -0.1131  0.3791
   11MOL    H61 2081   0.268   4.009   1.482  0.3741  1.5518 -0.7979
   11MOL    C62 2082   0.122   3.855   1.135  0.1209  0.1365 -0.0292
   11MOL    C63 2083   0.094   3.759   1.022 -0.0800 -0.0146  0.4987
   11MOL    O64 2084   0.182   3.644   1.047 -0.6784  0.2085  0.4730
   11MOL    C65 2085   0.174   3.548   0.944 -0.1567  0.2551  0.3438
   11MOL    H66 2086   0.061   3.944   1.119 -1.9572 -1.1235  0.6702
   11MOL    H67 2087   0.073   3.817   1.225  1.6315  0.0728  0.7726
   11MOL    H68 2088   0.134   3.806   0.932 -1.7473 -2.1501 -1.3994
   11MOL    H69 2089   0.162   3.600   0.848 -2.9086  0.0836  0.5672
   11MOL    H70 2090   0.267   3.491   0.948  1.3332  2.6650  1.6574
   11MOL    H71 2091   0.087   3.483   0.941 -0.2038  0.2777  1.2493
   11MOL    C72 2092   7.752   3.723   1.011  0.4655 -0.1743 -0.4776
   11MOL    C73 2093   7.661   3.840   0.970  0.3193 -0.1384  0.3403
   11MOL    O74 2094   7.730   3.891   0.854 -0.0567  0.1718 -0.4152
   11MOL    C75 2095   7.712   4.035   0.840  0.5934  0.7643  0.3336
   11MOL    H76 2096   7.712   3.687   1.107  1.6416 -1.6799 -0.5369
   11MOL    H77 2097   7.747   3.645   0.935 -1.7943  0.4891 -1.0687
   11MOL    H78 2098   7.653   3.921   1.043 -2.8156  1.1433 -1.3362
   11MOL    H79 2099   7.791   4.072   0.775  0.9196 -2.2111 -1.0899
   11MOL    H80 2100   7.614   4.059   0.798 -0.3893 -0.7324  1.7309
   11MOL    H81 2101   7.718   4.093   0.931 -1.1079 -0.8566  1.5220
   11MOL    C82 2102   7.509   3.796   0.945 -1.0781  0.7506 -0.4611
   11MOL    C83 2103   7.394   3.896   0.958  0.7396  0.7448 -0.8180
   11MOL    O84 2104   7.311   3.873   0.849  0.5834 -0.0055  0.2188
   11MOL    C85 2105   7.248   3.992   0.798  0.5095  0.0901  0.7284
   11MOL    H86 2106   7.499   3.717   1.019  1.4276  0.8679  0.0414
   11MOL    H87 2107   7.507   3.741   0.851  1.4798 -0.5103  0.1722
   11MOL    H88 2108   7.446   3.991   0.950  0.9765  0.7473  0.6140
   11MOL    H89 2109   7.207   3.958   0.703  0.6754  1.3890  0.1793
   11MOL    H90 2110   7.167   4.044   0.851 -0.1218 -0.6394  0.4945
   11MOL    H91 2111   7.317   4.071   0.770  0.7934 -0.0752  0.9576
   11MOL    C92 2112   7.313   3.888   1.091  0.2853  0.0729 -0.5822
   11MOL    C93 2113   7.359   3.991   1.194 -0.3150 -0.1516  0.7718
   11MOL    O94 2114   7.327   4.125   1.150  0.1554  0.3748 -0.1498
   11MOL    C95 2115   7.410   4.236   1.171 -0.4252 -0.2063 -0.3960
   11MOL    H96 2116   7.315   3.787   1.132  0.4111  1.0006  1.7898
   11MOL    H97 2117   7.208   3.907   1.072 -0.4368 -0.5422  2.4264
   11MOL    H98 2118   7.467   3.977   1.192 -0.4251 -1.0262 -2.5342
   11MOL    H99 2119   7.512   4.210   1.140 -0.3688  0.0881 -0.4578
   11MOL   H100 2120   7.380   4.320   1.108 -0.7735 -0.6595 -0.8366
   11MOL   H101 2121   7.394   4.264   1.275  0.7893  0.8923 -0.4862
   11MOL   C102 2122   7.312   3.982   1.343  0.9234 -0.1090  0.2663
   11MOL   C103 2123   7.380   3.864   1.424 -0.5925 -0.2712 -0.1419
   11MOL   O104 2124   7.515   3.890   1.415  0.2914  0.0207 -0.1430
   11MOL   C105 2125   7.606   3.799   1.472  0.1670  0.4487  0.2239
   11MOL   H106 2126   7.204   3.977   1.349  0.9169  0.4242  0.6160
   11MOL   H107 2127   7.342   4.073   1.395  1.7715 -0.5689  0.5952
   11MOL   H108 2128   7.353   3.768   1.381 -1.2829  0.7596 -2.0382
   11MOL   H109 2129   7.599   3.697   1.435  0.0397  1.0373 -1.4197
   11MOL   H110 2130   7.708   3.830   1.450 -0.0978  1.4488  0.3856
   11MOL   H111 2131   7.606   3.784   1.580  0.3544 -1.0014  0.0279
   11MOL   C112 2132   7.339   3.848   1.574 -0.2346 -0.4930 -0.4659
   11MOL   C113 2133   7.189   3.810   1.602  0.5883  0.6717  0.8275
   11MOL   O114 2134   7.138   3.689   1.535 -0.1600 -0.5219 -0.0036
   11MOL   C115 2135   7.217   3.572   1.556  0.1964 -0.7900  0.5656
   11MOL   H116 2136   7.350   3.945   1.623  0.4023 -0.1837 -1.2144
   11MOL   H117 2137   7.406   3.773   1.616  0.0672 -1.4708 -2.6532
   11MOL   H118 2138   7.125   3.885   1.556 -0.6256  0.5431  2.2610
   11MOL   H119 2139   7.320   3.577   1.522 -0.2025  0.5822 -0.4853
   11MOL   H120 2140   7.219   3.547   1.662 -1.8495  1.0209  1.0727
   11MOL   H121 2141   7.162   3.489   1.511 -0.0835 -0.3195  0.0399
   11MOL   C122 2142   7.159   3.816   1.759  0.5858  0.2032  0.9986
   11MOL   C123 2143   7.206   3.950   1.825  0.9384 -0.1198  0.2646
   11MOL   O124 2144   7.161   4.075   1.778  0.1223 -0.1159 -0.6181
   11MOL   C125 2145   7.263   4.171   1.751  0.0468 -0.5942  0.5434
   11MOL   H126 2146   7.212   3.729   1.797  1.0098 -0.3843 -0.8548
   11MOL   H127 2147   7.051   3.819   1.772  0.1559 -0.7234 -1.9717
   11MOL   H128 2148   7.315   3.954   1.831  0.8972 -1.5878  2.1154
   11MOL   H129 2149   7.316   4.129   1.665  0.1214  0.5037  0.0409
   11MOL   H130 2150   7.225   4.271   1.728  0.7035 -0.2509  0.9254
   11MOL   H131 2151   7.336   4.171   1.832  0.8250 -3.0852 -0.1208
   11MOL   C132 2152   7.170   3.941   1.977 -0.8590 -0.3884 -0.1341
   11MOL   C133 2153   7.270   3.847   2.055 -1.1542  0.1616  0.5160
   11MOL   O134 2154   7.393   3.917   2.044  0.1436 -0.3523  0.4682
   11MOL   C135 2155   7.501   3.849   2.100  0.5025 -0.2864  0.1162
   11MOL   H136 2156   7.065   3.912   1.987 -0.8439  0.0266  1.3699
   11MOL   H137 2157   7.172   4.041   2.019  0.6315  0.4022 -2.0346
   11MOL   H138 2158   7.279   3.752   2.002 -1.6493  1.4343 -1.9608
   11MOL   H139 2159   7.585   3.873   2.036  0.1291  0.5293 -0.0792
   11MOL   H140 2160   7.528   3.896   2.195  2.1877 -0.1678 -0.4154
   11MOL   H141 2161   7.486   3.742   2.111  2.0031 -0.5026  0.0550
   11MOL   C142 2162   7.236   3.818   2.201  1.1090  0.6956 -0.5647
   11MOL   C143 2163   7.099   3.753   2.227 -0.3953 -0.1068 -0.3754
   11MOL   O144 2164   7.094   3.654   2.125 -0.3113 -0.6872  0.4144
   11MOL   C145 2165   6.962   3.617   2.100  0.2160  1.3850  0.1982
   11MOL   H146 2166   7.241   3.903   2.269 -0.6444 -1.8179  2.8268
   11MOL   H147 2167   7.310   3.748   2.240 -0.3458 -0.0988  0.7997
   11MOL   H148 2168   7.020   3.828   2.226 -2.9941 -2.5753  3.4915
   11MOL   H149 2169   6.895   3.700   2.077 -1.1014  0.3464  0.2666
   11MOL   H150 2170   6.954   3.538   2.025  3.3422 -0.6806  1.9019
   11MOL   H151 2171   6.918   3.574   2.190  0.5011  0.7224  0.0253
   11MOL   C152 2172   7.103   3.683   2.371 -0.0658 -0.0521 -0.3033
   11MOL   C153 2173   7.052   3.765   2.493 -0.2264 -0.4257 -0.7369
   11MOL   O154 2174   7.088   3.694   2.615 -0.3167 -0.0249 -0.0059
   11MOL   C155 2175   6.998   3.590   2.645  1.1533  0.2549 -0.0073
   11MOL   H156 2176   7.205   3.654   2.394  0.1327 -0.2613 -1.4198
   11MOL   H157 2177   7.050   3.589   2.360  1.3511 -0.7729 -1.1780
   11MOL   H158 2178   6.943   3.770   2.485 -0.2442  0.3930 -0.0353
   11MOL   H159 2179   6.999   3.509   2.572 -0.5721 -1.3856  1.7336
   11MOL   H160 2180   7.020   3.549   2.744 -1.0128 -0.5860  0.1627
   11MOL   H161 2181   6.893   3.619   2.656  0.7383 -1.8635  2.0315
   11MOL   C162 2182   7.099   3.910   2.496  0.7967 -0.6540 -0.0697
   11MOL   C163 2183   7.052   3.993   2.619  0.0321 -0.2181  0.1440
   11MOL   O164 2184   7.102   4.127   2.603  0.2544 -0.2274 -0.2101
   11MOL   C165 2185   7.053   4.213   2.502  0.0482 -0.4972 -0.6642
   11MOL   H166 2186   7.063   3.957   2.405  0.0585  0.5142  0.8141
   11MOL   H167 2187   7.208   3.914   2.487  0.9125  0.4000  1.5684
   11MOL   H168 2188   7.090   3.961   2.717  0.4495  1.2344  0.4591
   11MOL   H169 2189   7.079   4.309   2.546 -1.4523 -1.0543  1.5058
   11MOL   H170 2190   7.109   4.198   2.410  0.0478 -0.7331 -0.6266
   11MOL   H171 2191   6.945   4.206   2.486 -0.7186  0.0989  3.7198
   11MOL   C172 2192   6.899   3.984   2.649  0.3122  0.5771  0.1134
   11MOL   C173 2193   6.844   4.087   2.743 -0.3508 -0.0759 -0.9917
   11MOL   O174 2194   6.702   4.058   2.747 -0.4755  0.3515 -0.1241
   11MOL   C175 2195   6.625   4.163   2.797  0.4206  0.1904  0.2645
   11MOL   H176 2196   6.892   3.884   2.692  2.0075 -0.1609 -1.2516
   11MOL   H177 2197   6.831   3.979   2.564 -0.7596 -0.6976  1.0362
   11MOL   H178 2198   6.857   4.180   2.689 -1.2340  0.9918  0.6107
   11MOL   H179 2199   6.617   4.256   2.741 -1.0239 -1.4586 -2.3433
   11MOL   H180 2200   6.526   4.118   2.805 -0.8567  2.9989  1.0308
   11MOL   H181 2201   6.642   4.183   2.903  1.2489  0.4152  0.0970
   11MOL   C182 2202   6.911   4.099   2.888  0.6139  0.3364  0.6098
   11MOL   C183 2203   6.951   3.965   2.962 -0.1736 -0.2167  0.1593
   11MOL   O184 2204   7.042   3.991   3.062 -0.0152  0.7663 -0.3792
   11MOL   C185 2205   7.177   3.979   3.033 -0.3391 -1.2206  0.0679
   11MOL   H186 2206   6.857   4.174   2.947  3.4084  2.0194  1.1317
   11MOL   H187 2207   7.008   4.141   2.862 -0.3530  1.3124 -1.5024
   11MOL   H188 2208   6.992   3.883   2.903  0.2831  0.4367 -0.4448
   11MOL   H189 2209   7.199   4.050   2.954 -2.1625  1.2148  1.6703
   11MOL   H190 2210   7.229   4.007   3.125 -1.2777 -1.8877  0.8178
   11MOL   H191 2211   7.204   3.884   2.987  0.0529 -0.1583 -1.9595
   11MOL   C192 2212   6.841   3.892   3.033 -0.5397 -0.1368 -0.7616
   11MOL   C193 2213   6.885   3.759   3.096  0.1772  0.2462 -0.1690
   11MOL   O194 2214   6.777   3.692   3.150  0.6295  0.1358 -0.2719
   11MOL   C195 2215   6.809   3.557   3.183  0.3287 -0.2109 -0.0068
   11MOL   H196 2216   6.760   3.875   2.963 -0.4082 -1.7206 -0.5501
   11MOL   H197 2217   6.791   3.957   3.105  2.0875  0.5202  0.5486
   11MOL   H198 2218   6.961   3.770   3.174  0.4453  0.1618 -0.4186
   11MOL   H199 2219   6.902   3.556   3.238  0.6522  0.0009 -0.5428
   11MOL   H200 2220   6.732   3.502   3.237 -2.6316  0.7100 -3.0300
   11MOL   H201 2221   6.820   3.505   3.088  3.7679 -0.5381  0.5204
   11MOL   H202 2222   6.935   3.706   3.016 -1.2687 -0.3384 -0.7025
   12MOL     C1 2223   1.794   7.206   7.269 -0.1505 -0.7322  0.2707
   12MOL     C2 2224   1.919   7.284   7.320 -0.9527  0.0667  0.2694
   12MOL     O3 2225   1.883   7.424   7.349 -0.3756 -0.5270 -0.0706
   12MOL     C4 2226   1.992   7.519   7.345  1.3869  0.3217 -0.0979
   12MOL     H5 2227   1.813   7.101   7.244 -1.8771 -1.2002  0.9005
   12MOL     H6 2228   1.715   7.205   7.343 -0.3362 -1.0186  0.0721
   12MOL     H7 2229   1.991   7.284   7.238  0.2532 -0.4180  1.3069
   12MOL     H8 2230   2.037   7.539   7.247 -1.9096 -0.4660 -1.8395
   12MOL     H9 2231   1.955   7.612   7.389  0.4221 -0.2298  0.2740
   12MOL    H10 2232   2.076   7.484   7.404  1.9198  3.2162  0.9226
   12MOL    H11 2233   1.756   7.252   7.178  2.9341  1.1512 -0.1394
   12MOL    C12 2234   1.981   7.219   7.441 -0.0783  0.4733  0.4963
   12MOL    C13 2235   2.024   7.069   7.423 -0.2709  0.4990  0.2051
   12MOL    O14 2236   2.089   7.070   7.294  0.8638 -0.1441 -0.6540
   12MOL    C15 2237   2.099   6.944   7.237 -0.2997 -0.4213 -0.0178
   12MOL    H16 2238   1.905   7.233   7.519 -1.4812 -1.9482 -0.3919
   12MOL    H17 2239   2.070   7.279   7.458  1.0635 -0.7973 -0.9623
   12MOL    H18 2240   1.935   7.007   7.428 -0.7133  1.0342 -0.9362
   12MOL    H19 2241   1.999   6.906   7.219 -0.2945  0.6004 -2.4807
   12MOL    H20 2242   2.126   6.968   7.134 -1.7950 -0.6043 -0.4556
   12MOL    H21 2243   2.165   6.874   7.289  1.1808  1.6740  1.0064
   12MOL    C22 2244   2.118   7.035   7.545 -0.4005 -0.3083  1.1794
   12MOL    C23 2245   2.047   7.031   7.683 -0.0602  0.2914  0.3118
   12MOL    O24 2246   2.011   6.902   7.717 -1.3271 -0.7677  0.1354
   12MOL    C25 2247   1.890   6.852   7.665  0.1977 -0.2410 -0.0061
   12MOL    H26 2248   2.194   7.113   7.543  0.6607 -1.3540 -0.7815
   12MOL    H27 2249   2.174   6.943   7.526 -0.1492  0.1954 -0.5279
   12MOL    H28 2250   1.956   7.091   7.689 -1.1659 -1.3714  0.3956
   12MOL    H29 2251   1.913   6.823   7.563 -2.5065  0.7322 -0.9219
   12MOL    H30 2252   1.865   6.767   7.729 -1.1132 -1.9250 -2.6938
   12MOL    H31 2253   1.813   6.928   7.667 -0.1011 -0.4742 -2.2062
   12MOL    C32 2254   2.148   7.064   7.797 -0.1927 -0.5050 -0.1943
   12MOL    C33 2255   2.080   7.060   0.130  0.6254  0.0407 -0.2565
   12MOL    O34 2256   2.170   7.084   0.230  0.1762 -0.6579 -0.1768
   12MOL    C35 2257   2.286   6.997   0.236  0.0967 -0.1292  0.2985
   12MOL    H36 2258   2.199   7.160   7.783  1.4071 -1.1667  0.9491
   12MOL    H37 2259   2.225   6.988   7.780 -0.4596 -0.7190 -0.4372
   12MOL    H38 2260   2.040   6.958   0.133  1.9753 -0.5432 -1.3731
   12MOL    H39 2261   2.325   7.013   0.336  0.6916  2.5556 -0.3055
   12MOL    H40 2262   2.252   6.897   0.209  0.5851  0.0617 -1.0781
   12MOL    H41 2263   2.368   7.022   0.169 -0.6663  0.9754 -0.2455
   12MOL    C42 2264   1.969   7.163   0.142  0.0950  0.1805 -0.6079
   12MOL    C43 2265   1.908   7.185   0.279  0.2331  0.1394 -0.5688
   12MOL    O44 2266   1.817   7.296   0.271 -0.0188  0.4573  0.3371
   12MOL    C45 2267   1.875   7.424   0.297 -0.2012 -0.8945 -0.0300
   12MOL    H46 2268   1.888   7.155   0.069 -0.8408  0.1843  0.4274
   12MOL    H47 2269   2.015   7.256   0.109  0.3486  0.8195  1.4911
   12MOL    H48 2270   1.984   7.207   0.353 -0.6719 -0.1844  0.4759
   12MOL    H49 2271   1.813   7.512   0.281  0.0222 -0.6553  0.4016
   12MOL    H50 2272   1.906   7.428   0.402  0.1791  0.0229 -0.1668
   12MOL    H51 2273   1.965   7.439   0.236 -1.4765  2.9738 -1.0696
   12MOL    C52 2274   1.829   7.056   0.318 -0.0335  0.7963  0.2491
   12MOL    C53 2275   1.758   7.062   0.458  0.0395 -0.0796  1.1918
   12MOL    O54 2276   1.672   6.954   0.464 -0.4449  0.2050 -0.1116
   12MOL    C55 2277   1.544   6.971   0.398  0.0906  0.2039 -0.1005
   12MOL    H56 2278   1.893   6.968   0.310  0.8209  1.5055 -1.0161
   12MOL    H57 2279   1.756   7.036   0.240  1.1660  0.3258 -0.7709
   12MOL    H58 2280   1.695   7.150   0.473 -0.5708 -0.4512  0.8211
   12MOL    H59 2281   1.474   6.898   0.438  0.3838 -0.8649 -1.4807
   12MOL    H60 2282   1.497   7.068   0.416 -2.0222 -0.9445  0.6607
   12MOL    H61 2283   1.546   6.961   0.290 -1.6550  0.7651 -0.2018
   12MOL    C62 2284   1.854   7.027   0.577 -0.8919 -0.3657  0.1376
   12MOL    C63 2285   1.794   7.040   0.717 -0.5619  0.3540  0.0747
   12MOL    O64 2286   1.891   6.969   0.802 -0.2119 -0.0049  0.3505
   12MOL    C65 2287   1.849   6.844   0.853 -0.1817  0.0976  0.2040
   12MOL    H66 2288   1.945   7.086   0.566 -0.7281 -0.7397 -0.5596
   12MOL    H67 2289   1.886   6.923   0.565  1.7401  0.2263  1.7420
   12MOL    H68 2290   1.691   7.005   0.724 -0.4590 -0.1311 -0.7893
   12MOL    H69 2291   1.933   6.799   0.904  2.3692  1.6587 -2.4590
   12MOL    H70 2292   1.763   6.844   0.921 -0.4675 -0.4087 -0.1542
   12MOL    H71 2293   1.830   6.779   0.768 -0.4828 -0.2014  0.4975
   12MOL    C72 2294   1.807   7.183   0.764  0.6274 -0.5134 -0.3399
   12MOL    C73 2295   1.752   7.204   0.914 -0.5700 -0.1440 -0.3808
   12MOL    O74 2296   1.771   7.340   0.962 -0.2738  0.3752  0.0169
   12MOL    C75 2297   1.902   7.355   1.019  0.1469  0.3985  0.8733
   12MOL    H76 2298   1.771   7.256   0.692 -0.6550 -0.3300  0.4887
   12MOL    H77 2299   1.914   7.203   0.764  0.2043  1.9363  0.2050
   12MOL    H78 2300   1.791   7.133   0.986 -0.1860  0.1345 -0.3109
   12MOL    H79 2301   1.936   7.276   1.085  0.3282 -1.0437 -0.9163
   12MOL    H80 2302   1.962   7.372   0.929 -1.7706  1.1797 -0.3082
   12MOL    H81 2303   1.907   7.450   1.073  4.8128  0.0945  1.1695
   12MOL    C82 2304   1.601   7.179   0.933 -0.0722 -0.1800  0.6442
   12MOL    C83 2305   1.510   7.252   0.842  0.0074  0.5078 -0.2257
   12MOL    O84 2306   1.387   7.189   0.873  0.0404 -0.5514  0.1113
   12MOL    C85 2307   1.313   7.152   0.754 -0.0321 -0.0944 -0.7863
   12MOL    H86 2308   1.567   7.199   1.034  0.5295  0.9550  0.6320
   12MOL    H87 2309   1.586   7.072   0.925  1.4516 -0.4039  0.7244
   12MOL    H88 2310   1.543   7.231   0.740  0.9264  0.9540 -0.0202
   12MOL    H89 2311   1.371   7.078   0.698  2.5823 -1.3210  3.3692
   12MOL    H90 2312   1.215   7.113   0.779  0.4828 -0.3919  0.8164
   12MOL    H91 2313   1.300   7.240   0.690 -2.7400  0.0317 -0.1016
   12MOL    C92 2314   1.498   7.408   0.875  0.1895  0.1832  0.1280
   12MOL    C93 2315   1.588   7.508   0.790  0.3972  0.5483  0.3729
   12MOL    O94 2316   1.525   7.537   0.665 -0.6512 -0.8472 -0.7210
   12MOL    C95 2317   1.611   7.503   0.557  0.8154 -0.0985  0.0415
   12MOL    H96 2318   1.507   7.443   0.978 -1.7222  1.2831 -0.0477
   12MOL    H97 2319   1.394   7.438   0.862  0.0855 -0.7134 -1.1907
   12MOL    H98 2320   1.686   7.465   0.765  0.1469  0.8447 -1.1810
   12MOL    H99 2321   1.554   7.497   0.464  0.9659 -0.3028 -0.0364
   12MOL   H100 2322   1.700   7.565   0.543 -0.0806  1.6439  1.8519
   12MOL   H101 2323   1.639   7.399   0.571 -0.2473 -0.5375 -1.0360
   12MOL   C102 2324   1.617   7.646   0.866 -0.0266 -0.5698  0.3964
   12MOL   C103 2325   1.732   7.734   0.804  0.5307  0.1587 -0.0017
   12MOL   O104 2326   1.729   0.053   0.857 -0.0423 -0.3288 -0.0879
   12MOL   C105 2327   1.736   0.157   0.757  0.2741 -0.5844 -0.1577
   12MOL   H106 2328   1.642   7.622   0.969  1.0140  0.9384  0.5075
   12MOL   H107 2329   1.529   7.711   0.871  0.2981 -0.3128  3.3712
   12MOL   H108 2330   1.696   7.744   0.702 -0.4432 -3.0582 -0.0465
   12MOL   H109 2331   1.647   0.155   0.695  0.0396 -2.3956  0.2002
   12MOL   H110 2332   1.754   0.250   0.811  0.5472 -0.1702 -0.9377
   12MOL   H111 2333   1.824   0.146   0.693 -1.4941 -1.6337 -2.4979
   12MOL   C112 2334   1.864   7.669   0.821  0.5135 -0.4085 -0.8008
   12MOL   C113 2335   1.979   7.746   0.755 -0.0715  0.0837 -0.4601
   12MOL   O114 2336   2.111   7.711   0.798  0.3634 -0.0463 -0.4358
   12MOL   C115 2337   2.131   7.734   0.935  0.2501  0.0885  0.2646
   12MOL   H116 2338   1.864   7.573   0.770 -0.4835  0.5503 -2.6569
   12MOL   H117 2339   1.884   7.655   0.927 -1.3262  1.8811 -0.1134
   12MOL   H118 2340   1.964   0.041   0.774  0.3875  0.1591 -0.5097
   12MOL   H119 2341   2.087   0.017   0.968  1.5169  0.5214  0.7317
   12MOL   H120 2342   2.092   7.651   0.993 -2.1904  1.9996  1.4414
   12MOL   H121 2343   2.237   7.743   0.959  0.0923 -0.7801  1.3353
   12MOL   C122 2344   1.988   7.728   0.598 -0.3063  0.0702 -0.1804
   12MOL   C123 2345   2.106   0.007   0.539  0.1432 -0.6859 -0.2338
   12MOL   O124 2346   2.131   7.781   0.407  0.3117  0.5261  0.4674
   12MOL   C125 2347   2.232   7.686   0.399 -0.6667 -0.4504  0.1346
   12MOL   H126 2348   1.893   7.740   0.547 -0.8237 -2.2388  0.2185
   12MOL   H127 2349   2.016   7.624   0.587 -2.6582 -0.7597  1.4607
   12MOL   H128 2350   2.199   0.005   0.597 -0.3088 -0.1277  0.5316
   12MOL   H129 2351   2.218   7.648   0.298  0.1479  0.9069 -0.5180
   12MOL   H130 2352   2.331   7.727   0.422 -1.0272  0.8825 -0.6117
   12MOL   H131 2353   2.208   7.601   0.462  2.2731 -2.6732 -1.6003
   12MOL   C132 2354   2.067   0.161   0.527  0.3475  1.1364 -0.9352
   12MOL   C133 2355   2.181   0.244   0.455  0.1435  1.0693 -0.3992
   12MOL   O134 2356   2.108   0.358   0.432 -0.3504  0.3444  0.0634
   12MOL   C135 2357   2.156   0.438   0.327 -0.5065  0.8087  0.0001
   12MOL   H136 2358   2.031   0.206   0.619  1.6319  0.9264 -0.3164
   12MOL   H137 2359   1.974   0.162   0.471 -0.8576  1.5443  1.0183
   12MOL   H138 2360   2.214   0.198   0.361 -0.4384 -1.0427  0.3865
   12MOL   H139 2361   2.147   0.392   0.229  1.2143 -0.9516  0.6411
   12MOL   H140 2362   2.082   0.518   0.326 -1.1359  0.2263 -1.7735
   12MOL   H141 2363   2.252   0.486   0.348  1.3723 -0.8847 -4.2382
   12MOL   C142 2364   2.304   0.269   0.554  0.6669  0.0883 -0.3224
   12MOL   C143 2365   2.438   0.218   0.506 -0.0117 -0.5678 -0.2136
   12MOL   O144 2366   2.478   0.323   0.423  0.1027  0.2574  0.0663
   12MOL   C145 2367   2.517   0.276   0.294 -0.5342  0.5941  0.2577
   12MOL   H146 2368   2.283   0.229   0.653  0.9153 -1.5892 -0.9294
   12MOL   H147 2369   2.313   0.376   0.575  0.0434 -0.0569  0.7061
   12MOL   H148 2370   2.419   0.121   0.459 -1.1386 -0.2839 -0.3656
   12MOL   H149 2371   2.587   0.194   0.306 -0.5480  0.3297 -1.3907
   12MOL   H150 2372   2.434   0.228   0.244  0.1508 -0.7142  0.3528
   12MOL   H151 2373   2.574   0.346   0.232 -0.2406 -0.4261 -0.6231
   12MOL   C152 2374   2.536   0.208   0.623  0.2995  0.3296 -0.6239
   12MOL   C153 2375   2.534   0.073   0.702 -0.4900  0.2205  0.2026
   12MOL   O154 2376   2.545   7.777   0.606 -0.0049 -0.2474  0.2636
   12MOL   C155 2377   2.526   7.643   0.653  0.0244  0.2682  0.1975
   12MOL   H156 2378   2.512   0.287   0.695  1.8532  0.3266 -0.0959
   12MOL   H157 2379   2.640   0.223   0.595  0.0912  0.1362 -1.5283
   12MOL   H158 2380   2.444   0.059   0.761 -0.8065  2.3708  0.2784
   12MOL   H159 2381   2.584   7.605   0.737 -1.0871 -3.2353 -0.5361
   12MOL   H160 2382   2.420   7.628   0.675  0.0402 -1.7035 -0.9027
   12MOL   H161 2383   2.555   7.590   0.562 -0.6986  0.3772 -0.1031
   12MOL   C162 2384   2.647   0.049   0.809 -0.0097  0.3751 -0.9468
   12MOL   C163 2385   2.619   0.128   0.947 -0.0184  0.3752  0.1681
   12MOL   O164 2386   2.510   0.059   1.007 -0.4603 -0.1431  0.2710
   12MOL   C165 2387   2.424   0.141   1.083  0.0962  0.2020  0.4021
   12MOL   H166 2388   2.742   0.081   0.766  0.7382  0.0533  0.4373
   12MOL   H167 2389   2.666   7.756   0.837  1.2030  0.2973 -2.0337
   12MOL   H168 2390   2.584   0.228   0.923 -0.3683  0.4158  0.8440
   12MOL   H169 2391   2.356   0.191   1.014 -1.5671  0.0704  1.9054
   12MOL   H170 2392   2.366   0.078   1.151  0.3623 -0.4822  0.0017
   12MOL   H171 2393   2.467   0.216   1.149  1.2720 -0.5149  0.4537
   12MOL   C172 2394   2.741   0.127   1.039  0.2814  0.4842 -0.3103
   12MOL   C173 2395   2.869   0.206   0.983  0.1612  0.3741  0.0812
   12MOL   O174 2396   2.830   0.336   0.938  0.4523 -0.1617  0.1309
   12MOL   C175 2397   2.893   0.387   0.825 -0.4161  0.3361 -0.6152
   12MOL   H176 2398   2.770   0.024   1.060 -0.3422 -0.2303 -2.8516
   12MOL   H177 2399   2.710   0.179   1.130  1.2430  1.7392 -0.6935
   12MOL   H178 2400   2.899   0.143   0.900  0.6353  0.7532 -0.0376
   12MOL   H179 2401   2.998   0.361   0.819 -0.3634  0.0911  1.1418
   12MOL   H180 2402   2.845   0.345   0.736 -2.6827 -1.4194  1.4020
   12MOL   H181 2403   2.875   0.494   0.815  1.1471  0.6500 -0.1923
   12MOL   C182 2404   2.987   0.215   1.081 -0.2474 -0.3561 -0.2812
   12MOL   C183 2405   3.084   0.092   1.059 -0.0900 -0.2401 -0.3142
   12MOL   O184 2406   3.188   0.122   0.970  0.6043  0.2879  0.3029
   12MOL   C185 2407   3.169   0.107   0.828  0.3768  0.3190 -0.0512
   12MOL   H186 2408   2.948   0.226   1.182  4.1986  3.0267  1.2563
   12MOL   H187 2409   3.038   0.311   1.066  0.2829 -0.8605 -1.7891
   12MOL   H188 2410   3.025   0.008   1.024  0.6950 -0.6838 -0.6012
   12MOL   H189 2411   3.163   7.810   0.814  1.3526  0.1226  0.9867
   12MOL   H190 2412   3.077   0.149   0.786 -0.2284 -1.1067 -0.1610
   12MOL   H191 2413   3.262   0.143   0.784  0.7061  0.5626  0.8388
   12MOL   C192 2414   3.133   0.049   1.194 -0.4446  0.8596  0.3144
   12MOL   C193 2415   3.227   7.736   1.195  0.2309  0.1671 -0.2628
   12MOL   O194 2416   3.257   7.704   1.327  0.3138 -0.2737 -0.8085
   12MOL   C195 2417   3.217   7.573   1.371 -0.2422 -0.1323 -0.7155
   12MOL   H196 2418   3.046   0.018   1.253 -0.5494  0.3364 -0.1069
   12MOL   H197 2419   3.178   0.136   1.241  1.8581 -0.8993  1.4733
   12MOL   H198 2420   3.313   7.749   1.129  0.7955  0.0789  0.4453
   12MOL   H199 2421   3.257   7.495   1.307 -0.2630  0.9653 -2.0918
   12MOL   H200 2422   3.259   7.550   1.469  0.8982  0.7898 -0.9884
   12MOL   H201 2423   3.108   7.574   1.384 -0.1015 -0.1519  0.5407
   12MOL   H202 2424   3.163   7.658   1.153  0.4829 -0.0079 -0.3212
   13MOL     C1 2425   0.335   0.996   3.755  0.0684 -0.5184  0.0774
   13MOL     C2 2426   0.192   0.957   3.709 -0.1583  0.1942 -0.3910
   13MOL     O3 2427   0.192   0.988   3.576 -0.1933  0.2556 -0.1718
   13MOL     C4 2428   0.063   1.018   3.520  0.7385  1.1431 -0.7061
   13MOL     H5 2429   0.364   1.087   3.702 -0.7147 -0.8080 -0.8693
   13MOL     H6 2430   0.341   1.027   3.859  0.4319 -1.9684  0.4997
   13MOL     H7 2431   0.124   1.017   3.769 -0.3498 -0.8450  0.4434
   13MOL     H8 2432   0.071   1.066   3.422 -0.4573  1.2483 -0.7602
   13MOL     H9 2433   7.803   0.935   3.509 -0.2474  2.1891 -2.4901
   13MOL    H10 2434   0.028   1.084   3.598  0.8730  2.5464 -1.8094
   13MOL    H11 2435   0.404   0.916   3.729  1.6716  0.5692  0.8363
   13MOL    C12 2436   0.176   0.807   3.721  0.3197 -0.0962  0.0030
   13MOL    C13 2437   0.151   0.762   3.866  0.2393  0.0244  0.0978
   13MOL    O14 2438   0.030   0.799   3.907 -0.5921  0.4616  0.3197
   13MOL    C15 2439   0.036   0.871   4.029  0.5375  0.3749 -0.4984
   13MOL    H16 2440   0.265   0.750   3.695  1.7770  3.0818 -2.2311
   13MOL    H17 2441   0.092   0.756   3.673  0.6823  0.5212 -1.3085
   13MOL    H18 2442   0.229   0.811   3.924  0.0472  1.3266 -0.7214
   13MOL    H19 2443   0.057   0.815   4.120 -0.4281 -1.7808 -1.5821
   13MOL    H20 2444   0.092   0.964   4.012  0.5788  0.5406  0.4749
   13MOL    H21 2445   7.741   0.894   4.041  1.0817  1.3332  3.2775
   13MOL    C22 2446   0.162   0.606   3.890  0.2119  0.0253 -0.2772
   13MOL    C23 2447   0.297   0.532   3.862  0.3733  0.4689  0.2656
   13MOL    O24 2448   0.397   0.607   3.930 -0.2155  0.5528 -0.4756
   13MOL    C25 2449   0.514   0.628   3.846 -0.0833  0.1578 -0.4262
   13MOL    H26 2450   0.083   0.559   3.831 -0.9989 -0.4206  1.6650
   13MOL    H27 2451   0.124   0.582   3.989 -2.3790 -0.1076 -1.2694
   13MOL    H28 2452   0.305   0.514   3.754 -0.4698  2.0143 -0.0702
   13MOL    H29 2453   0.505   0.721   3.790 -0.8239 -1.0150 -2.2876
   13MOL    H30 2454   0.604   0.626   3.907 -0.9418 -1.7630  0.8209
   13MOL    H31 2455   0.530   0.544   3.779  0.2035 -0.5419  0.5111
   13MOL    C32 2456   0.302   0.391   3.927 -0.0147 -0.1326  0.3142
   13MOL    C33 2457   0.439   0.311   3.935 -0.1375 -0.4278  0.4200
   13MOL    O34 2458   0.528   0.372   4.028 -0.5490  0.0987 -0.5482
   13MOL    C35 2459   0.672   0.356   4.014  0.0577 -0.3330  0.3607
   13MOL    H36 2460   0.217   0.326   3.908 -0.8975  0.8618  0.8007
   13MOL    H37 2461   0.279   0.416   4.031 -2.2214  1.2441 -0.4659
   13MOL    H38 2462   0.464   0.317   3.829  0.9905  0.4744  0.7222
   13MOL    H39 2463   0.727   0.412   4.090  0.0318  1.5582 -0.9637
   13MOL    H40 2464   0.702   0.251   4.016 -0.7329 -0.5677  0.0721
   13MOL    H41 2465   0.704   0.412   3.926 -2.7066  1.1185  0.2329
   13MOL    C42 2466   0.409   0.165   3.974 -0.0491  0.2374 -0.0851
   13MOL    C43 2467   0.343   0.064   3.875  0.3181  0.3591 -0.1775
   13MOL    O44 2468   0.433   0.070   3.759  0.0878  0.5527 -0.2702
   13MOL    C45 2469   0.371   0.017   3.642 -0.5514 -0.5991 -0.0493
   13MOL    H46 2470   0.357   0.171   4.070  0.0574 -0.5998  0.0260
   13MOL    H47 2471   0.498   0.107   4.001 -1.1952 -1.9339 -0.9293
   13MOL    H48 2472   0.246   0.103   3.842  1.3346  2.7032 -0.4925
   13MOL    H49 2473   0.270   0.055   3.626 -0.9525 -2.0301 -1.0852
   13MOL    H50 2474   0.432   0.039   3.555 -1.0644  0.8767 -0.0541
   13MOL    H51 2475   0.357   7.720   3.649 -1.3235 -0.4192  1.4839
   13MOL    C52 2476   0.314   7.730   3.928  0.3484  0.2567  0.5869
   13MOL    C53 2477   0.208   7.720   4.035  0.8720 -0.5206  0.2650
   13MOL    O54 2478   0.086   7.761   3.960 -0.1336 -0.4467  0.3767
   13MOL    C55 2479   0.008   0.042   4.042 -0.3043  0.3595  0.2724
   13MOL    H56 2480   0.408   7.691   3.968 -0.3567 -0.2708  1.7632
   13MOL    H57 2481   0.279   7.655   3.857  0.1971  2.0578 -1.2913
   13MOL    H58 2482   0.232   7.795   4.110  0.9638 -1.1036  0.8223
   13MOL    H59 2483   0.066   0.134   4.037  2.6110 -1.4578 -0.4331
   13MOL    H60 2484   7.719   0.049   3.999  0.1839 -1.8579 -1.3315
   13MOL    H61 2485   7.807   0.007   4.145  1.5372  1.9051  1.0313
   13MOL    C62 2486   0.195   7.578   4.106  0.0505  0.6809  0.2862
   13MOL    C63 2487   0.313   7.555   4.209  0.1922 -0.4421  0.0486
   13MOL    O64 2488   0.268   7.599   4.335  0.0238  0.4910 -0.2853
   13MOL    C65 2489   0.330   7.726   4.378 -0.0787  0.5890 -0.3543
   13MOL    H66 2490   0.194   7.497   4.033 -1.6937  1.7544 -0.9142
   13MOL    H67 2491   0.104   7.574   4.165  0.3232 -0.4966  0.6467
   13MOL    H68 2492   0.398   7.616   4.178  0.5266 -0.8570  0.1528
   13MOL    H69 2493   0.320   7.795   4.295 -1.3558  1.2404  0.3171
   13MOL    H70 2494   0.273   7.774   4.458 -1.0128 -1.4244  0.2258
   13MOL    H71 2495   0.431   7.713   4.416 -0.5444 -1.0445  0.3982
   13MOL    C72 2496   0.360   7.414   4.240  0.1104  0.1258  0.5859
   13MOL    C73 2497   0.424   7.331   4.125 -0.3825 -0.1860  0.0235
   13MOL    O74 2498   0.555   7.390   4.105 -0.5636 -0.6117  0.0729
   13MOL    C75 2499   0.601   7.381   3.969 -0.4229  0.0208 -0.2527
   13MOL    H76 2500   0.284   7.358   4.294  0.2520  0.8114  1.5330
   13MOL    H77 2501   0.439   7.420   4.315  0.2536 -0.6484  0.4938
   13MOL    H78 2502   0.359   7.353   4.041 -2.8699 -3.7706  0.8889
   13MOL    H79 2503   0.708   7.364   3.960 -0.7838 -1.2026 -2.7053
   13MOL    H80 2504   0.542   7.311   3.910 -0.2723  1.0743 -1.6707
   13MOL    H81 2505   0.587   7.470   3.907  1.3145 -0.1047 -0.8453
   13MOL    C82 2506   0.427   7.176   4.143 -0.2190  0.2005  0.1682
   13MOL    C83 2507   0.290   7.100   4.135 -0.0223  0.2618  0.8748
   13MOL    O84 2508   0.263   7.108   3.991 -0.3364  0.2573  0.8050
   13MOL    C85 2509   0.138   7.151   3.956 -0.0135  0.1845 -0.2199
   13MOL    H86 2510   0.472   7.166   4.242 -2.0935 -1.0054  0.9300
   13MOL    H87 2511   0.500   7.131   4.076 -0.4535  0.2539 -0.1209
   13MOL    H88 2512   0.215   7.156   4.191 -0.2346 -0.4780  1.3336
   13MOL    H89 2513   0.065   7.102   4.020  1.5501  0.8107  2.0870
   13MOL    H90 2514   0.131   7.258   3.976 -0.9133 -0.0693  0.8607
   13MOL    H91 2515   0.117   7.114   3.856 -0.0008 -1.6653  0.4566
   13MOL    C92 2516   0.296   6.955   4.189 -0.0286 -0.1248 -0.4515
   13MOL    C93 2517   0.161   6.887   4.219 -0.6242 -0.0907 -0.1912
   13MOL    O94 2518   0.181   6.761   4.278 -0.0064  0.4402  0.3031
   13MOL    C95 2519   0.104   6.665   4.224 -0.0792  0.3051  0.0709
   13MOL    H96 2520   0.352   6.959   4.282 -0.2506 -0.0332 -0.3203
   13MOL    H97 2521   0.353   6.895   4.118  1.9867 -1.3033  2.0658
   13MOL    H98 2522   0.105   6.878   4.126 -1.3713 -2.1991  0.4176
   13MOL    H99 2523   7.809   6.681   4.246  0.3810  1.1572  1.7808
   13MOL   H100 2524   0.126   6.653   4.118 -2.0291  2.3071 -0.5787
   13MOL   H101 2525   0.132   6.574   4.278  0.3394 -0.3329 -1.2132
   13MOL   C102 2526   0.073   6.970   4.316 -0.1512 -0.1131  0.4794
   13MOL   C103 2527   0.120   6.989   4.459 -0.5079  0.1809  0.1730
   13MOL   O104 2528   0.223   7.094   4.458  0.1780  0.4851 -0.3719
   13MOL   C105 2529   0.331   7.090   4.547 -0.4981  0.6418 -0.0702
   13MOL   H106 2530   7.793   6.909   4.314 -1.0757  1.2502 -0.3254
   13MOL   H107 2531   0.046   7.064   4.267 -0.7106  1.5657  3.8642
   13MOL   H108 2532   0.151   6.891   4.493 -0.7809 -0.2706 -0.8493
   13MOL   H109 2533   0.292   7.119   4.645  2.3884  0.2544  1.2501
   13MOL   H110 2534   0.385   6.996   4.544  0.5863  1.1604  1.8374
   13MOL   H111 2535   0.398   7.172   4.520  0.6821  0.0979  1.1290
   13MOL   C112 2536   7.806   7.037   4.536 -0.0123 -0.0631 -0.1027
   13MOL   C113 2537   7.732   7.161   4.481 -0.3232  0.3277 -0.4069
   13MOL   O114 2538   7.623   7.104   4.401 -0.5970 -0.3135 -0.1457
   13MOL   C115 2539   7.573   7.192   4.311  0.4340  0.4059  0.3357
   13MOL   H116 2540   0.032   7.066   4.634  0.1125  0.1185 -0.2025
   13MOL   H117 2541   7.744   6.948   4.550  0.5681 -0.5075 -0.3451
   13MOL   H118 2542   7.803   7.214   4.417  0.6942  1.8285  1.9122
   13MOL   H119 2543   7.528   7.282   4.353 -2.2968 -1.1368  0.8230
   13MOL   H120 2544   7.652   7.213   4.239 -0.6983 -0.0374 -1.0455
   13MOL   H121 2545   7.495   7.131   4.267 -0.1380  1.0557  0.4507
   13MOL   C122 2546   7.678   7.259   4.590  0.1163 -0.1701 -0.0111
   13MOL   C123 2547   7.780   7.340   4.671 -0.2983 -0.3037 -0.3483
   13MOL   O124 2548   0.031   7.430   4.584 -0.8249 -0.0496  0.3862
   13MOL   C125 2549   0.164   7.454   4.626 -0.1821  0.0688 -0.0041
   13MOL   H126 2550   7.610   7.197   4.649 -0.8306  0.1833 -0.7236
   13MOL   H127 2551   7.614   7.332   4.541  1.7541  1.2483 -0.0562
   13MOL   H128 2552   0.044   7.274   4.715 -2.8047 -0.8438  3.3337
   13MOL   H129 2553   0.173   7.491   4.729  1.2037 -1.1282  0.3199
   13MOL   H130 2554   0.216   7.361   4.601 -0.9463 -0.0827 -1.0607
   13MOL   H131 2555   0.204   7.527   4.557 -1.3558 -0.9446 -1.7981
   13MOL   C132 2556   7.710   7.420   4.779  0.2008  0.2672 -0.6304
   13MOL   C133 2557   7.677   7.347   4.909  0.2628 -0.9604  0.0704
   13MOL   O134 2558   7.796   7.277   4.942 -0.1505  0.3312  0.5841
   13MOL   C135 2559   7.792   7.137   4.952 -1.0105 -0.0440  0.3736
   13MOL   H136 2560   7.614   7.455   4.739 -2.7183 -3.1424  2.9660
   13MOL   H137 2561   7.781   7.496   4.809 -0.5745  1.0187 -0.7003
   13MOL   H138 2562   7.600   7.274   4.885 -0.1629  0.2787 -2.5818
   13MOL   H139 2563   0.004   7.100   4.852 -1.7928  0.6018 -0.0504
   13MOL   H140 2564   0.065   7.097   5.009  0.2689 -0.0031 -1.4178
   13MOL   H141 2565   7.699   7.092   4.986 -0.2211 -1.6566  0.4639
   13MOL   C142 2566   7.638   7.439   5.025 -0.0271  0.3767 -0.0751
   13MOL   C143 2567   7.565   7.373   5.140  0.6685 -0.6908  0.1181
   13MOL   O144 2568   7.542   7.463   5.240 -0.1390  0.3618 -0.3051
   13MOL   C145 2569   7.662   7.521   5.304  0.8493 -0.1127  0.0456
   13MOL   H146 2570   7.585   7.524   4.982  0.7325  0.7955 -0.1930
   13MOL   H147 2571   7.732   7.472   5.071 -0.3145  1.8064 -0.4802
   13MOL   H148 2572   7.643   7.306   5.175 -1.0674 -1.6657  2.2716
   13MOL   H149 2573   7.619   7.555   5.398 -0.0933  0.2847 -0.5294
   13MOL   H150 2574   7.733   7.440   5.323  1.7205 -0.1776 -3.1301
   13MOL   H151 2575   7.704   7.597   5.238 -1.9449 -1.1467 -3.0442
   13MOL   C152 2576   7.435   7.307   5.092  0.2619  1.0120 -0.5000
   13MOL   C153 2577   7.343   7.259   5.209 -0.2220  0.5336 -0.5599
   13MOL   O154 2578   7.225   7.197   5.155  0.0460  0.1794 -0.1791
   13MOL   C155 2579   7.130   7.285   5.102  0.3227 -0.2386 -0.3129
   13MOL   H156 2580   7.462   7.214   5.043  0.2963  0.0736  1.2585
   13MOL   H157 2581   7.376   7.377   5.032  0.2380  2.0658  0.7276
   13MOL   H158 2582   7.329   7.353   5.263 -0.5433  0.0374  0.2288
   13MOL   H159 2583   7.039   7.225   5.095  0.4132 -0.2867 -1.0892
   13MOL   H160 2584   7.114   7.373   5.163  2.1131  0.4821 -0.8324
   13MOL   H161 2585   7.153   7.308   4.998 -1.8384 -0.9719 -0.9881
   13MOL   C162 2586   7.410   7.162   5.314  0.2406 -0.6127  0.1352
   13MOL   C163 2587   7.426   7.014   5.281  0.4621 -0.4517 -0.0685
   13MOL   O164 2588   7.515   7.008   5.170 -0.1557  0.7262  0.2065
   13MOL   C165 2589   7.486   6.893   5.088 -0.2446  0.4621 -0.8918
   13MOL   H166 2590   7.352   7.161   5.407  2.0147 -1.5400  1.2560
   13MOL   H167 2591   7.512   7.192   5.337  0.3833 -0.9490 -0.0491
   13MOL   H168 2592   7.333   6.962   5.259  0.2752 -0.5045  0.8049
   13MOL   H169 2593   7.396   6.904   5.028 -0.9933  0.5851  0.2324
   13MOL   H170 2594   7.574   6.896   5.024  1.4095 -0.2179  1.3049
   13MOL   H171 2595   7.485   6.798   5.141 -0.6788 -1.4810 -4.2639
   13MOL   C172 2596   7.471   6.924   5.399  0.8172  0.0961  0.8409
   13MOL   C173 2597   7.594   6.970   5.486  0.2278  0.7251  0.1428
   13MOL   O174 2598   7.612   6.885   5.600  0.2949  0.0731  0.0129
   13MOL   C175 2599   7.699   6.945   5.696  0.0783 -0.3884  0.1268
   13MOL   H176 2600   7.480   6.820   5.366 -0.1607  0.7178 -1.4778
   13MOL   H177 2601   7.390   6.917   5.471 -0.8496 -0.5714 -1.0670
   13MOL   H178 2602   7.557   7.065   5.524 -1.6044  1.4795 -3.2749
   13MOL   H179 2603   7.797   6.959   5.650  0.5654 -1.0527  0.9655
   13MOL   H180 2604   7.652   7.037   5.730  1.7623  0.1280  1.1226
   13MOL   H181 2605   7.707   6.874   5.778 -0.2828 -0.5197  0.0470
   13MOL   C182 2606   7.722   6.999   5.400  0.0267  0.3287 -0.6125
   13MOL   C183 2607   7.809   6.875   5.369 -0.1965 -0.6023 -0.6087
   13MOL   O184 2608   7.736   6.789   5.282  0.6701  0.3625  0.4625
   13MOL   C185 2609   7.738   6.659   5.330  0.2241 -0.8104 -0.3933
   13MOL   H186 2610   7.791   7.059   5.459 -2.0139  3.8145 -1.6450
   13MOL   H187 2611   7.702   7.056   5.310  1.7174 -0.2942 -1.4015
   13MOL   H188 2612   0.031   6.831   5.463 -0.2380  3.8487  1.5761
   13MOL   H189 2613   0.032   6.628   5.330  0.7411  0.8767 -1.7051
   13MOL   H190 2614   7.675   6.646   5.418  1.7945  0.1957  0.9157
   13MOL   H191 2615   7.696   6.602   5.248  1.7626 -0.4600 -1.4535
   13MOL   C192 2616   0.127   6.917   5.291 -0.1774 -0.5890  0.3899
   13MOL   C193 2617   0.260   6.847   5.322  0.0689  0.1979  0.7538
   13MOL   O194 2618   0.356   6.894   5.240  0.0322 -0.8664  0.1643
   13MOL   C195 2619   0.484   6.829   5.259 -0.6412  0.2110 -0.5406
   13MOL   H196 2620   0.145   7.024   5.300  2.4143 -1.0568  1.2208
   13MOL   H197 2621   0.116   6.887   5.186 -0.8913  1.1485 -0.0495
   13MOL   H198 2622   0.243   6.742   5.300 -0.4475 -0.1346  2.6142
   13MOL   H199 2623   0.570   6.889   5.229 -1.6305  1.5131 -0.8050
   13MOL   H200 2624   0.515   6.805   5.361 -0.3711 -0.7799 -0.8477
   13MOL   H201 2625   0.480   6.739   5.197 -2.4672 -0.7779  0.9575
   13MOL   H202 2626   0.292   6.854   5.426 -1.6473  1.2030  1.2273
   14MOL     C1 2627   7.497   3.465   1.243 -0.0724 -0.0006  0.8815
   14MOL     C2 2628   7.586   3.342   1.212  0.1778 -0.5633 -0.0328
   14MOL     O3 2629   7.545   3.303   1.071 -0.0258 -0.1157 -0.5883
   14MOL     C4 2630   7.626   3.198   1.019  0.1733  0.6408  0.2922
   14MOL     H5 2631   7.395   3.425   1.243 -0.1985  0.3218  0.9855
   14MOL     H6 2632   7.515   3.505   1.343  1.3558  0.1341  0.5808
   14MOL     H7 2633   7.549   3.255   1.266 -2.4214  0.5942  0.1061
   14MOL     H8 2634   7.728   3.233   1.002  0.8319 -0.1887  2.3890
   14MOL     H9 2635   7.625   3.101   1.069 -1.2019  1.7977  2.5763
   14MOL    H10 2636   7.587   3.176   0.919 -2.6681  2.4184  0.9478
   14MOL    H11 2637   7.509   3.550   1.177 -0.6925 -0.2182  0.4823
   14MOL    C12 2638   7.737   3.375   1.237  0.6944  0.3287  0.8647
   14MOL    C13 2639   7.783   3.373   1.382 -0.3589  0.0469  0.1370
   14MOL    O14 2640   7.747   3.246   1.426  0.0372  0.1318 -0.1306
   14MOL    C15 2641   7.679   3.242   1.548  0.4009  0.6577  0.1595
   14MOL    H16 2642   7.766   3.468   1.188 -0.9903  0.6740  0.4691
   14MOL    H17 2643   7.799   3.303   1.184 -2.1927 -0.3347 -1.7666
   14MOL    H18 2644   7.726   3.456   1.425 -0.2921 -0.1190  0.5498
   14MOL    H19 2645   7.734   3.289   1.629 -0.2838  1.0651  0.3897
   14MOL    H20 2646   7.580   3.286   1.537 -0.0227 -0.3689 -0.2440
   14MOL    H21 2647   7.668   3.138   1.579  0.9875  0.7309  0.6056
   14MOL    C22 2648   0.115   3.396   1.405  0.2038 -0.0588 -0.7174
   14MOL    C23 2649   0.149   3.455   1.547 -0.0640  0.5055  0.3170
   14MOL    O24 2650   0.289   3.467   1.546 -0.5230 -0.0459  0.2479
   14MOL    C25 2651   0.360   3.362   1.619  0.0714 -0.3582 -0.7886
   14MOL    H26 2652   0.143   3.471   1.331 -1.1774  0.1669 -1.0269
   14MOL    H27 2653   0.178   3.316   1.367  0.8779 -0.1294  0.5145
   14MOL    H28 2654   0.118   3.382   1.621  1.3662 -0.2818  0.1592
   14MOL    H29 2655   0.468   3.379   1.622  0.1504 -0.8841 -0.5356
   14MOL    H30 2656   0.318   3.349   1.718  2.3851  0.6410  0.3764
   14MOL    H31 2657   0.351   3.270   1.562 -2.6400 -0.4126 -0.3299
   14MOL    C32 2658   0.089   3.589   1.589  0.1244  0.0720 -0.0235
   14MOL    C33 2659   0.152   3.651   1.717 -0.5314 -0.5088 -0.4612
   14MOL    O34 2660   0.100   3.784   1.723 -1.1255 -0.2232 -0.3737
   14MOL    C35 2661   0.171   3.889   1.792 -0.5554 -0.1214  0.2248
   14MOL    H36 2662   7.792   3.582   1.608  0.2069  0.5358  0.6058
   14MOL    H37 2663   0.093   3.651   1.499 -1.5275  1.5314  0.8930
   14MOL    H38 2664   0.260   3.659   1.709 -0.3289 -1.3836  1.1299
   14MOL    H39 2665   0.128   3.989   1.783  0.7934  0.4349 -0.1974
   14MOL    H40 2666   0.160   3.860   1.897  2.8979 -0.6705  0.5173
   14MOL    H41 2667   0.276   3.886   1.762 -1.4015  1.5375 -3.0930
   14MOL    C42 2668   0.127   3.575   1.852  0.4755 -0.6644  0.3020
   14MOL    C43 2669   7.787   3.578   1.899  0.2034  0.1780  0.1709
   14MOL    O44 2670   7.721   3.484   1.812  0.6689 -0.1786 -0.2217
   14MOL    C45 2671   7.581   3.498   1.811 -0.2438  0.1446  0.1022
   14MOL    H46 2672   0.200   3.615   1.922 -0.7814  0.6159  0.9086
   14MOL    H47 2673   0.157   3.470   1.846  0.6189 -0.4670 -3.3899
   14MOL    H48 2674   7.751   3.679   1.879 -2.7913 -1.0546 -1.0399
   14MOL    H49 2675   7.540   3.412   1.759 -0.0676 -0.6672  1.2840
   14MOL    H50 2676   7.537   3.501   1.910  1.6682 -2.4334  1.0709
   14MOL    H51 2677   7.552   3.584   1.750 -0.2200 -0.9559 -1.5008
   14MOL    C52 2678   7.775   3.537   2.048  0.0321 -0.2609  0.0323
   14MOL    C53 2679   0.010   3.395   2.081 -0.7172 -0.2171 -0.2804
   14MOL    O54 2680   0.154   3.384   2.092 -0.3293 -0.3010 -0.7808
   14MOL    C55 2681   0.209   3.258   2.053  0.1883 -0.6138 -1.6181
   14MOL    H56 2682   7.672   3.548   2.082  0.7231  2.1724  1.4668
   14MOL    H57 2683   0.032   3.598   2.109 -0.8443  1.0371 -0.2801
   14MOL    H58 2684   7.786   3.336   1.996  1.0556 -0.4987 -0.8282
   14MOL    H59 2685   0.186   3.170   2.113  0.9061  0.2875  0.0054
   14MOL    H60 2686   0.197   3.243   1.946  1.9097 -0.9047 -1.7841
   14MOL    H61 2687   0.316   3.269   2.067 -0.1894  1.2657  0.0436
   14MOL    C62 2688   7.753   3.337   2.211  0.5254  0.0806  0.3869
   14MOL    C63 2689   7.764   3.423   2.339 -0.5897  0.2028  0.1612
   14MOL    O64 2690   7.665   3.367   2.425 -0.1280  0.9111 -0.1145
   14MOL    C65 2691   7.562   3.454   2.450 -0.9180  0.1219 -0.2825
   14MOL    H66 2692   7.798   3.240   2.231  0.2872  0.0795  0.9222
   14MOL    H67 2693   7.648   3.309   2.200  0.2705  0.2957  2.0554
   14MOL    H68 2694   7.746   3.528   2.316 -0.8577  0.2790  0.7116
   14MOL    H69 2695   7.508   3.493   2.363  1.3061  4.8660  0.3124
   14MOL    H70 2696   7.496   3.392   2.510  1.6466  0.2609  2.8178
   14MOL    H71 2697   7.605   3.536   2.508  0.7288 -1.2614  0.5037
   14MOL    C72 2698   0.090   3.409   2.418  0.0819 -0.7502  0.6570
   14MOL    C73 2699   0.120   3.530   2.514 -0.2698 -0.0603  0.2271
   14MOL    O74 2700   0.204   3.487   2.617  0.5287 -0.2430 -0.2894
   14MOL    C75 2701   0.142   3.425   2.733  0.5214 -0.4113 -0.0353
   14MOL    H76 2702   0.172   3.393   2.348 -0.6950 -0.5289 -0.3149
   14MOL    H77 2703   0.086   3.318   2.478 -1.0355 -0.3644  1.1672
   14MOL    H78 2704   0.026   3.560   2.561  0.1608  1.3536  0.2031
   14MOL    H79 2705   0.093   3.505   2.789  0.8427 -0.3801  0.2056
   14MOL    H80 2706   0.063   3.359   2.699  0.4983 -0.3760 -0.0505
   14MOL    H81 2707   0.215   3.367   2.789 -0.7474 -1.2675  0.7615
   14MOL    C82 2708   0.199   3.641   2.437  0.8188 -0.0186 -0.3561
   14MOL    C83 2709   0.349   3.619   2.420  0.3680  0.2200 -0.1229
   14MOL    O84 2710   0.375   3.670   2.293 -0.3053 -0.3707  0.2560
   14MOL    C85 2711   0.358   3.580   2.187 -0.2673 -0.1147  0.3413
   14MOL    H86 2712   0.185   3.729   2.501  1.3514  0.0941 -0.3879
   14MOL    H87 2713   0.140   3.674   2.352  0.1589 -1.3084 -0.4035
   14MOL    H88 2714   0.379   3.515   2.431  1.4386  0.6801  1.6080
   14MOL    H89 2715   0.421   3.490   2.186 -1.6034 -1.0721 -0.9235
   14MOL    H90 2716   0.251   3.559   2.177 -0.0540 -0.2177 -2.0982
   14MOL    H91 2717   0.390   3.619   2.090 -0.3785 -1.8521 -0.4239
   14MOL    C92 2718   0.427   3.702   2.523 -1.0289  0.0888 -0.2596
   14MOL    C93 2719   0.582   3.694   2.498  0.1454  0.9525 -0.3865
   14MOL    O94 2720   0.655   3.787   2.577  0.5615  0.1154 -0.1081
   14MOL    C95 2721   0.663   3.920   2.528  0.6742  0.2987 -0.2215
   14MOL    H96 2722   0.404   3.654   2.618 -3.1790  0.4705 -0.5697
   14MOL    H97 2723   0.396   3.806   2.518  1.2863  0.8217 -0.2719
   14MOL    H98 2724   0.600   3.705   2.391  0.0528 -0.0426 -0.5125
   14MOL    H99 2725   0.724   3.916   2.437  0.2105  0.1642 -0.5270
   14MOL   H100 2726   0.560   3.944   2.501  1.2097  0.2874 -2.4481
   14MOL   H101 2727   0.703   3.994   2.597  0.6000 -0.7402  0.9324
   14MOL   C102 2728   0.632   3.563   2.545  0.6999  0.9194  0.3580
   14MOL   C103 2729   0.784   3.533   2.528 -0.3367 -0.1471 -0.3600
   14MOL   O104 2730   0.801   3.402   2.590 -0.0531  0.0703 -0.4034
   14MOL   C105 2731   0.879   3.421   2.713 -0.4666 -0.9732 -0.6365
   14MOL   H106 2732   0.576   3.487   2.490  0.0893  1.3362  0.4026
   14MOL   H107 2733   0.603   3.551   2.649 -1.0028  0.5609 -0.1513
   14MOL   H108 2734   0.830   3.624   2.566 -1.1703 -0.6023  1.8198
   14MOL   H109 2735   0.936   3.332   2.739  1.2363  0.5769  1.0157
   14MOL   H110 2736   0.958   3.496   2.704 -1.1416 -0.1502  0.1453
   14MOL   H111 2737   0.818   3.460   2.794  0.5215  0.9121 -0.7763
   14MOL   C112 2738   0.812   3.520   2.375 -0.4286 -0.6756  0.1390
   14MOL   C113 2739   0.950   3.570   2.332 -0.3753  0.0358  1.0358
   14MOL   O114 2740   1.008   3.492   2.229  0.6377 -0.4910  0.4248
   14MOL   C115 2741   1.109   3.395   2.266  0.7173 -0.3425  0.9796
   14MOL   H116 2742   0.740   3.577   2.316 -1.4583 -0.6468  1.3784
   14MOL   H117 2743   0.809   3.412   2.360 -0.3750 -0.6568 -0.0058
   14MOL   H118 2744   1.020   3.551   2.414  1.3379  0.1280 -0.3928
   14MOL   H119 2745   1.131   3.335   2.178  0.5256 -0.4804  1.0241
   14MOL   H120 2746   1.198   3.438   2.311  0.0518  1.8686  0.2326
   14MOL   H121 2747   1.074   3.324   2.341  0.8472 -0.4125  0.9735
   14MOL   C122 2748   0.940   3.718   2.284 -0.7518  0.7117 -0.4454
   14MOL   C123 2749   1.069   3.795   2.295  0.2236 -0.1272 -0.3166
   14MOL   O124 2750   1.062   3.905   2.203  0.7386 -0.2227 -0.0299
   14MOL   C125 2751   1.089   3.874   2.064 -0.0546  0.0776 -0.5380
   14MOL   H126 2752   0.865   3.766   2.347 -0.9963 -0.5473  0.2330
   14MOL   H127 2753   0.897   3.711   2.184  1.1925 -2.1281 -1.1346
   14MOL   H128 2754   1.150   3.725   2.271  0.9301 -0.0443  1.7540
   14MOL   H129 2755   1.161   3.937   2.011  1.0154 -0.2470  0.5071
   14MOL   H130 2756   1.130   3.775   2.047 -1.6861 -0.7844  0.3739
   14MOL   H131 2757   0.993   3.873   2.013 -0.5676 -1.4619  0.4364
   14MOL   C132 2758   1.081   3.847   2.433 -0.4120  0.3244  0.0775
   14MOL   C133 2759   1.217   3.907   2.474  0.6169 -0.5270  0.5663
   14MOL   O134 2760   1.209   4.043   2.427 -0.0957 -0.0941 -0.8026
   14MOL   C135 2761   1.327   4.123   2.432  0.3031 -0.1768  0.4723
   14MOL   H136 2762   1.047   3.771   2.503  0.1774 -0.1923 -0.1932
   14MOL   H137 2763   1.005   3.920   2.461 -1.1938  0.1732 -1.5565
   14MOL   H138 2764   1.307   3.865   2.428 -0.6812 -2.7916  0.0253
   14MOL   H139 2765   1.405   4.069   2.377 -0.5799 -0.4644 -0.5133
   14MOL   H140 2766   1.322   4.208   2.364  0.9260 -0.8890 -0.4819
   14MOL   H141 2767   1.365   4.147   2.531  0.7497  0.6485  0.1070
   14MOL   C142 2768   1.246   3.909   2.629 -0.3212  0.5289  0.4778
   14MOL   C143 2769   1.281   3.768   2.678 -0.0985 -0.0225  0.7757
   14MOL   O144 2770   1.376   3.702   2.600 -0.1324 -0.4753 -0.1789
   14MOL   C145 2771   1.328   3.591   2.518  0.2181  0.2544  0.2757
   14MOL   H146 2772   1.168   3.956   2.689 -3.9315 -1.3339 -2.5136
   14MOL   H147 2773   1.336   3.965   2.652  0.5770 -0.0622 -1.5104
   14MOL   H148 2774   1.192   3.705   2.681 -0.3793  0.2691 -0.7344
   14MOL   H149 2775   1.286   3.517   2.586  0.5629  0.7385  1.0258
   14MOL   H150 2776   1.250   3.629   2.452  0.1902  2.6525  1.6362
   14MOL   H151 2777   1.403   3.548   2.452  0.1419  1.0124 -0.3076
   14MOL   C152 2778   1.335   3.770   2.820  0.5171 -0.2158  0.3950
   14MOL   C153 2779   1.348   3.633   2.890  0.1074  0.3117 -0.2656
   14MOL   O154 2780   1.418   3.642   3.020  0.2277  0.5007 -0.0356
   14MOL   C155 2781   1.557   3.645   2.999  0.0833 -0.3700 -0.3581
   14MOL   H156 2782   1.260   3.827   2.875  2.5524  1.1017  1.8511
   14MOL   H157 2783   1.432   3.818   2.822  0.4178  0.1319 -1.7639
   14MOL   H158 2784   1.402   3.563   2.828  0.7826  0.5293  0.0731
   14MOL   H159 2785   1.598   3.640   3.100 -0.7705  0.5136  0.0485
   14MOL   H160 2786   1.602   3.563   2.944  1.5246 -0.4400  0.8970
   14MOL   H161 2787   1.583   3.737   2.946  1.1530  0.3392  1.3675
   14MOL   C162 2788   1.216   3.572   2.937 -0.0838 -0.0891 -0.0427
   14MOL   C163 2789   1.236   3.448   3.026 -0.2518 -0.2704 -0.5762
   14MOL   O164 2790   1.103   3.387   3.041  0.0939  0.4129  0.6297
   14MOL   C165 2791   1.020   3.442   3.145 -0.3915  0.2945 -0.0554
   14MOL   H166 2792   1.146   3.554   2.856 -0.6488 -0.8104  0.5957
   14MOL   H167 2793   1.159   3.645   2.994 -0.2685 -1.2631  1.2924
   14MOL   H168 2794   1.272   3.470   3.126 -1.7160  2.4317 -0.5863
   14MOL   H169 2795   0.918   3.404   3.143  1.1100 -3.9194 -2.4129
   14MOL   H170 2796   1.062   3.401   3.237  1.8851  3.6112  0.4723
   14MOL   H171 2797   1.033   3.550   3.157 -2.6361  0.6876 -0.9691
   14MOL   C172 2798   1.319   3.339   2.960 -0.6396  0.2029  0.1403
   14MOL   C173 2799   1.371   3.226   3.051 -0.0901 -0.4831 -0.0870
   14MOL   O174 2800   1.350   3.101   2.984 -0.0107  0.4373 -0.5306
   14MOL   C175 2801   1.235   3.027   3.017 -0.2089 -0.0142  0.1081
   14MOL   H176 2802   1.413   3.379   2.923  1.4189 -3.4821  1.0790
   14MOL   H177 2803   1.252   3.310   2.879 -2.3242  1.6013  1.0144
   14MOL   H178 2804   1.327   3.225   3.151  2.0221 -1.1209  0.8692
   14MOL   H179 2805   1.144   3.072   2.978  0.4198  1.2132  0.0122
   14MOL   H180 2806   1.234   2.927   2.973 -1.2044 -0.2200  0.5895
   14MOL   H181 2807   1.225   3.027   3.126 -0.4854  0.7813  0.0845
   14MOL   C182 2808   1.515   3.239   3.092 -0.6803 -0.2605  0.4199
   14MOL   C183 2809   1.568   3.123   3.185 -0.4296  0.3922 -0.0817
   14MOL   O184 2810   1.710   3.138   3.184 -0.1438 -0.4610 -0.0667
   14MOL   C185 2811   1.785   3.032   3.121  0.1342 -0.1419 -0.2207
   14MOL   H186 2812   1.527   3.326   3.158  3.2999 -0.8594  0.6485
   14MOL   H187 2813   1.576   3.261   3.005 -1.0562 -0.5329  0.0889
   14MOL   H188 2814   1.539   3.025   3.147 -1.7010  1.7794 -2.8287
   14MOL   H189 2815   1.757   3.020   3.016 -0.2035  0.1232 -0.1599
   14MOL   H190 2816   1.892   3.051   3.131  0.2781 -0.7376 -0.6105
   14MOL   H191 2817   1.767   2.944   3.183 -0.0939  0.6813  0.8891
   14MOL   C192 2818   1.505   3.111   3.325  0.1655 -0.2946  0.3343
   14MOL   C193 2819   1.514   2.976   3.395  0.4862  0.3976  0.5807
   14MOL   O194 2820   1.649   2.936   3.432  0.0519 -0.2094 -0.6101
   14MOL   C195 2821   1.715   3.015   3.527  0.3227 -0.2850 -0.1211
   14MOL   H196 2822   1.402   3.144   3.315  1.5646  3.7892 -1.4150
   14MOL   H197 2823   1.551   3.191   3.383 -0.2518 -0.7909  1.3698
   14MOL   H198 2824   1.467   2.900   3.334  0.3593  0.5086  0.5400
   14MOL   H199 2825   1.658   3.031   3.619  0.3154 -1.1360  0.0194
   14MOL   H200 2826   1.800   2.962   3.569  2.6528  2.9669 -0.5266
   14MOL   H201 2827   1.754   3.110   3.489 -3.3904  0.8223 -1.3601
   14MOL   H202 2828   1.466   2.998   3.490 -2.7287  0.9764 -1.1275
   15MOL     C1 2829   4.440   2.521   1.123  0.1453 -0.3873  0.1859
   15MOL     C2 2830   4.483   2.413   1.223 -0.1711 -0.2710  0.0611
   15MOL     O3 2831   4.615   2.412   1.268 -0.5380 -0.1577 -0.8198
   15MOL     C4 2832   4.710   2.354   1.186  0.7251 -0.2346 -0.2602
   15MOL     H5 2833   4.353   2.493   1.064  0.4272 -0.7359 -0.0667
   15MOL     H6 2834   4.432   2.617   1.173  2.1024  0.1432 -0.4593
   15MOL     H7 2835   4.474   2.328   1.155  0.7252  1.5466 -2.4077
   15MOL     H8 2836   4.810   2.382   1.218  0.2345 -0.6162  1.6414
   15MOL     H9 2837   4.703   2.246   1.202 -0.9047 -0.1268 -0.2235
   15MOL    H10 2838   4.699   2.382   1.081  1.9390  0.5842 -0.1851
   15MOL    H11 2839   4.524   2.550   1.060  1.5659 -1.5622  1.5083
   15MOL    C12 2840   4.388   2.407   1.344  0.0604 -0.7876  0.3684
   15MOL    C13 2841   4.407   2.293   1.449  0.2473  0.4119  0.3074
   15MOL    O14 2842   4.303   2.308   1.555  0.2580 -0.4653 -0.7309
   15MOL    C15 2843   4.367   2.353   1.679 -0.1841 -0.6910 -0.1765
   15MOL    H16 2844   4.283   2.423   1.320  0.5355 -0.3901 -1.5542
   15MOL    H17 2845   4.429   2.491   1.400  1.7266 -0.1140 -1.7744
   15MOL    H18 2846   4.504   2.309   1.496 -0.5643  0.3198  2.0396
   15MOL    H19 2847   4.423   2.446   1.675  3.3573 -2.7955 -1.2753
   15MOL    H20 2848   4.296   2.358   1.762  1.5357  0.0217  1.2713
   15MOL    H21 2849   4.436   2.270   1.699 -0.3805 -0.7086  0.4322
   15MOL    C22 2850   4.410   2.146   1.397 -0.0737 -0.0643  0.3858
   15MOL    C23 2851   4.278   2.094   1.327  0.3530 -0.1736 -0.2530
   15MOL    O24 2852   4.256   2.146   1.193  0.0235  0.0657  0.3062
   15MOL    C25 2853   4.128   2.197   1.176  0.0324  0.1356  0.4946
   15MOL    H26 2854   4.429   2.093   1.490 -0.0472  0.1755  0.5168
   15MOL    H27 2855   4.498   2.135   1.334 -0.2012  0.2208  0.1604
   15MOL    H28 2856   4.203   2.126   1.400  1.9213 -1.7881  2.1571
   15MOL    H29 2857   4.055   2.117   1.190 -0.4526  0.2075 -1.4698
   15MOL    H30 2858   4.095   2.279   1.240 -2.5724 -0.2441 -0.3054
   15MOL    H31 2859   4.117   2.235   1.075  1.8550 -0.8207 -0.0854
   15MOL    C32 2860   4.283   1.940   1.313  0.3664 -0.1917  0.2838
   15MOL    C33 2861   4.291   1.859   1.443 -0.1850 -0.0297  0.2614
   15MOL    O34 2862   4.175   1.897   1.518  0.0605  0.0577 -0.0817
   15MOL    C35 2863   4.209   1.904   1.657  0.3501  0.0532 -0.2778
   15MOL    H36 2864   4.354   1.911   1.237  1.5533  0.2618  1.2021
   15MOL    H37 2865   4.203   1.899   1.251  1.3148 -1.2128 -0.2663
   15MOL    H38 2866   4.387   1.887   1.485 -0.7593 -1.6058  2.7057
   15MOL    H39 2867   4.264   1.816   1.691 -1.0512 -0.9367 -0.5283
   15MOL    H40 2868   4.260   1.995   1.689 -0.9821  0.2376  1.3634
   15MOL    H41 2869   4.114   1.900   1.710  0.7767  0.0819  0.4981
   15MOL    C42 2870   4.262   1.711   1.418  0.6119 -0.1647 -0.3559
   15MOL    C43 2871   4.389   1.642   1.360  0.4496 -0.0007 -0.7687
   15MOL    O44 2872   4.469   1.594   1.468 -0.1990 -0.0880 -0.1858
   15MOL    C45 2873   4.610   1.584   1.436 -0.4387 -0.6913  0.2095
   15MOL    H46 2874   4.173   1.716   1.355  0.8989  0.2557 -0.7364
   15MOL    H47 2875   4.235   1.662   1.511  0.5858  2.0278  0.8468
   15MOL    H48 2876   4.446   1.707   1.294 -0.6148 -1.2636 -2.9767
   15MOL    H49 2877   4.674   1.574   1.524 -0.6640  0.3182  0.4988
   15MOL    H50 2878   4.628   1.498   1.371 -1.7928 -1.2203  0.5199
   15MOL    H51 2879   4.647   1.674   1.387 -1.2773  1.0563  2.6789
   15MOL    C52 2880   4.355   1.512   1.289  0.3891  0.0297  1.2319
   15MOL    C53 2881   4.327   1.528   1.137  0.4304 -0.3647  0.4409
   15MOL    O54 2882   4.449   1.561   1.069  0.4956 -0.1517 -0.2144
   15MOL    C55 2883   4.434   1.670   0.978 -0.5604 -0.6112  0.8080
   15MOL    H56 2884   4.268   1.464   1.335  0.4730 -1.2031  0.1485
   15MOL    H57 2885   4.430   1.435   1.306  2.4742  1.6131 -0.5238
   15MOL    H58 2886   4.252   1.607   1.127  1.6497  0.7946  0.3418
   15MOL    H59 2887   4.490   1.657   0.885 -1.7505  0.9432 -0.1421
   15MOL    H60 2888   4.331   1.677   0.943 -0.3596  0.0286  0.3425
   15MOL    H61 2889   4.471   1.767   1.011 -1.5708 -0.5629  1.8134
   15MOL    C62 2890   4.261   1.407   1.076 -0.3871 -0.7468 -0.5032
   15MOL    C63 2891   4.326   1.268   1.087  0.1028 -0.0104 -0.3751
   15MOL    O64 2892   4.246   1.174   1.023  0.4319 -0.2004  0.0762
   15MOL    C65 2893   4.140   1.126   1.095 -0.6356  0.0679  0.4675
   15MOL    H66 2894   4.246   1.425   0.969  0.1481  2.4352 -0.0941
   15MOL    H67 2895   4.164   1.409   1.126  0.0651 -0.3884  0.3578
   15MOL    H68 2896   4.319   1.246   1.193  0.3335  2.3077  0.1339
   15MOL    H69 2897   4.090   1.068   1.018  0.5864 -0.9439  0.4259
   15MOL    H70 2898   4.181   1.059   1.171  0.3981 -1.0568 -1.0525
   15MOL    H71 2899   4.063   1.197   1.128 -2.5531 -0.6448 -2.2898
   15MOL    C72 2900   4.469   1.262   1.048 -0.1391 -0.0724  0.0304
   15MOL    C73 2901   4.552   1.137   1.083 -0.3226  0.6087 -0.6759
   15MOL    O74 2902   4.675   1.132   1.006 -0.1100  0.8202  0.2765
   15MOL    C75 2903   4.667   1.095   0.869 -0.1107  0.1238 -0.7606
   15MOL    H76 2904   4.516   1.346   1.098 -2.3433 -0.6983  3.3334
   15MOL    H77 2905   4.479   1.261   0.940 -1.0263 -3.6216 -0.1073
   15MOL    H78 2906   4.494   1.048   1.059 -0.4391  1.2237 -2.7425
   15MOL    H79 2907   4.602   1.161   0.811 -1.3891 -0.3249  0.1237
   15MOL    H80 2908   4.761   1.094   0.815 -1.1562 -1.3076 -2.6362
   15MOL    H81 2909   4.633   0.991   0.861  3.1878 -1.0283 -0.4551
   15MOL    C82 2910   4.590   1.133   1.238 -0.0884  0.3862 -0.2236
   15MOL    C83 2911   4.674   1.009   1.276  0.0094 -0.0708  0.5113
   15MOL    O84 2912   4.720   1.019   1.411  0.2943 -0.0805 -0.1050
   15MOL    C85 2913   4.860   0.973   1.423  0.9359 -0.2297 -0.2567
   15MOL    H86 2914   4.497   1.130   1.294  0.2683 -0.1806  0.3369
   15MOL    H87 2915   4.651   1.220   1.263 -1.3164  0.8301  1.2930
   15MOL    H88 2916   4.761   1.007   1.210  0.0420 -2.7329  0.6040
   15MOL    H89 2917   4.886   0.998   1.526 -1.0088  0.0056  0.1939
   15MOL    H90 2918   4.856   0.866   1.408  0.5264 -0.0406 -1.5605
   15MOL    H91 2919   4.923   1.017   1.345 -3.4778  0.6717 -3.4999
   15MOL    C92 2920   4.609   0.869   1.251 -0.7691 -0.5094  0.5587
   15MOL    C93 2921   4.662   0.793   1.127  0.3417 -0.0782 -0.6248
   15MOL    O94 2922   4.794   0.748   1.184  0.4648  0.0126 -0.4225
   15MOL    C95 2923   4.892   0.740   1.081 -0.5983  0.4408 -0.3525
   15MOL    H96 2924   4.502   0.884   1.236 -0.9340 -3.1322 -1.3048
   15MOL    H97 2925   4.620   0.802   1.337  0.2915  0.9851  1.6138
   15MOL    H98 2926   4.675   0.863   1.046  2.7402  0.0423 -0.1689
   15MOL    H99 2927   4.987   0.702   1.119  0.6513  3.2827 -0.5133
   15MOL   H100 2928   4.859   0.681   0.996 -1.1507  0.4052 -0.1141
   15MOL   H101 2929   4.913   0.841   1.044  1.4250  0.3236  0.4092
   15MOL   C102 2930   4.584   0.669   1.084 -0.4631 -0.1310 -0.6222
   15MOL   C103 2931   4.446   0.706   1.010 -0.5896 -0.3547 -0.2240
   15MOL   O104 2932   4.478   0.760   0.881 -0.3172  0.0588 -0.5508
   15MOL   C105 2933   4.386   0.858   0.820 -0.1270  0.3779 -0.5085
   15MOL   H106 2934   4.565   0.603   1.169  1.6453  1.1442  0.8944
   15MOL   H107 2935   4.648   0.615   1.015  1.2812  1.9530 -0.6872
   15MOL   H108 2936   4.402   0.786   1.069  0.2004  0.0336 -0.1605
   15MOL   H109 2937   4.283   0.833   0.847  1.0223 -2.4791  1.5533
   15MOL   H110 2938   4.390   0.957   0.865 -4.8974  0.5668 -0.2341
   15MOL   H111 2939   4.407   0.855   0.713 -0.4447  1.0719 -0.5927
   15MOL   C112 2940   4.348   0.586   0.989  0.2837 -0.1966 -0.3003
   15MOL   C113 2941   4.417   0.470   0.912 -0.5901  0.2593 -0.3829
   15MOL   O114 2942   4.348   0.348   0.932 -0.4008  0.0918  0.2003
   15MOL   C115 2943   4.359   0.270   1.043  0.3936  0.5307 -0.9459
   15MOL   H116 2944   4.266   0.610   0.921 -0.4453  0.3420  0.7578
   15MOL   H117 2945   4.313   0.546   1.083 -0.6883  0.1027 -0.5221
   15MOL   H118 2946   4.517   0.459   0.955 -0.8035  0.0218  0.0633
   15MOL   H119 2947   4.349   0.323   1.138  1.0453  1.1638 -1.2303
   15MOL   H120 2948   4.284   0.193   1.024 -1.2038  2.1905 -1.5669
   15MOL   H121 2949   4.457   0.224   1.041  1.0834  2.0127 -2.1757
   15MOL   C122 2950   4.418   0.477   0.756 -0.2904 -0.1184 -0.4512
   15MOL   C123 2951   4.461   0.344   0.682  0.0606 -0.4123  0.0944
   15MOL   O124 2952   4.471   0.356   0.545  0.4590 -0.4072  0.3587
   15MOL   C125 2953   4.341   0.358   0.481  0.0292 -0.1072 -0.8195
   15MOL   H126 2954   4.495   0.550   0.730  2.4244 -3.0715 -0.9419
   15MOL   H127 2955   4.327   0.528   0.725 -0.6897 -0.6723 -0.1993
   15MOL   H128 2956   4.385   0.271   0.709 -0.6716 -0.6515 -2.5228
   15MOL   H129 2957   4.285   0.267   0.500  2.4356 -1.3588  0.5713
   15MOL   H130 2958   4.286   0.451   0.498  0.3653 -0.2359  1.0615
   15MOL   H131 2959   4.364   0.343   0.375  1.5729  1.0928 -0.6771
   15MOL   C132 2960   4.592   0.276   0.736  0.4787  0.1556  0.3769
   15MOL   C133 2961   4.716   0.367   0.749  0.0692 -1.1529  0.3739
   15MOL   O134 2962   4.815   0.286   0.811  0.5134  0.2075 -0.1252
   15MOL   C135 2963   4.863   0.350   0.931 -0.4542 -0.0533 -0.5583
   15MOL   H136 2964   4.604   0.189   0.671  1.7276 -0.0301  0.8572
   15MOL   H137 2965   4.567   0.254   0.839  0.3218  3.5075  1.1183
   15MOL   H138 2966   4.704   0.456   0.810 -0.9440  0.0442 -1.5140
   15MOL   H139 2967   4.906   0.449   0.914 -1.4599  0.4316 -0.3295
   15MOL   H140 2968   4.778   0.373   0.995 -0.6211  0.6568 -1.0314
   15MOL   H141 2969   4.933   0.292   0.992  0.9310  1.2069 -0.9271
   15MOL   C142 2970   4.770   0.421   0.612  0.0274 -0.0311 -0.0341
   15MOL   C143 2971   4.866   0.539   0.620 -0.0374 -0.1271  0.2810
   15MOL   O144 2972   4.925   0.556   0.493 -0.1051 -0.1526  0.8852
   15MOL   C145 2973   5.050   0.491   0.471  0.4071 -0.2932  0.3883
   15MOL   H146 2974   4.691   0.462   0.550 -2.0625 -0.7769  2.0663
   15MOL   H147 2975   4.809   0.344   0.546  1.7941  1.7079 -1.0661
   15MOL   H148 2976   4.943   0.510   0.692 -0.6622 -0.5200  0.7930
   15MOL   H149 2977   5.081   0.556   0.389 -0.0506  0.0019  0.4511
   15MOL   H150 2978   5.121   0.490   0.555 -1.0611  0.7727  1.6669
   15MOL   H151 2979   5.040   0.391   0.429 -2.0088 -0.1266  0.5238
   15MOL   C152 2980   4.802   0.675   0.669 -0.2695 -0.7854  0.7600
   15MOL   C153 2981   4.885   0.803   0.671 -0.0139 -0.1424  0.7653
   15MOL   O154 2982   5.007   0.768   0.743 -0.2454  0.3599 -0.2307
   15MOL   C155 2983   5.072   0.871   0.809 -0.2570  0.2264 -1.6461
   15MOL   H156 2984   4.773   0.657   0.772 -0.7378 -0.2334  0.7251
   15MOL   H157 2985   4.704   0.691   0.623 -0.1543  2.9314  1.6586
   15MOL   H158 2986   4.828   0.876   0.728  2.4001  2.3010  0.1428
   15MOL   H159 2987   5.169   0.838   0.847 -0.2948 -1.2610 -2.7904
   15MOL   H160 2988   5.092   0.961   0.751 -0.3538  0.8395 -0.7499
   15MOL   H161 2989   5.015   0.920   0.888  1.7637 -0.5509  0.3325
   15MOL   C162 2990   4.915   0.867   0.535  0.6570 -0.3954  0.5597
   15MOL   C163 2991   4.795   0.905   0.446 -0.2239 -0.0257  0.0523
   15MOL   O164 2992   4.712   0.989   0.518 -0.0105  0.0442  0.2184
   15MOL   C165 2993   4.572   0.978   0.479 -0.3002  0.2774 -0.2721
   15MOL   H166 2994   4.972   0.797   0.474  0.3992 -0.2123  0.1078
   15MOL   H167 2995   4.985   0.948   0.552 -0.6610  1.0249 -0.6464
   15MOL   H168 2996   4.740   0.811   0.434  0.0878 -0.2322  0.2400
   15MOL   H169 2997   4.524   1.030   0.562 -0.8224 -1.1496  0.3189
   15MOL   H170 2998   4.550   1.033   0.387 -0.5907  0.8391  0.1252
   15MOL   H171 2999   4.531   0.878   0.480  1.3190 -0.4740 -3.2211
   15MOL   C172 3000   4.828   0.976   0.319 -0.4081  0.2598  0.3265
   15MOL   C173 3001   4.803   0.881   0.198  0.2871 -0.0754 -0.0359
   15MOL   O174 3002   4.663   0.848   0.186 -0.3174  0.1691 -0.3170
   15MOL   C175 3003   4.636   0.709   0.172 -0.2863  0.3235  0.0580
   15MOL   H176 3004   4.934   1.005   0.324 -0.9183  2.4054 -0.8298
   15MOL   H177 3005   4.778   1.073   0.323 -4.1306 -1.5440 -0.6498
   15MOL   H178 3006   4.859   0.791   0.225  2.7416  1.7949  1.3129
   15MOL   H179 3007   4.701   0.667   0.095  0.6850  1.2411  0.3585
   15MOL   H180 3008   4.651   0.660   0.268 -0.9309 -0.5073 -0.2606
   15MOL   H181 3009   4.529   0.698   0.154 -0.3312  1.2649 -0.2926
   15MOL   C182 3010   4.868   0.932   0.065  0.3979 -0.2837  0.0117
   15MOL   C183 3011   4.799   1.052   0.006 -0.0502  0.4518 -0.2658
   15MOL   O184 3012   4.860   1.168   0.064  0.1858  0.4496 -0.4932
   15MOL   C185 3013   4.778   1.282   0.078 -0.4842  0.1815  0.4535
   15MOL   H186 3014   4.880   0.844   0.001  0.4157 -0.2701 -0.0038
   15MOL   H187 3015   4.974   0.952   0.082  0.7145 -0.7597 -1.3012
   15MOL   H188 3016   4.696   1.047   0.041 -0.0471  0.4082 -0.2631
   15MOL   H189 3017   4.833   1.360   0.130  0.0683  0.5313 -0.6448
   15MOL   H190 3018   4.735   1.320   7.795  0.9990 -0.7606 -0.6296
   15MOL   H191 3019   4.694   1.251   0.140  0.1298 -3.7883 -0.5587
   15MOL   C192 3020   4.819   1.057   7.670 -0.5610 -0.0681 -0.2977
   15MOL   C193 3021   4.704   1.000   7.590  0.1527  0.4508 -0.1108
   15MOL   O194 3022   4.733   0.857   7.571 -0.3401 -0.2620  0.1319
   15MOL   C195 3023   4.622   0.794   7.512 -0.9324 -0.6300  0.6108
   15MOL   H196 3024   4.911   1.005   7.646 -0.1097  0.7447 -0.3303
   15MOL   H197 3025   4.832   1.158   7.633 -1.3521  0.6475  1.2965
   15MOL   H198 3026   4.706   1.037   7.488 -2.0941 -2.1733 -1.1647
   15MOL   H199 3027   4.624   0.686   7.516  0.0530 -0.7841 -2.4772
   15MOL   H200 3028   4.522   0.810   7.552 -0.6879 -0.3496  1.1131
   15MOL   H201 3029   4.617   0.820   7.406 -0.4685 -1.4422  0.3928
   15MOL   H202 3030   4.608   1.021   7.637  0.5362  1.5716  0.1846
   16MOL     C1 3031   2.076   0.497   5.761  0.0309 -0.1165 -0.6034
   16MOL     C2 3032   2.127   0.485   5.906  0.8358 -0.6325 -0.0321
   16MOL     O3 3033   2.073   0.599   5.971 -0.1526 -0.0482  0.0259
   16MOL     C4 3034   2.169   0.661   6.062  0.5601  0.0222  0.5187
   16MOL     H5 3035   2.130   0.423   5.702 -1.6748 -0.6842 -1.4845
   16MOL     H6 3036   1.968   0.485   5.764  0.1815 -2.0119 -1.7368
   16MOL     H7 3037   2.236   0.481   5.918  0.7566 -0.7782  0.6793
   16MOL     H8 3038   2.238   0.720   6.001  1.9678 -0.8630  1.2122
   16MOL     H9 3039   2.110   0.719   6.133  1.2922  0.4237  0.8143
   16MOL    H10 3040   2.220   0.592   6.130 -0.0030  2.0011  3.0514
   16MOL    H11 3041   2.102   0.595   5.720  1.1148 -0.3814 -0.5682
   16MOL    C12 3042   2.084   0.352   5.971 -0.4532  0.1782  0.5933
   16MOL    C13 3043   2.142   0.224   5.905  0.0208  0.5576  0.3048
   16MOL    O14 3044   2.288   0.239   5.896 -0.2935  0.1857 -0.1861
   16MOL    C15 3045   2.345   0.178   5.788 -0.5743  0.3898  0.9923
   16MOL    H16 3046   1.976   0.341   5.961 -0.1784 -1.4380 -1.0139
   16MOL    H17 3047   2.112   0.354   6.076 -4.0164  1.0830  1.5845
   16MOL    H18 3048   2.098   0.209   5.806  0.1883  2.8771 -0.1645
   16MOL    H19 3049   2.315   0.225   5.694  0.0059 -1.2564 -0.0511
   16MOL    H20 3050   2.454   0.182   5.789 -0.4963 -0.5776 -0.7801
   16MOL    H21 3051   2.321   0.073   5.768  1.3771 -0.0769  0.9646
   16MOL    C22 3052   2.124   0.098   5.988  0.4683 -0.3575 -0.5188
   16MOL    C23 3053   1.992   0.034   5.973  0.4578  0.7175  0.0890
   16MOL    O24 3054   1.984   7.788   5.842 -0.3363  0.2578  0.1938
   16MOL    C25 3055   2.034   7.657   5.823  0.4567  0.2451 -0.4623
   16MOL    H26 3056   2.137   0.127   6.092 -0.0354  1.0581 -0.8453
   16MOL    H27 3057   2.194   0.015   5.974  2.5216  1.0100  1.3187
   16MOL    H28 3058   1.906   0.100   5.963  0.8146  1.4888  1.8743
   16MOL    H29 3059   2.137   7.633   5.849  0.1409  1.3859  1.9861
   16MOL    H30 3060   1.987   7.574   5.878  0.7734  0.6107  0.3702
   16MOL    H31 3061   2.021   7.641   5.716 -0.3985 -1.9269 -0.0595
   16MOL    C32 3062   1.948   7.744   6.084  0.2862  0.5355  0.4310
   16MOL    C33 3063   1.798   7.708   6.083 -0.1581 -0.4454  0.8044
   16MOL    O34 3064   1.774   7.588   6.165  0.4568  0.1450 -0.4280
   16MOL    C35 3065   1.803   7.466   6.092 -0.1543 -0.2304 -0.1489
   16MOL    H36 3066   1.968   7.785   6.183  1.2332  0.2211  0.3780
   16MOL    H37 3067   2.000   7.648   6.080  1.1646  1.0024  0.5055
   16MOL    H38 3068   1.769   7.697   5.979 -0.6501  2.2245  0.6288
   16MOL    H39 3069   1.734   7.445   6.010  1.7408 -1.4880 -1.4784
   16MOL    H40 3070   1.905   7.470   6.053  0.6235 -0.8315  1.8004
   16MOL    H41 3071   1.793   7.380   6.158 -3.1131  0.0671 -0.1389
   16MOL    C42 3072   1.719   0.020   6.143 -0.4629 -0.6425 -0.1361
   16MOL    C43 3073   1.567   0.010   6.152  0.2751  0.1977  0.5314
   16MOL    O44 3074   1.523   0.141   6.196  0.3011 -0.2634 -0.3814
   16MOL    C45 3075   1.516   0.160   6.333 -0.1645 -0.6227 -0.3636
   16MOL    H46 3076   1.735   0.115   6.091 -0.5085 -1.0646 -0.9332
   16MOL    H47 3077   1.762   0.043   6.240  0.4771 -1.2697 -0.4082
   16MOL    H48 3078   1.541   7.746   6.227  0.9981  0.8000  1.3884
   16MOL    H49 3079   1.480   0.260   6.356  1.8467  0.4701 -1.7938
   16MOL    H50 3080   1.454   0.094   6.393 -0.0997 -1.8398 -1.5981
   16MOL    H51 3081   1.613   0.157   6.383  0.1269 -3.8708 -1.0211
   16MOL    C52 3082   1.505   7.773   6.025  0.3062  0.0801 -0.3038
   16MOL    C53 3083   1.359   0.008   6.010 -0.4834  0.6676  0.9996
   16MOL    O54 3084   1.321   7.785   5.876  0.2044 -0.0123 -0.0154
   16MOL    C55 3085   1.317   0.096   5.797 -0.0028  0.8458  0.3903
   16MOL    H56 3086   1.514   7.666   6.010 -0.8382  0.1613 -1.6546
   16MOL    H57 3087   1.555   0.004   5.937 -1.2068  1.7045 -0.4393
   16MOL    H58 3088   1.356   0.117   6.014 -0.9753  0.7803 -1.7135
   16MOL    H59 3089   1.237   0.157   5.838 -0.4347  0.7424 -0.2860
   16MOL    H60 3090   1.405   0.160   5.800  0.3978  0.2596  1.4100
   16MOL    H61 3091   1.304   0.072   5.691 -1.7014 -0.2654  0.8334
   16MOL    C62 3092   1.254   7.751   6.100  1.1416  0.5108 -0.1615
   16MOL    C63 3093   1.116   0.008   6.116 -0.0526 -0.4846  0.8638
   16MOL    O64 3094   1.027   7.735   6.183  0.0648  0.6287  0.5029
   16MOL    C65 3095   0.960   7.645   6.103 -0.2054  0.1996 -0.0250
   16MOL    H66 3096   1.304   7.748   6.197 -0.0681  0.1241  0.4653
   16MOL    H67 3097   1.233   7.651   6.062 -0.1905  0.3639  0.9398
   16MOL    H68 3098   1.082   0.033   6.015  1.4291 -0.0430  0.4612
   16MOL    H69 3099   0.882   7.585   6.149  2.3109 -0.6365  3.3612
   16MOL    H70 3100   0.924   7.693   6.012  3.3864  1.2340 -1.0047
   16MOL    H71 3101   1.034   7.571   6.073  0.7529  1.1191  0.0374
   16MOL    C72 3102   1.120   0.146   6.182  0.2596 -0.1035 -0.4188
   16MOL    C73 3103   0.986   0.218   6.209 -0.8031 -0.1020  0.1831
   16MOL    O74 3104   0.991   0.352   6.264 -0.0415 -0.0024 -0.9807
   16MOL    C75 3105   1.026   0.352   6.404 -0.1813 -0.0705 -0.0096
   16MOL    H76 3106   1.184   0.221   6.136 -0.6814  1.2197  0.3981
   16MOL    H77 3107   1.165   0.129   6.280  0.5422  1.9348 -0.1674
   16MOL    H78 3108   0.923   0.163   6.279 -0.8078  0.5360  0.6827
   16MOL    H79 3109   1.121   0.299   6.415 -1.2848 -2.7396 -2.4341
   16MOL    H80 3110   1.043   0.453   6.439  1.4837 -0.5902  0.7282
   16MOL    H81 3111   0.947   0.301   6.459 -0.9155  1.1835  0.0925
   16MOL    C82 3112   0.906   0.219   6.077  0.3692  0.3205  0.3384
   16MOL    C83 3113   0.769   0.283   6.095 -0.2361 -0.0288 -0.1454
   16MOL    O84 3114   0.705   0.300   5.970  0.2264  0.3330 -0.0144
   16MOL    C85 3115   0.729   0.431   5.915 -0.7780  0.0955  0.0924
   16MOL    H86 3116   0.896   0.121   6.030  0.1303  1.2836 -1.6804
   16MOL    H87 3117   0.964   0.276   6.006  1.1570 -1.0324 -0.1190
   16MOL    H88 3118   0.775   0.379   6.147  1.7398 -2.1061  3.6349
   16MOL    H89 3119   0.834   0.459   5.924 -0.4989 -0.8776 -0.0934
   16MOL    H90 3120   0.705   0.416   5.810  1.9016 -1.2118 -0.3542
   16MOL    H91 3121   0.663   0.507   5.959  1.3605  1.4587  1.0463
   16MOL    C92 3122   0.668   0.206   6.184  0.0490  0.3645 -0.6884
   16MOL    C93 3123   0.526   0.268   6.206 -0.2738 -0.2713 -0.0743
   16MOL    O94 3124   0.465   0.184   6.304 -0.0061 -0.3686  0.0712
   16MOL    C95 3125   0.374   0.088   6.249 -0.0998 -0.1643  0.0364
   16MOL    H96 3126   0.711   0.174   6.278  0.2801 -0.1498 -0.9657
   16MOL    H97 3127   0.657   0.111   6.132 -0.9637  0.3208 -0.4019
   16MOL    H98 3128   0.480   0.270   6.107  1.1666  1.2908 -0.7374
   16MOL    H99 3129   0.335   0.033   6.335 -0.2306 -1.0159 -0.5681
   16MOL   H100 3130   0.289   0.132   6.196 -0.6849  0.2121  1.2713
   16MOL   H101 3131   0.445   0.023   6.198 -1.3607 -3.0040  1.8112
   16MOL   C102 3132   0.520   0.411   6.264  0.1200  0.2136  0.1703
   16MOL   C103 3133   0.381   0.465   6.290  0.0116 -0.3272 -0.0881
   16MOL   O104 3134   0.386   0.591   6.357  0.3989 -0.0712 -0.0976
   16MOL   C105 3135   0.389   0.588   6.503 -0.3775 -0.7864 -0.6806
   16MOL   H106 3136   0.594   0.473   6.212 -0.0703  0.0732 -0.2728
   16MOL   H107 3137   0.568   0.408   6.361 -1.6544 -1.0150  1.0287
   16MOL   H108 3138   0.319   0.394   6.344  0.0053 -0.9816 -0.9416
   16MOL   H109 3139   0.485   0.547   6.534 -1.0580 -1.7095  0.2171
   16MOL   H110 3140   0.375   0.689   6.543 -2.7133 -1.3301 -0.0485
   16MOL   H111 3141   0.318   0.515   6.542 -0.8692 -0.0766 -0.2380
   16MOL   C112 3142   0.288   0.497   6.166 -0.2462 -0.4519  0.2079
   16MOL   C113 3143   0.140   0.536   6.194 -0.1739 -0.1398  0.0172
   16MOL   O114 3144   0.102   0.612   6.076  0.3574 -0.2458  0.2331
   16MOL   C115 3145   0.098   0.747   6.113  0.1393 -0.9655 -0.0340
   16MOL   H116 3146   0.300   0.408   6.103 -1.0108 -2.4573  2.7870
   16MOL   H117 3147   0.335   0.581   6.116  1.6259 -0.9816  1.0363
   16MOL   H118 3148   0.132   0.595   6.286  0.2885 -2.4032  1.5415
   16MOL   H119 3149   0.085   0.805   6.022 -1.2489 -0.4968  0.4488
   16MOL   H120 3150   0.007   0.781   6.163  0.4106  2.6245 -1.8143
   16MOL   H121 3151   0.186   0.783   6.166  0.1589 -1.3103  0.1719
   16MOL   C122 3152   0.040   0.420   6.198 -0.1696  0.1716 -0.4679
   16MOL   C123 3153   7.710   0.459   6.254 -0.2280 -0.1878 -0.1868
   16MOL   O124 3154   7.600   0.416   6.167  0.5525  0.8388  0.2857
   16MOL   C125 3155   7.559   0.527   6.083  0.3188  0.3111  0.0757
   16MOL   H126 3156   0.083   0.339   6.256 -0.0012 -0.7239 -1.8325
   16MOL   H127 3157   0.022   0.377   6.099  1.8441 -0.2296 -0.6698
   16MOL   H128 3158   7.701   0.566   6.271  0.4329 -0.1958  0.2279
   16MOL   H129 3159   7.653   0.558   6.037  0.3803 -2.3027 -1.6508
   16MOL   H130 3160   7.504   0.494   5.994  0.2023  1.5730 -0.3302
   16MOL   H131 3161   7.510   0.604   6.143 -0.4872  1.3918 -1.9130
   16MOL   C132 3162   7.690   0.379   6.385 -0.0860 -0.3315  0.2055
   16MOL   C133 3163   7.772   0.428   6.505  0.9312  0.6118  0.3213
   16MOL   O134 3164   7.733   0.563   6.541  0.1487 -0.0300  0.6773
   16MOL   C135 3165   0.027   0.650   6.568  0.3116  0.3305 -0.3117
   16MOL   H136 3166   7.690   0.270   6.373 -2.7874 -0.4185  0.6718
   16MOL   H137 3167   7.587   0.408   6.405 -0.1437 -0.8975  0.7472
   16MOL   H138 3168   0.068   0.424   6.483  0.6943 -0.4271 -0.7179
   16MOL   H139 3169   0.074   0.689   6.477  1.9274 -0.6500  0.0881
   16MOL   H140 3170   7.789   0.733   6.620 -1.9934  0.0707 -1.9602
   16MOL   H141 3171   0.103   0.605   6.631 -1.1195  0.4534  1.5277
   16MOL   C142 3172   7.739   0.344   6.628 -0.2184  0.3062 -0.1282
   16MOL   C143 3173   7.801   0.204   6.637 -0.1094  0.0562 -0.2011
   16MOL   O144 3174   0.131   0.228   6.645 -0.9185  0.6056  0.3477
   16MOL   C145 3175   0.209   0.164   6.547 -0.0088  0.1859  0.6320
   16MOL   H146 3176   7.632   0.338   6.647 -0.4066  0.9175 -0.9723
   16MOL   H147 3177   7.782   0.397   6.713 -0.2763  0.2706 -0.0765
   16MOL   H148 3178   7.776   0.153   6.544 -1.1912 -1.0262  0.6631
   16MOL   H149 3179   0.195   0.056   6.535  0.0938 -0.0475  2.5468
   16MOL   H150 3180   0.187   0.230   6.463 -0.3494  1.6211  1.8307
   16MOL   H151 3181   0.313   0.181   6.572  1.1116 -3.0277 -1.5492
   16MOL   C152 3182   7.752   0.120   6.759  0.1666  0.1194  0.0792
   16MOL   C153 3183   0.001   7.788   6.767 -0.7424  0.3567 -0.0636
   16MOL   O154 3184   7.796   7.733   6.902 -0.2943  0.5461  0.2489
   16MOL   C155 3185   0.071   7.780   7.005  0.0949  0.1800  0.2121
   16MOL   H156 3186   7.643   0.121   6.756  0.1677 -1.4285 -1.2660
   16MOL   H157 3187   7.776   0.179   6.847 -2.0700 -1.0417  1.5139
   16MOL   H158 3188   0.105   7.782   6.735 -0.9862  0.0757 -0.8161
   16MOL   H159 3189   0.178   7.771   6.986  0.0337 -0.0155 -0.0356
   16MOL   H160 3190   0.045   0.072   7.032  1.6990  0.2850  1.4471
   16MOL   H161 3191   0.065   7.707   7.086 -0.1470  1.0743  1.0229
   16MOL   C162 3192   7.735   7.694   6.676  0.2155 -1.0929  0.7233
   16MOL   C163 3193   7.794   7.554   6.655 -0.0439 -0.2465 -0.2341
   16MOL   O164 3194   7.684   7.466   6.619 -0.6625  0.1434 -0.0561
   16MOL   C165 3195   7.718   7.332   6.659  0.1915  0.6401 -0.0778
   16MOL   H166 3196   7.722   7.746   6.580  0.3061  0.3045  1.4548
   16MOL   H167 3197   7.635   7.684   6.718 -0.1372  1.2843  0.5607
   16MOL   H168 3198   0.014   7.519   6.754  1.1161 -0.0707 -0.5334
   16MOL   H169 3199   7.721   7.312   6.766 -0.8724 -1.4699 -0.4183
   16MOL   H170 3200   7.636   7.264   6.636  1.7696 -1.8083  1.3810
   16MOL   H171 3201   7.802   7.290   6.604  0.3718  0.6520  0.1910
   16MOL   C172 3202   0.107   7.547   6.567 -0.5984  0.2283 -0.1296
   16MOL   C173 3203   0.087   7.563   6.417 -0.0699  0.0336 -1.0923
   16MOL   O174 3204   0.061   7.703   6.396  0.9735 -0.1293  0.2175
   16MOL   C175 3205   7.795   7.738   6.282  0.3944 -0.5553  0.0979
   16MOL   H176 3206   0.148   7.448   6.585  0.0673  0.6063  0.4730
   16MOL   H177 3207   0.178   7.618   6.610 -2.5066  1.7164  0.6553
   16MOL   H178 3208   7.810   7.502   6.396 -0.7009  1.2186 -1.9153
   16MOL   H179 3209   7.697   7.772   6.316 -0.2851 -0.7188 -1.6306
   16MOL   H180 3210   0.020   0.020   6.235  0.3132 -0.8019 -0.4576
   16MOL   H181 3211   7.787   7.655   6.212 -1.7772 -1.0341  0.9041
   16MOL   C182 3212   0.196   7.517   6.320  0.4132  0.4694  0.1152
   16MOL   C183 3213   0.216   7.363   6.300  0.3862 -0.0908 -0.5906
   16MOL   O184 3214   0.105   7.336   6.226  0.3872  0.4591 -0.0738
   16MOL   C185 3215   0.049   7.205   6.248 -0.7118 -0.9843 -0.3375
   16MOL   H186 3216   0.292   7.549   6.362  0.3267 -2.0959  2.4058
   16MOL   H187 3217   0.190   7.566   6.223  0.9446  0.4886  0.0899
   16MOL   H188 3218   0.199   7.315   6.397  0.0952 -0.4446 -0.8162
   16MOL   H189 3219   0.120   7.123   6.260  0.5885  0.0968 -0.5210
   16MOL   H190 3220   7.804   7.198   6.341 -2.5705 -2.1147 -1.5207
   16MOL   H191 3221   7.790   7.185   6.167 -0.6322 -0.7810 -0.4560
   16MOL   C192 3222   0.346   7.316   6.233  0.6353 -0.5289  0.0599
   16MOL   C193 3223   0.375   7.397   6.108  0.1100  0.5520  0.5936
   16MOL   O194 3224   0.473   7.322   6.039  0.3438  0.8529 -0.5815
   16MOL   C195 3225   0.515   7.389   5.919 -0.6572  0.2587 -0.8387
   16MOL   H196 3226   0.345   7.208   6.216 -0.3505 -0.6825  1.0574
   16MOL   H197 3227   0.430   7.334   6.300 -1.0160  3.3646  1.2019
   16MOL   H198 3228   0.392   7.503   6.130 -1.0599  0.8714  0.0080
   16MOL   H199 3229   0.570   7.317   5.859  1.7848  2.0718 -0.8817
   16MOL   H200 3230   0.429   7.423   5.862 -0.4992  0.4063 -0.9910
   16MOL   H201 3231   0.575   7.475   5.950 -1.4232  1.1790 -1.8955
   16MOL   H202 3232   0.290   7.403   6.040 -0.4289 -0.4734  1.1646
   17MOL     C1 3233   2.343   6.179   4.775  0.4374 -0.0501 -0.2771
   17MOL     C2 3234   2.235   6.121   4.865  0.7580  0.0581 -0.2748
   17MOL     O3 3235   2.148   6.035   4.783 -1.3173  0.1414 -0.5723
   17MOL     C4 3236   2.012   6.032   4.830 -0.8058 -0.0071 -0.4535
   17MOL     H5 3237   2.298   6.218   4.684 -2.7159  0.4719  1.4393
   17MOL     H6 3238   2.399   6.257   4.825 -0.4753 -0.5928  1.6090
   17MOL     H7 3239   2.172   6.206   4.893  0.9097 -0.6544  2.3185
   17MOL     H8 3240   1.959   6.120   4.796 -0.6881  0.6112  0.9335
   17MOL     H9 3241   1.970   5.939   4.792  0.3914 -0.7676  0.0423
   17MOL    H10 3242   2.002   6.009   4.937  1.2744  0.9557 -0.0370
   17MOL    H11 3243   2.412   6.102   4.740  0.7379  0.8229 -1.6403
   17MOL    C12 3244   2.280   6.036   4.984  0.1986 -0.6211 -0.1869
   17MOL    C13 3245   2.366   6.111   5.092  0.3611 -0.1705 -0.8522
   17MOL    O14 3246   2.482   6.170   5.042  0.4321 -0.8647  0.0198
   17MOL    C15 3247   2.595   6.191   5.122 -0.1856  0.1007  0.3156
   17MOL    H16 3248   2.342   5.956   4.943 -0.2654 -0.7541 -0.6366
   17MOL    H17 3249   2.202   5.977   5.032 -1.2701  1.2431 -0.2326
   17MOL    H18 3250   2.385   6.032   5.165 -0.6505  1.2403  0.9801
   17MOL    H19 3251   2.585   6.125   5.209 -2.5411 -1.1429 -0.8620
   17MOL    H20 3252   2.680   6.153   5.066 -1.1110 -1.0093 -0.3410
   17MOL    H21 3253   2.604   6.294   5.158 -0.4589  0.0548  0.5205
   17MOL    C22 3254   2.289   6.224   5.167 -0.1391  0.5082  0.0005
   17MOL    C23 3255   2.172   6.181   5.256 -0.5833  0.1632  0.3293
   17MOL    O24 3256   2.078   6.124   5.168 -0.4608 -0.0902 -0.3864
   17MOL    C25 3257   1.945   6.116   5.203  0.4941  0.0958  0.7389
   17MOL    H26 3258   2.263   6.297   5.090  1.5328  1.5338  0.4015
   17MOL    H27 3259   2.348   6.293   5.227 -0.3255 -2.5679  3.9454
   17MOL    H28 3260   2.134   6.275   5.296  0.3406 -0.4771  2.8106
   17MOL    H29 3261   1.907   6.216   5.221 -0.9812 -0.6104  1.6853
   17MOL    H30 3262   1.887   6.078   5.119  0.6643  1.2900  0.0752
   17MOL    H31 3263   1.926   6.060   5.295  0.0360 -1.6466 -0.3771
   17MOL    C32 3264   2.207   6.076   5.368 -0.3285 -0.2379  0.1300
   17MOL    C33 3265   2.300   6.135   5.479 -0.3990 -0.2302 -0.2244
   17MOL    O34 3266   2.236   6.248   5.535  0.8295  0.1018  0.9104
   17MOL    C35 3267   2.319   6.350   5.587  0.1885 -0.1679 -0.6163
   17MOL    H36 3268   2.251   5.984   5.328 -0.6740  0.1661 -1.1981
   17MOL    H37 3269   2.112   6.041   5.408 -0.9084 -0.1606 -1.1605
   17MOL    H38 3270   2.397   6.166   5.441  0.0418  1.3201  2.0413
   17MOL    H39 3271   2.258   6.430   5.627 -0.6747 -1.7969  1.3945
   17MOL    H40 3272   2.393   6.316   5.659  2.1939  2.9107 -1.1242
   17MOL    H41 3273   2.373   6.392   5.502  1.1062  0.6815  0.3736
   17MOL    C42 3274   2.337   6.037   5.592 -0.4509 -0.2705  0.2859
   17MOL    C43 3275   2.441   5.926   5.545 -0.1777 -0.3263 -0.9207
   17MOL    O44 3276   2.558   5.948   5.633 -0.2848 -0.0555 -0.0540
   17MOL    C45 3277   2.650   6.039   5.573  0.0537 -0.7252  0.4896
   17MOL    H46 3278   2.249   5.987   5.633 -1.7608  3.0007  1.6421
   17MOL    H47 3279   2.372   6.103   5.671  1.5489  0.4509 -1.1670
   17MOL    H48 3280   2.472   5.951   5.444 -0.0157  1.2656 -0.4915
   17MOL    H49 3281   2.679   6.008   5.473  1.5291  1.5474  0.1877
   17MOL    H50 3282   2.612   6.141   5.579  1.3233 -0.0683 -1.9069
   17MOL    H51 3283   2.740   6.050   5.633  0.5217  3.1731 -0.7742
   17MOL    C52 3284   2.402   5.776   5.562  0.3313  0.1514 -0.5967
   17MOL    C53 3285   2.301   5.722   5.459  0.4304 -0.0175  0.0656
   17MOL    O54 3286   2.372   5.749   5.337  0.2096  0.3944  0.0215
   17MOL    C55 3287   2.301   5.728   5.217 -0.1826  0.6982 -0.0811
   17MOL    H56 3288   2.369   5.761   5.665  0.8318 -1.8998 -0.7188
   17MOL    H57 3289   2.483   5.702   5.570 -1.8682 -2.3889 -1.1292
   17MOL    H58 3290   2.209   5.779   5.474 -0.4621 -0.8139 -2.1119
   17MOL    H59 3291   2.200   5.762   5.239  0.0663  2.3809 -1.4667
   17MOL    H60 3292   2.345   5.786   5.136  1.3007 -1.5066 -0.9060
   17MOL    H61 3293   2.292   5.622   5.191  1.5330  1.5367 -4.4342
   17MOL    C62 3294   2.270   5.570   5.476  0.3747  0.0335 -0.2602
   17MOL    C63 3295   2.232   5.530   5.614  0.4096 -0.0311  0.3751
   17MOL    O64 3296   2.109   5.594   5.651 -0.3015 -0.3633 -0.0604
   17MOL    C65 3297   2.096   5.630   5.781  0.1218 -0.1357  0.3137
   17MOL    H66 3298   2.351   5.504   5.444  1.2368 -1.0854  3.8950
   17MOL    H67 3299   2.182   5.544   5.418 -1.8112  4.1201  1.0150
   17MOL    H68 3300   2.314   5.558   5.680 -0.9939 -1.1236  2.6310
   17MOL    H69 3301   2.091   5.546   5.851 -0.1512 -0.3790  0.0041
   17MOL    H70 3302   2.176   5.700   5.805 -0.9609  0.7849  1.3281
   17MOL    H71 3303   1.998   5.677   5.788 -0.3818 -0.8394 -1.6284
   17MOL    C72 3304   2.205   5.374   5.627  0.4791 -0.8310  0.5711
   17MOL    C73 3305   2.316   5.282   5.658  0.3600  0.5062  0.4216
   17MOL    O74 3306   2.276   5.143   5.648 -0.5105  0.7437  0.2164
   17MOL    C75 3307   2.247   5.090   5.771  0.3776  0.6183 -0.3613
   17MOL    H76 3308   2.158   5.343   5.533  1.0250  2.2444 -0.8042
   17MOL    H77 3309   2.129   5.358   5.703  0.7639 -2.2866  0.5616
   17MOL    H78 3310   2.350   5.309   5.758 -0.8984 -0.8310  1.2504
   17MOL    H79 3311   2.163   5.142   5.816  1.2634  2.1058 -0.3926
   17MOL    H80 3312   2.216   4.985   5.762 -3.3458  1.4085  2.2377
   17MOL    H81 3313   2.339   5.094   5.830  1.1180 -0.3919 -1.4143
   17MOL    C82 3314   2.438   5.299   5.568  0.2713  0.0933  0.0499
   17MOL    C83 3315   2.564   5.227   5.620  0.2556  0.0671  0.0815
   17MOL    O84 3316   2.650   5.230   5.505 -0.1319 -0.2230 -0.4373
   17MOL    C85 3317   2.645   5.109   5.435  1.4669  0.1759  0.0067
   17MOL    H86 3318   2.469   5.402   5.549 -4.6258  1.6173 -0.6757
   17MOL    H87 3319   2.401   5.266   5.471  1.1027  0.8550 -0.5390
   17MOL    H88 3320   2.527   5.128   5.645  2.4578 -0.9465 -0.5334
   17MOL    H89 3321   2.545   5.065   5.431  0.8432  1.5611 -0.1535
   17MOL    H90 3322   2.692   5.137   5.341  2.4850  0.4566  0.5943
   17MOL    H91 3323   2.705   5.032   5.483  3.0353  0.1982 -1.8578
   17MOL    C92 3324   2.636   5.281   5.743 -0.0679  0.0653  0.5033
   17MOL    C93 3325   2.746   5.187   5.802  0.1309 -0.1712 -0.4530
   17MOL    O94 3326   2.842   5.267   5.879  0.0381  0.8077  0.6483
   17MOL    C95 3327   2.934   5.340   5.792  0.4712 -0.0683 -0.7150
   17MOL    H96 3328   2.566   5.304   5.823  0.3056  1.5554  0.4120
   17MOL    H97 3329   2.681   5.375   5.713 -0.9100 -0.1423 -1.5168
   17MOL    H98 3330   2.788   5.117   5.731 -1.2740 -0.8001 -0.6838
   17MOL    H99 3331   3.022   5.364   5.851 -1.8133  0.6519  2.5185
   17MOL   H100 3332   2.975   5.288   5.705  4.2138  1.6535 -0.0988
   17MOL   H101 3333   2.904   5.439   5.756  1.0398  0.9643  1.5378
   17MOL   C102 3334   2.684   5.101   5.917 -0.6596 -0.4674  0.1566
   17MOL   C103 3335   2.790   5.017   5.990 -0.2636  0.5516 -0.7265
   17MOL   O104 3336   2.721   4.928   6.078  0.5210 -0.3472  0.6904
   17MOL   C105 3337   2.705   4.974   6.212 -0.4676  0.1351 -0.0143
   17MOL   H106 3338   2.593   5.045   5.893 -0.8603 -0.5858  1.1838
   17MOL   H107 3339   2.642   5.168   5.992 -0.9994 -0.5597  0.0534
   17MOL   H108 3340   2.866   5.069   6.048  0.5502 -1.7442  0.3564
   17MOL   H109 3341   2.652   5.070   6.210  1.7706  1.4150 -0.1907
   17MOL   H110 3342   2.638   4.902   6.258  2.3918 -3.4909 -1.3203
   17MOL   H111 3343   2.802   4.982   6.262 -0.8356 -0.6923  0.8341
   17MOL   C112 3344   2.864   4.913   5.895  0.0139  0.4165  0.1046
   17MOL   C113 3345   2.770   4.817   5.829 -0.2090  0.3774 -0.8458
   17MOL   O114 3346   2.709   4.882   5.721 -0.0260  0.3066 -0.2265
   17MOL   C115 3347   2.575   4.845   5.701 -0.1773  0.5844 -0.7898
   17MOL   H116 3348   2.937   4.854   5.951 -1.5276 -1.7225 -0.0687
   17MOL   H117 3349   2.927   4.962   5.821  0.7937  0.1697  0.6006
   17MOL   H118 3350   2.702   4.769   5.899 -1.1153  1.0937 -1.2281
   17MOL   H119 3351   2.520   4.898   5.623 -0.3080 -2.0088 -2.5258
   17MOL   H120 3352   2.572   4.741   5.668  2.2776  0.4965 -0.8600
   17MOL   H121 3353   2.512   4.842   5.790  0.6185  2.9544 -0.1043
   17MOL   C122 3354   2.851   4.706   5.759  0.0391  0.4647 -0.2248
   17MOL   C123 3355   2.926   4.596   5.843  0.2219  0.6226  0.3840
   17MOL   O124 3356   3.043   4.664   5.889  0.4452  0.2489  0.3950
   17MOL   C125 3357   3.168   4.600   5.854  0.0316 -0.0090 -0.5259
   17MOL   H126 3358   2.936   4.748   5.705  0.7893 -1.0440 -0.2338
   17MOL   H127 3359   2.786   4.652   5.690  0.9416  0.8738 -1.3984
   17MOL   H128 3360   2.951   4.509   5.782 -0.1942  2.1345 -2.0160
   17MOL   H129 3361   3.162   4.497   5.890  1.1777  0.6807  1.7353
   17MOL   H130 3362   3.168   4.602   5.745 -0.8312 -0.1384 -0.5361
   17MOL   H131 3363   3.252   4.662   5.885 -0.7506 -0.0126  1.7208
   17MOL   C132 3364   2.866   4.549   5.972  0.1058  0.0021  0.5385
   17MOL   C133 3365   2.736   4.462   5.959  0.2451 -0.0154  0.4050
   17MOL   O134 3366   2.758   4.355   5.861 -0.4672 -0.6032 -0.0467
   17MOL   C135 3367   2.643   4.322   5.786 -0.3974 -0.3912  0.3110
   17MOL   H136 3368   2.836   4.637   6.029 -0.4749  0.1117  0.0784
   17MOL   H137 3369   2.950   4.511   6.029 -0.4196 -1.6916  0.1978
   17MOL   H138 3370   2.655   4.525   5.923  1.5690  0.0098 -2.6300
   17MOL   H139 3371   2.622   4.402   5.714 -1.5230  1.7993  3.0126
   17MOL   H140 3372   2.665   4.225   5.742 -0.1154  0.0181 -0.4784
   17MOL   H141 3373   2.560   4.319   5.856 -0.7687  0.9710 -0.0509
   17MOL   C142 3374   2.689   4.410   6.097 -0.5718  0.4460  0.7188
   17MOL   C143 3375   2.609   4.511   6.186  0.0956  0.4819  0.8704
   17MOL   O144 3376   2.475   4.532   6.132 -0.1790  0.1498  0.2933
   17MOL   C145 3377   2.441   4.667   6.140  0.7230 -0.1643 -0.0398
   17MOL   H146 3378   2.783   4.404   6.151 -0.0998  1.0015 -0.0225
   17MOL   H147 3379   2.635   4.318   6.075 -1.4207  0.9270  0.7441
   17MOL   H148 3380   2.659   4.608   6.190  1.3822  0.0683 -3.1645
   17MOL   H149 3381   2.491   4.731   6.066 -0.6606 -0.0271 -0.8645
   17MOL   H150 3382   2.335   4.686   6.124  1.1241  1.2779 -1.1209
   17MOL   H151 3383   2.456   4.711   6.238  0.4204 -0.2602  0.0494
   17MOL   C152 3384   2.596   4.457   6.333  0.1246 -0.3198 -0.0267
   17MOL   C153 3385   2.724   4.477   6.417 -0.3791  0.1113  0.2845
   17MOL   O154 3386   2.742   4.616   6.434  0.1695  0.3747  0.0387
   17MOL   C155 3387   2.867   4.644   6.485  0.8072  0.0028  0.2285
   17MOL   H156 3388   2.555   4.356   6.341  0.9199 -0.7343 -1.1733
   17MOL   H157 3389   2.518   4.512   6.387 -0.8050 -1.5229 -0.1241
   17MOL   H158 3390   2.808   4.437   6.359 -1.7756  0.9337 -2.3996
   17MOL   H159 3391   2.931   4.573   6.538 -0.8721 -1.4067  0.4168
   17MOL   H160 3392   2.926   4.679   6.400  0.9533 -2.0925 -0.5547
   17MOL   H161 3393   2.863   4.730   6.552  3.3383  0.7846 -0.5562
   17MOL   C162 3394   2.726   4.395   6.550 -0.5968  0.1546 -0.4031
   17MOL   C163 3395   2.666   4.258   6.551  0.5302  0.8425  0.2513
   17MOL   O164 3396   2.742   4.178   6.459 -0.8524  0.7155 -0.1469
   17MOL   C165 3397   2.665   4.096   6.369 -0.1596  0.1888 -0.1558
   17MOL   H166 3398   2.668   4.445   6.628  1.0075  1.8603 -0.2803
   17MOL   H167 3399   2.829   4.383   6.583 -1.0503 -1.7213  0.4175
   17MOL   H168 3400   2.560   4.257   6.524  0.1345 -0.1223  1.7848
   17MOL   H169 3401   2.738   4.024   6.331 -2.0047 -1.0381 -1.4817
   17MOL   H170 3402   2.591   4.045   6.430  1.7085 -1.0153  1.1441
   17MOL   H171 3403   2.616   4.146   6.285  2.8307 -0.4721 -2.3994
   17MOL   C172 3404   2.685   4.194   6.694 -0.1202  0.4640 -0.1401
   17MOL   C173 3405   2.565   4.227   6.791 -0.1022  0.8197 -0.3761
   17MOL   O174 3406   2.433   4.198   6.733 -0.3538  0.1392 -0.3669
   17MOL   C175 3407   2.341   4.305   6.743  0.3164  0.2381 -0.0784
   17MOL   H176 3408   2.782   4.223   6.735  0.7483  0.0223 -1.7971
   17MOL   H177 3409   2.696   4.087   6.678  1.5487  0.7058 -0.7513
   17MOL   H178 3410   2.570   4.332   6.821  0.7323  1.1934 -1.7770
   17MOL   H179 3411   2.373   4.391   6.684  3.0086  0.7908  2.1096
   17MOL   H180 3412   2.246   4.276   6.698  0.5003 -2.3845  1.1159
   17MOL   H181 3413   2.315   4.335   6.845 -2.4555 -1.7721 -0.1160
   17MOL   C182 3414   2.572   4.139   6.918  0.5007 -0.6955 -0.1757
   17MOL   C183 3415   2.715   4.122   6.992 -0.5264  0.1287  0.3223
   17MOL   O184 3416   2.790   4.231   7.044 -0.3824  0.3271  0.4325
   17MOL   C185 3417   2.719   4.332   7.116  0.0164 -0.4097  0.0825
   17MOL   H186 3418   2.545   4.039   6.883 -0.8688 -0.6318  0.6515
   17MOL   H187 3419   2.500   4.164   6.996  0.5354 -0.2681 -0.2835
   17MOL   H188 3420   2.781   4.085   6.914  1.3356 -2.1137  2.9133
   17MOL   H189 3421   2.647   4.398   7.069 -0.0631 -1.9910 -2.1225
   17MOL   H190 3422   2.668   4.273   7.193  0.2022  0.9252  1.2352
   17MOL   H191 3423   2.783   4.384   7.187 -1.1312 -2.5421  2.7647
   17MOL   C192 3424   2.718   4.024   7.106 -0.4042 -0.3500 -0.8286
   17MOL   C193 3425   2.719   3.879   7.067 -0.2562  0.3671  0.5432
   17MOL   O194 3426   2.581   3.833   7.049 -0.1825  0.5943  0.2492
   17MOL   C195 3427   2.587   3.698   7.019  0.4758 -0.2198  0.3126
   17MOL   H196 3428   2.648   4.048   7.187  1.1662  1.6214  0.0066
   17MOL   H197 3429   2.815   4.040   7.155 -0.5136  0.2856 -0.8119
   17MOL   H198 3430   2.765   3.825   7.150 -1.0561  0.5220  1.0969
   17MOL   H199 3431   2.634   3.685   6.921 -2.6780  2.7527 -1.7118
   17MOL   H200 3432   2.642   3.651   7.101  0.0302 -2.1327 -0.4622
   17MOL   H201 3433   2.488   3.652   7.012  0.1470  0.6093 -0.5564
   17MOL   H202 3434   2.765   3.859   6.971 -3.4181  0.7884 -1.1279
   18MOL     C1 3435   6.173   2.392   1.556 -0.2640 -0.5188 -0.2865
   18MOL     C2 3436   6.137   2.532   1.507 -0.4407  0.0947  0.8171
   18MOL     O3 3437   6.177   2.544   1.374 -0.7048 -0.5047 -0.3555
   18MOL     C4 3438   6.321   2.561   1.358  0.7538 -0.1058 -0.0945
   18MOL     H5 3439   6.174   2.310   1.485 -1.7891 -1.1985  0.4720
   18MOL     H6 3440   6.274   2.392   1.597 -0.2627 -0.4703 -0.2902
   18MOL     H7 3441   6.194   2.604   1.566 -0.3206 -2.0541  3.4204
   18MOL     H8 3442   6.333   2.521   1.257 -0.4507 -0.1328 -0.2338
   18MOL     H9 3443   6.343   2.668   1.358 -2.5827  0.6437 -0.9622
   18MOL    H10 3444   6.375   2.502   1.431 -0.9024 -2.1591 -0.4840
   18MOL    H11 3445   6.106   2.356   1.634 -0.8549 -0.0056 -0.5620
   18MOL    C12 3446   5.989   2.561   1.519  0.6896 -0.5465  0.4525
   18MOL    C13 3447   5.958   2.697   1.467  0.9995 -0.2718  0.3183
   18MOL    O14 3448   5.817   2.710   1.447 -0.3717  0.0134 -0.4792
   18MOL    C15 3449   5.772   2.709   1.308  0.1819  0.9513  0.1330
   18MOL    H16 3450   5.966   2.537   1.623  3.2962  0.1070  1.2156
   18MOL    H17 3451   5.931   2.486   1.466  1.1775  0.3078 -1.3249
   18MOL    H18 3452   6.009   2.725   1.375  0.7751 -0.0358  0.2676
   18MOL    H19 3453   5.790   2.811   1.275 -2.1184  1.3961  0.1928
   18MOL    H20 3454   5.822   2.632   1.248 -1.3406 -1.5086  1.9352
   18MOL    H21 3455   5.664   2.694   1.312  0.0789  2.0117  1.5144
   18MOL    C22 3456   5.994   2.809   1.570 -0.3706 -0.8345  0.2629
   18MOL    C23 3457   5.975   2.959   1.525 -0.4044  0.2560  0.2441
   18MOL    O24 3458   5.989   3.041   1.648  0.2244  0.3168 -0.5374
   18MOL    C25 3459   5.864   3.067   1.711 -0.7331 -0.2083 -0.6213
   18MOL    H26 3460   6.095   2.804   1.610  0.4970 -3.0122 -2.0197
   18MOL    H27 3461   5.925   2.794   1.653  0.0799 -0.7071  0.6574
   18MOL    H28 3462   5.870   2.967   1.495 -0.3513  0.2290  0.0507
   18MOL    H29 3463   5.877   3.107   1.812 -0.8384  2.0699 -1.4608
   18MOL    H30 3464   5.802   3.143   1.664  0.8010  1.7401  0.4025
   18MOL    H31 3465   5.810   2.976   1.732  0.4583 -0.8305 -0.2055
   18MOL    C32 3466   6.078   3.008   1.427 -0.3166  0.1836  0.2450
   18MOL    C33 3467   6.027   3.132   1.351 -0.0207 -0.6099  0.4583
   18MOL    O34 3468   6.128   3.182   1.273 -0.5057  0.6436 -0.2019
   18MOL    C35 3469   6.135   3.324   1.267  0.3367  0.2142  0.2428
   18MOL    H36 3470   6.111   2.927   1.361  2.8281  1.4252  0.1953
   18MOL    H37 3471   6.158   3.036   1.496  1.3623 -0.4418 -1.3817
   18MOL    H38 3472   6.001   3.207   1.426 -2.5031 -1.6973  0.7387
   18MOL    H39 3473   6.162   3.359   1.367 -0.3612  2.1293 -0.2173
   18MOL    H40 3474   6.229   3.338   1.214  0.5824 -0.9133  0.3787
   18MOL    H41 3475   6.059   3.390   1.226  2.5167  1.2866 -2.1834
   18MOL    C42 3476   5.904   3.092   1.267 -0.2601 -0.0176  0.3560
   18MOL    C43 3477   5.823   3.208   1.212  0.3001  0.1204 -0.2659
   18MOL    O44 3478   5.738   3.141   1.120  0.3931  0.3148  0.2788
   18MOL    C45 3479   5.786   3.125   0.991 -0.2005  0.0963 -0.1392
   18MOL    H46 3480   5.832   3.018   1.303  0.1745 -0.3843  0.4797
   18MOL    H47 3481   5.950   3.036   1.185 -1.2015  0.5940 -0.6010
   18MOL    H48 3482   5.882   3.283   1.158 -1.0117 -1.0884 -3.4978
   18MOL    H49 3483   5.866   3.051   0.992 -1.0801 -0.9404 -2.3069
   18MOL    H50 3484   5.713   3.074   0.927  0.3724 -1.1376  0.1833
   18MOL    H51 3485   5.819   3.221   0.951 -0.1536 -0.5016 -1.5840
   18MOL    C52 3486   5.735   3.271   1.316  1.0214  0.0139 -0.0222
   18MOL    C53 3487   5.620   3.359   1.258  0.5020  0.5126  0.0626
   18MOL    O54 3488   5.551   3.416   1.372 -0.3634 -0.0658  0.4277
   18MOL    C55 3489   5.441   3.343   1.422 -0.3475 -0.2185  0.3372
   18MOL    H56 3490   5.790   3.327   1.392 -1.8331 -0.2260  2.3436
   18MOL    H57 3491   5.691   3.199   1.385 -0.7133  0.3163 -0.7824
   18MOL    H58 3492   5.545   3.306   1.200 -0.5221 -0.8674  2.5908
   18MOL    H59 3493   5.355   3.353   1.357  0.1676  0.8703 -0.1982
   18MOL    H60 3494   5.463   3.239   1.443 -1.1087 -1.1808 -3.3046
   18MOL    H61 3495   5.415   3.387   1.518 -0.9714  1.5787 -0.6275
   18MOL    C62 3496   5.658   3.474   1.169  0.5191  0.5885  0.5544
   18MOL    C63 3497   5.748   3.586   1.234  0.5732  0.1325  0.5081
   18MOL    O64 3498   5.874   3.539   1.286  0.2923 -0.3325 -0.1938
   18MOL    C65 3499   5.906   3.571   1.427  0.2968 -0.1822 -0.2556
   18MOL    H66 3500   5.560   3.516   1.146  0.9560  0.1849 -2.1956
   18MOL    H67 3501   5.690   3.435   1.072 -2.0206  0.3014 -0.2154
   18MOL    H68 3502   5.698   3.628   1.321  0.2124  0.4673  0.1356
   18MOL    H69 3503   5.987   3.515   1.474  0.9901 -1.0219 -2.3983
   18MOL    H70 3504   5.915   3.678   1.446  0.8348  0.2769 -2.9309
   18MOL    H71 3505   5.824   3.535   1.488  2.0085  0.2913  2.4138
   18MOL    C72 3506   5.777   3.704   1.140 -0.4730  1.0010 -0.2877
   18MOL    C73 3507   5.822   3.842   1.190 -0.0904  0.3086 -0.5337
   18MOL    O74 3508   5.846   3.944   1.087  0.1281  0.2096  0.5084
   18MOL    C75 3509   5.962   3.916   1.012  0.2092  0.1986 -0.4649
   18MOL    H76 3510   5.691   3.716   1.073  0.0205  1.5799 -0.8279
   18MOL    H77 3511   5.862   3.676   1.077 -0.9218 -0.4731 -0.2473
   18MOL    H78 3512   5.910   3.820   1.250 -1.5166 -2.7828  0.5306
   18MOL    H79 3513   5.935   3.830   0.951 -0.0009  0.7838 -1.1966
   18MOL    H80 3514   5.971   4.008   0.955 -1.0577 -0.5200 -1.8453
   18MOL    H81 3515   6.054   3.893   1.066 -1.9341 -1.9167  2.4209
   18MOL    C82 3516   5.708   3.906   1.274  0.2913  0.2322  0.0631
   18MOL    C83 3517   5.735   4.029   1.365 -0.1409  0.4146  0.3376
   18MOL    O84 3518   5.616   4.083   1.417  0.0637  0.5967 -0.5209
   18MOL    C85 3519   5.567   4.183   1.334 -0.4111  0.6423 -0.0837
   18MOL    H86 3520   5.667   3.839   1.350  0.2093 -2.7628 -2.5155
   18MOL    H87 3521   5.626   3.925   1.205  0.7165  0.5786 -0.3483
   18MOL    H88 3522   5.783   4.100   1.297  0.6090 -0.7273 -0.3490
   18MOL    H89 3523   5.639   4.264   1.343  0.6355 -0.3577  0.6311
   18MOL    H90 3524   5.573   4.154   1.229  1.0107  3.3800 -0.8113
   18MOL    H91 3525   5.467   4.214   1.363 -1.0140 -2.9375  1.9371
   18MOL    C92 3526   5.828   4.005   1.485  0.4304  0.2672 -0.4151
   18MOL    C93 3527   5.836   4.113   1.594  0.2882 -0.8298  0.5357
   18MOL    O94 3528   5.941   4.060   1.673  0.3580  0.0484  0.3109
   18MOL    C95 3529   5.968   4.131   1.793 -0.0945 -0.4736  0.3549
   18MOL    H96 3530   5.928   3.983   1.448  1.3081  1.3423  1.2658
   18MOL    H97 3531   5.801   3.919   1.546  1.0476  1.3504  1.4055
   18MOL    H98 3532   5.741   4.106   1.648 -0.4346  1.1669 -0.4192
   18MOL    H99 3533   6.005   4.065   1.872 -0.3920 -1.8233 -0.6233
   18MOL   H100 3534   6.039   4.214   1.787  0.6446 -0.9520  2.1094
   18MOL   H101 3535   5.884   4.171   1.850  0.0163 -0.9294  0.8421
   18MOL   C102 3536   5.867   4.259   1.544  0.7391  0.4197  0.2335
   18MOL   C103 3537   6.000   4.278   1.465 -1.2333 -0.1415 -0.7821
   18MOL   O104 3538   5.977   4.224   1.337 -0.5586 -0.2780  0.4150
   18MOL   C105 3539   6.092   4.200   1.253 -0.0342 -0.1201  0.2349
   18MOL   H106 3540   5.867   4.319   1.635 -0.6331  0.7583  0.0178
   18MOL   H107 3541   5.790   4.305   1.481  1.1165 -0.4855 -0.8978
   18MOL   H108 3542   6.076   4.222   1.521 -0.2230  2.9746  1.1091
   18MOL   H109 3543   6.131   4.112   1.304 -1.3864  0.1301  1.7379
   18MOL   H110 3544   6.074   4.162   1.153  0.1134  1.1078 -0.2740
   18MOL   H111 3545   6.182   4.263   1.258  1.7696 -2.3848 -2.4191
   18MOL   C112 3546   6.040   4.427   1.438 -1.0844 -0.2443  0.0959
   18MOL   C113 3547   6.147   4.494   1.535 -0.7431 -0.2223 -0.8425
   18MOL   O114 3548   6.261   4.420   1.512 -0.3114  0.2066 -0.3148
   18MOL   C115 3549   6.320   4.377   1.645  0.4459  0.3193 -0.2503
   18MOL   H116 3550   5.947   4.484   1.439 -0.3833  0.9455 -0.7456
   18MOL   H117 3551   6.075   4.448   1.337  0.6520 -0.2422  0.6791
   18MOL   H118 3552   6.102   4.483   1.634 -1.7571 -1.7050 -1.4527
   18MOL   H119 3553   6.255   4.304   1.693  1.7499  0.8531  2.4781
   18MOL   H120 3554   6.418   4.328   1.645  1.9133  3.0954  0.7706
   18MOL   H121 3555   6.343   4.455   1.718 -0.8641  1.0552 -0.6151
   18MOL   C122 3556   6.177   4.642   1.494  0.2540  0.6015  0.4565
   18MOL   C123 3557   6.298   4.707   1.567 -0.3587 -0.5038  0.0894
   18MOL   O124 3558   6.340   4.815   1.489 -0.2348 -0.8181  0.1663
   18MOL   C125 3559   6.461   4.793   1.417 -0.2826 -0.3475 -0.1891
   18MOL   H126 3560   6.089   4.705   1.507 -2.2153 -2.2660 -1.6631
   18MOL   H127 3561   6.210   4.650   1.390  0.6066 -1.4999  0.3872
   18MOL   H128 3562   6.376   4.632   1.579  0.6556  1.0001  3.5225
   18MOL   H129 3563   6.550   4.791   1.480 -0.3829  1.1375  0.0169
   18MOL   H130 3564   6.449   4.711   1.347  0.5439  2.1044 -3.3480
   18MOL   H131 3565   6.467   4.879   1.350  0.2940  0.9015  1.4188
   18MOL   C132 3566   6.274   4.761   1.708 -0.6299  0.1813  0.1404
   18MOL   C133 3567   6.395   4.798   1.794 -0.1484 -0.3491  0.3577
   18MOL   O134 3568   6.379   4.929   1.841  0.7066  0.4167  0.0198
   18MOL   C135 3569   6.390   5.035   1.743  0.7880  0.2974 -0.1292
   18MOL   H136 3570   6.219   4.684   1.762  0.3798  2.0166  3.9189
   18MOL   H137 3571   6.205   4.843   1.690 -1.7091 -1.0401 -1.5667
   18MOL   H138 3572   6.486   4.791   1.734 -0.0608  1.2065  0.2904
   18MOL   H139 3573   6.464   5.025   1.664  0.6263  1.8869 -0.5087
   18MOL   H140 3574   6.303   5.038   1.677  0.9396  2.3292 -0.2585
   18MOL   H141 3575   6.397   5.136   1.785  2.7465  0.3631 -0.5654
   18MOL   C142 3576   6.420   4.702   1.909  0.1144 -0.0682  0.0390
   18MOL   C143 3577   6.546   4.730   1.994 -1.0096  0.0325  0.1092
   18MOL   O144 3578   6.540   4.650   2.110 -0.3971  0.3217  0.3324
   18MOL   C145 3579   6.474   4.701   2.218 -0.2749 -0.5650  0.0039
   18MOL   H146 3580   6.427   4.599   1.874 -0.3368 -0.7839  2.0208
   18MOL   H147 3581   6.323   4.703   1.959 -1.0074  1.9056 -2.0688
   18MOL   H148 3582   6.551   4.836   2.021 -1.1581  0.6901 -2.2490
   18MOL   H149 3583   6.450   4.615   2.281 -0.4267 -1.7732 -1.6836
   18MOL   H150 3584   6.546   4.762   2.274  1.0068 -2.8343  0.9082
   18MOL   H151 3585   6.388   4.766   2.203  0.5932  0.7762  0.7244
   18MOL   C152 3586   6.673   4.686   1.922  0.1118 -0.0976  0.2850
   18MOL   C153 3587   6.807   4.706   2.008 -0.1178 -0.1340  0.8390
   18MOL   O154 3588   6.891   4.599   1.966  0.3886  0.4590 -0.2636
   18MOL   C155 3589   6.892   4.474   2.031  0.6098  0.0729  0.0711
   18MOL   H156 3590   6.677   4.743   1.829  2.9615 -0.7930 -0.0682
   18MOL   H157 3591   6.665   4.581   1.892  2.2027 -0.3336  0.4796
   18MOL   H158 3592   6.788   4.693   2.115  1.0402  0.4795  1.1223
   18MOL   H159 3593   6.960   4.505   2.110  1.5984 -1.5053 -0.1329
   18MOL   H160 3594   6.795   4.443   2.071  0.5922  1.0734  0.8118
   18MOL   H161 3595   6.942   4.398   1.970 -0.1153  0.7177 -1.3452
   18MOL   C162 3596   6.876   4.839   1.970 -0.4411  0.4717  0.5743
   18MOL   C163 3597   6.987   4.886   2.062  0.5376  0.2073 -0.5694
   18MOL   O164 3598   7.074   4.977   1.997 -0.6503  0.1484  0.0328
   18MOL   C165 3599   7.195   4.996   2.073  0.1763 -0.0578  0.2116
   18MOL   H166 3600   6.805   4.921   1.962 -0.7471  0.0511 -1.1636
   18MOL   H167 3601   6.923   4.830   1.872 -0.2961  0.2549  0.6628
   18MOL   H168 3602   7.045   4.803   2.103 -1.9037 -1.2806 -0.0308
   18MOL   H169 3603   7.270   5.050   2.016 -0.9024 -0.2827 -1.4807
   18MOL   H170 3604   7.179   5.061   2.158 -0.6817  1.1809 -0.8738
   18MOL   H171 3605   7.233   4.899   2.106 -0.7786 -0.4518  0.1898
   18MOL   C172 3606   6.921   4.967   2.176  0.0011  0.7410 -0.6946
   18MOL   C173 3607   6.858   5.102   2.137 -0.1484  0.3666 -0.1784
   18MOL   O174 3608   6.719   5.083   2.119 -0.0810 -0.4398 -0.0214
   18MOL   C175 3609   6.660   5.163   2.015 -0.1819 -0.1193 -0.1400
   18MOL   H176 3610   7.006   4.985   2.242  0.2162 -1.2766 -0.3955
   18MOL   H177 3611   6.845   4.915   2.234 -0.4349 -0.7618 -2.5803
   18MOL   H178 3612   6.906   5.145   2.050  0.3093 -0.2795 -0.2460
   18MOL   H179 3613   6.661   5.267   2.045 -1.3570  0.6189 -2.5093
   18MOL   H180 3614   6.712   5.160   1.919 -0.4745 -1.0882 -0.2810
   18MOL   H181 3615   6.553   5.141   2.004 -0.6023  1.8995 -0.3355
   18MOL   C182 3616   6.856   5.207   2.249  0.1563 -0.1168  0.5701
   18MOL   C183 3617   6.981   5.296   2.248 -0.1944 -0.7916 -0.8369
   18MOL   O184 3618   7.004   5.355   2.119 -0.2682  0.5834  0.2590
   18MOL   C185 3619   7.142   5.373   2.101  0.0924 -0.5336  0.2505
   18MOL   H186 3620   6.845   5.151   2.342 -0.8649  0.8329  1.0367
   18MOL   H187 3621   6.772   5.275   2.236 -0.1072 -0.5527  0.0021
   18MOL   H188 3622   7.065   5.228   2.265 -0.1029 -0.8768 -1.6009
   18MOL   H189 3623   7.168   5.464   2.156  0.2019 -0.2211 -0.3128
   18MOL   H190 3624   7.208   5.289   2.124  0.9128  0.5594  1.9596
   18MOL   H191 3625   7.169   5.395   1.998 -1.0742 -2.1832 -0.4339
   18MOL   C192 3626   6.980   5.406   2.360  0.0346  0.0135 -0.0103
   18MOL   C193 3627   6.879   5.511   2.352  0.4416  0.0390  0.1870
   18MOL   O194 3628   6.870   5.577   2.473 -0.2646 -0.6785  0.0904
   18MOL   C195 3629   6.817   5.708   2.462  0.4539  0.3420 -0.1714
   18MOL   H196 3630   7.076   5.456   2.368  0.1274 -0.0635 -0.6294
   18MOL   H197 3631   6.951   5.354   2.452 -1.4778 -1.6485 -1.3797
   18MOL   H198 3632   6.785   5.462   2.323  1.8358 -1.5623 -1.7518
   18MOL   H199 3633   6.715   5.715   2.426  0.3487  0.9155  0.2393
   18MOL   H200 3634   6.815   5.735   2.568  1.6819 -0.6939  0.1362
   18MOL   H201 3635   6.884   5.782   2.416 -0.4974 -0.5588 -3.1155
   18MOL   H202 3636   6.910   5.573   2.268  2.5484  2.1439  2.4469
   19MOL     C1 3637   1.098   4.283   1.918  0.3642 -0.1482 -0.2122
   19MOL     C2 3638   1.058   4.425   1.865 -0.0498  0.6851  0.9380
   19MOL     O3 3639   1.089   4.532   1.956 -0.3987  0.9312  0.0249
   19MOL     C4 3640   0.998   4.548   2.069 -0.0380  0.0334 -0.7572
   19MOL     H5 3641   1.034   4.247   1.999  1.7467 -1.8121  0.1859
   19MOL     H6 3642   1.078   4.200   1.850  2.1701 -1.5497  0.9300
   19MOL     H7 3643   0.950   4.421   1.855 -0.0854 -0.1696  1.5875
   19MOL     H8 3644   0.989   4.450   2.115 -1.0701  0.0057 -1.0006
   19MOL     H9 3645   1.029   4.616   2.148 -0.9089  0.3373 -0.6706
   19MOL    H10 3646   0.903   4.592   2.037 -1.0456 -1.1832  0.4792
   19MOL    H11 3647   1.197   4.273   1.962  0.3596  0.3316 -0.0891
   19MOL    C12 3648   1.124   4.470   1.729  0.4336  0.3696 -0.1338
   19MOL    C13 3649   1.045   4.567   1.634  0.2587 -0.1757 -0.6426
   19MOL    O14 3650   1.066   4.700   1.680  0.3846  0.1075 -0.0162
   19MOL    C15 3651   0.948   4.763   1.725  0.0383  0.7308 -0.4993
   19MOL    H16 3652   1.125   4.379   1.668 -0.9903  0.1284  0.1822
   19MOL    H17 3653   1.232   4.484   1.739  0.8071 -3.1864  1.6960
   19MOL    H18 3654   0.943   4.532   1.643 -0.0662  0.4050 -2.0519
   19MOL    H19 3655   0.870   4.778   1.650  0.2785 -0.3640 -0.9789
   19MOL    H20 3656   0.909   4.707   1.810  0.8846 -2.5031 -2.1370
   19MOL    H21 3657   0.966   4.867   1.751  2.1622  0.8410 -2.2659
   19MOL    C22 3658   1.097   4.556   1.487 -0.0751 -0.9824 -0.6969
   19MOL    C23 3659   1.016   4.632   1.380  0.1364  0.4974  0.1005
   19MOL    O24 3660   1.089   4.616   1.251 -0.0423 -0.2554 -0.0358
   19MOL    C25 3661   1.119   4.740   1.189 -0.5499 -0.5991  0.4853
   19MOL    H26 3662   1.110   4.455   1.447 -1.2941 -0.4490 -2.4790
   19MOL    H27 3663   1.201   4.591   1.493 -0.7308  0.7671  1.1140
   19MOL    H28 3664   1.014   4.735   1.417  1.9392  0.6897 -0.2685
   19MOL    H29 3665   1.042   4.790   1.130  0.3372 -0.4859 -0.5868
   19MOL    H30 3666   1.158   4.813   1.260 -0.0630  0.4912 -0.8917
   19MOL    H31 3667   1.196   4.725   1.114  0.3536  0.0774  1.2613
   19MOL    C32 3668   0.882   4.566   1.363 -0.1822  0.8230 -0.5192
   19MOL    C33 3669   0.781   4.650   1.282 -0.9998  0.9971  0.1797
   19MOL    O34 3670   0.665   4.569   1.251  0.5101 -0.7774 -0.1026
   19MOL    C35 3671   0.671   4.493   1.131 -0.2809 -0.1254 -0.6378
   19MOL    H36 3672   0.852   4.565   1.468 -0.0091  2.9338 -0.4166
   19MOL    H37 3673   0.887   4.464   1.325  1.0120  0.6590  0.0628
   19MOL    H38 3674   0.834   4.665   1.188  1.0228 -0.4916  1.0567
   19MOL    H39 3675   0.582   4.430   1.135 -0.9517  0.9289  2.5661
   19MOL    H40 3676   0.665   4.560   1.045  2.4133  0.7749 -0.1538
   19MOL    H41 3677   0.753   4.423   1.117 -0.0695 -0.0349  0.1267
   19MOL    C42 3678   0.751   4.781   1.352  0.6639  0.2331  0.6417
   19MOL    C43 3679   0.638   4.866   1.287 -0.3819  0.0435 -0.5490
   19MOL    O44 3680   0.605   4.991   1.352  0.1333 -0.3763 -0.1460
   19MOL    C45 3681   0.584   4.980   1.487  0.0564  0.0989  0.5854
   19MOL    H46 3682   0.838   4.846   1.362  0.2507  0.8479  0.2295
   19MOL    H47 3683   0.737   4.745   1.455  0.2972 -0.4804  0.3448
   19MOL    H48 3684   0.546   4.808   1.282  0.7521 -1.7322 -0.8344
   19MOL    H49 3685   0.504   4.911   1.513  0.9982 -0.8925  0.9170
   19MOL    H50 3686   0.682   4.961   1.532 -0.6103 -0.3200  1.9163
   19MOL    H51 3687   0.566   5.081   1.524 -0.5013 -0.3432  1.5621
   19MOL    C52 3688   0.676   4.905   1.142  0.2095 -0.3100  0.1944
   19MOL    C53 3689   0.568   4.987   1.055  0.1162 -0.2357 -0.4134
   19MOL    O54 3690   0.649   5.032   0.945 -0.2076 -0.0244 -0.3238
   19MOL    C55 3691   0.696   5.165   0.956  0.4269 -0.9701  0.1743
   19MOL    H56 3692   0.703   4.816   1.086  1.2766  0.5412 -0.6765
   19MOL    H57 3693   0.772   4.957   1.150 -0.7039  1.3230  0.8070
   19MOL    H58 3694   0.538   5.073   1.115  1.0496  1.9345 -2.9982
   19MOL    H59 3695   0.789   5.165   1.014  0.3297  0.6997  0.3606
   19MOL    H60 3696   0.714   5.207   0.857  1.6905 -0.9105  0.4199
   19MOL    H61 3697   0.632   5.235   1.009  0.8503  0.4284 -1.1090
   19MOL    C62 3698   0.450   4.902   1.013 -0.5325  0.1061  0.3412
   19MOL    C63 3699   0.356   4.982   0.924  0.1183 -0.7707  0.0212
   19MOL    O64 3700   0.287   4.883   0.846  0.6016  0.0852 -0.4082
   19MOL    C65 3701   0.362   4.845   0.730  0.2500  0.4958 -0.1469
   19MOL    H66 3702   0.391   4.874   1.100 -0.6136  0.9466  0.5657
   19MOL    H67 3703   0.477   4.806   0.970  0.0144  0.6912 -0.6541
   19MOL    H68 3704   0.406   5.053   0.859 -0.9932 -0.4322 -0.4741
   19MOL    H69 3705   0.334   4.748   0.689  0.0797 -0.1876  1.5563
   19MOL    H70 3706   0.352   4.922   0.654 -0.4772  0.1930 -0.3631
   19MOL    H71 3707   0.467   4.829   0.754 -0.2089 -0.5500  1.2530
   19MOL    C72 3708   0.254   5.064   1.015  0.2291  0.2536  0.7019
   19MOL    C73 3709   0.155   5.145   0.940 -0.1785  0.4117 -1.3221
   19MOL    O74 3710   0.081   5.212   1.043  0.0507  0.4397  0.0170
   19MOL    C75 3711   7.772   5.276   1.006  0.6843 -0.2048  0.9391
   19MOL    H76 3712   0.318   5.125   1.078  0.2224  1.0697 -0.0802
   19MOL    H77 3713   0.189   4.989   1.060  1.2944 -1.3303 -0.3398
   19MOL    H78 3714   0.080   5.087   0.886 -0.5597  0.6949 -1.0997
   19MOL    H79 3715   7.799   5.345   0.926 -1.7104  0.5447  0.7231
   19MOL    H80 3716   7.691   5.208   0.976  1.6830 -0.9025 -0.2198
   19MOL    H81 3717   7.732   5.328   1.092  1.0092 -1.0616  1.6128
   19MOL    C82 3718   0.227   5.246   0.845  0.1129  0.0367 -0.3339
   19MOL    C83 3719   0.228   5.200   0.698  0.7784  0.4437  0.0102
   19MOL    O84 3720   0.093   5.205   0.648  0.5759  0.0398  0.0221
   19MOL    C85 3721   0.065   5.117   0.539 -0.0720 -0.1202 -0.5678
   19MOL    H86 3722   0.330   5.250   0.883  0.1738 -0.5791 -0.4320
   19MOL    H87 3723   0.194   5.350   0.846  2.4074  0.8036  0.8960
   19MOL    H88 3724   0.267   5.098   0.690 -0.1758  0.2602 -2.9800
   19MOL    H89 3725   0.143   5.117   0.463  2.8179  0.0878  2.2974
   19MOL    H90 3726   0.039   5.014   0.567 -3.3147  0.6022 -0.7275
   19MOL    H91 3727   7.790   5.162   0.490 -0.5782  0.4701  0.8277
   19MOL    C92 3728   0.323   5.287   0.621  0.9053 -0.5183  0.5386
   19MOL    C93 3729   0.479   5.272   0.637 -0.8194 -0.3974 -0.0947
   19MOL    O94 3730   0.508   5.155   0.560  0.2092 -0.3110 -0.4725
   19MOL    C95 3731   0.608   5.069   0.608 -0.0038  0.3478  0.5441
   19MOL    H96 3732   0.307   5.394   0.634 -0.3580 -0.6160 -0.0637
   19MOL    H97 3733   0.299   5.273   0.515 -0.8139  1.2516  0.6621
   19MOL    H98 3734   0.504   5.261   0.743 -0.4449 -0.6567 -0.2079
   19MOL    H99 3735   0.579   5.035   0.708 -0.6939 -0.5024  0.0510
   19MOL   H100 3736   0.627   4.985   0.542  1.2721  0.1372  1.1688
   19MOL   H101 3737   0.697   5.131   0.619 -0.4815  1.7247 -2.7436
   19MOL   C102 3738   0.562   5.387   0.575  0.0396  0.0952 -0.8402
   19MOL   C103 3739   0.547   5.528   0.648  0.1240 -0.2595  0.7418
   19MOL   O104 3740   0.592   5.508   0.783 -0.5838  0.6360 -0.1401
   19MOL   C105 3741   0.486   5.525   0.872 -0.4192  0.3422 -0.0893
   19MOL   H106 3742   0.527   5.398   0.473 -1.3434 -0.3033 -0.4302
   19MOL   H107 3743   0.669   5.369   0.574  0.0702  0.1766  0.0922
   19MOL   H108 3744   0.440   5.549   0.645  0.0588 -0.5097  1.3631
   19MOL   H109 3745   0.506   5.481   0.969  0.9185  0.6928 -0.1897
   19MOL   H110 3746   0.461   5.631   0.877 -0.7677  0.2859 -0.5868
   19MOL   H111 3747   0.395   5.475   0.839  0.0372  0.3354 -1.3927
   19MOL   C112 3748   0.633   5.649   0.594  0.4909  0.5028  0.5759
   19MOL   C113 3749   0.543   5.741   0.514  0.6395 -0.3769 -0.0457
   19MOL   O114 3750   0.446   5.796   0.600  0.4460 -0.3064  0.0549
   19MOL   C115 3751   0.318   5.794   0.536  0.0899 -0.0561  0.3150
   19MOL   H116 3752   0.708   5.607   0.527  0.9868  0.2091  1.3059
   19MOL   H117 3753   0.679   5.698   0.680 -0.0973  0.6707  0.7993
   19MOL   H118 3754   0.497   5.685   0.433 -0.4876  0.6170 -0.1034
   19MOL   H119 3755   0.308   5.851   0.444 -2.7068  2.3516  2.0207
   19MOL   H120 3756   0.288   5.696   0.498 -1.0935  2.2065 -4.9846
   19MOL   H121 3757   0.242   5.839   0.600  0.6425 -1.2591  1.8785
   19MOL   C122 3758   0.616   5.863   0.453  0.0860  0.2767 -0.2896
   19MOL   C123 3759   0.727   5.809   0.355  0.1023  0.1014 -0.1558
   19MOL   O124 3760   0.660   5.723   0.260 -0.1952 -0.0331 -0.1429
   19MOL   C125 3761   0.741   5.635   0.183 -0.0795  0.2470 -0.1174
   19MOL   H126 3762   0.670   5.909   0.536 -2.1287  2.0007  0.2459
   19MOL   H127 3763   0.551   5.941   0.413 -0.2123  1.9594  3.2885
   19MOL   H128 3764   0.798   5.755   0.417 -0.1851 -0.4603 -0.3122
   19MOL   H129 3765   0.752   5.539   0.235  1.9417 -0.3400 -1.5691
   19MOL   H130 3766   0.693   5.623   0.086  1.9289 -2.8974 -0.7943
   19MOL   H131 3767   0.843   5.671   0.171  1.2843 -2.2301  3.2366
   19MOL   C132 3768   0.804   5.925   0.295 -0.1731 -0.5551 -0.3016
   19MOL   C133 3769   0.889   6.001   0.397  0.2378  0.3470 -0.5264
   19MOL   O134 3770   0.971   5.911   0.473 -0.2741 -0.1130  0.3286
   19MOL   C135 3771   0.986   5.936   0.617 -0.8018 -0.2260 -0.5694
   19MOL   H136 3772   0.740   5.997   0.243 -2.1686 -1.9217  0.1791
   19MOL   H137 3773   0.868   5.887   0.216  1.1299 -0.7354  0.8194
   19MOL   H138 3774   0.824   6.055   0.466  1.2030  0.2054  0.5002
   19MOL   H139 3775   1.012   6.038   0.645  2.0987 -0.8388 -0.8445
   19MOL   H140 3776   0.890   5.916   0.665 -0.7286 -1.7280 -1.0290
   19MOL   H141 3777   1.073   5.882   0.654 -0.8940 -0.4835 -0.7329
   19MOL   C142 3778   0.982   6.094   0.323 -0.4289 -0.5705  0.0124
   19MOL   C143 3779   0.911   6.216   0.256 -0.0603  0.8279  0.2087
   19MOL   O144 3780   0.833   6.290   0.351 -0.0234 -0.1345  0.6977
   19MOL   C145 3781   0.899   6.336   0.471  0.3585  0.1605 -0.8616
   19MOL   H146 3782   1.045   6.037   0.255 -2.8902 -0.3426 -2.5490
   19MOL   H147 3783   1.067   6.125   0.384 -0.2011  0.1508 -0.6563
   19MOL   H148 3784   0.830   6.187   0.189 -0.0950  1.5879 -0.0745
   19MOL   H149 3785   0.965   6.420   0.449  1.1518  0.4086  2.2653
   19MOL   H150 3786   0.826   6.362   0.548  2.0377  0.3235  0.7122
   19MOL   H151 3787   0.957   6.257   0.518  0.0459  1.4050  1.7204
   19MOL   C152 3788   1.010   6.296   0.170 -0.4769 -0.1420  0.3295
   19MOL   C153 3789   0.949   6.414   0.084 -0.1321  0.1314 -0.0700
   19MOL   O154 3790   1.060   6.474   0.019 -0.5097  0.3364  0.1338
   19MOL   C155 3791   1.101   6.598   0.068 -0.2864 -0.3408 -0.2478
   19MOL   H156 3792   1.049   6.235   0.088 -0.7292  2.5546 -1.9077
   19MOL   H157 3793   1.100   6.324   0.226 -3.0092  1.4902  3.7303
   19MOL   H158 3794   0.907   6.495   0.144 -0.5661 -1.3109  1.6100
   19MOL   H159 3795   1.094   6.593   0.177 -0.1913 -0.9938 -0.2711
   19MOL   H160 3796   1.198   6.632   0.032 -0.5398 -0.7905 -1.3595
   19MOL   H161 3797   1.023   6.668   0.038 -0.3246 -1.0106 -1.7126
   19MOL   C162 3798   0.840   6.390   7.777 -0.3661 -0.5504  0.0711
   19MOL   C163 3799   0.794   6.513   7.703 -0.5396  0.1847 -0.1691
   19MOL   O164 3800   0.730   6.472   7.584 -0.3536  0.3613  0.0517
   19MOL   C165 3801   0.731   6.567   7.477 -0.0033 -0.0612 -0.1023
   19MOL   H166 3802   0.750   6.338   0.000 -0.0866 -1.9086 -1.2163
   19MOL   H167 3803   0.892   6.326   7.706 -0.5600  0.0605 -0.6237
   19MOL   H168 3804   0.882   6.575   7.685  1.1957 -1.6363  1.8607
   19MOL   H169 3805   0.703   6.514   7.386 -0.0202 -0.6332  0.2345
   19MOL   H170 3806   0.661   6.648   7.497  3.5989  2.7995  1.6185
   19MOL   H171 3807   0.833   6.605   7.473 -0.4030  0.9395 -1.1639
   19MOL   C172 3808   0.688   6.589   7.787 -0.1427 -0.0516 -0.0312
   19MOL   C173 3809   0.710   6.733   0.013 -0.2668 -0.6403  0.0858
   19MOL   O174 3810   0.713   6.800   7.702  0.4631 -0.4948 -0.4294
   19MOL   C175 3811   0.768   6.929   7.706 -0.6528 -0.1580 -0.3677
   19MOL   H176 3812   0.671   6.542   0.074  0.1203 -0.2504 -0.0800
   19MOL   H177 3813   0.592   6.572   7.737  0.9738 -1.7370 -1.6933
   19MOL   H178 3814   0.796   6.728   0.080 -1.8201  0.8858  2.2639
   19MOL   H179 3815   0.717   6.995   7.777  0.3903  0.8570 -0.5448
   19MOL   H180 3816   0.874   6.942   7.726 -1.0460  0.8887  1.1697
   19MOL   H181 3817   0.751   6.976   7.609 -0.3730  0.6645 -0.0262
   19MOL   C182 3818   0.603   6.790   0.115 -0.2270  0.2185  0.3463
   19MOL   C183 3819   0.605   6.730   0.257 -0.0328 -0.0023  0.2391
   19MOL   O184 3820   0.734   6.744   0.314  0.5180  0.3784 -0.0731
   19MOL   C185 3821   0.759   6.648   0.414 -0.0946 -0.4444  0.1849
   19MOL   H186 3822   0.507   6.779   0.064 -0.3052  2.6035 -0.0702
   19MOL   H187 3823   0.621   6.897   0.121  1.1299 -0.0393  0.9727
   19MOL   H188 3824   0.579   6.625   0.263 -1.0950  0.1542 -1.3384
   19MOL   H189 3825   0.805   6.562   0.367  0.8062  0.2436 -0.2064
   19MOL   H190 3826   0.830   6.682   0.489  1.6683  3.3763 -3.0515
   19MOL   H191 3827   0.671   6.615   0.470  0.1767 -1.3046  0.1110
   19MOL   C192 3828   0.499   6.805   0.338  0.1506 -0.5912 -0.0863
   19MOL   C193 3829   0.545   6.943   0.386 -0.3274 -0.2348  0.5140
   19MOL   O194 3830   0.432   7.007   0.432  0.2674 -0.5978  0.4379
   19MOL   C195 3831   0.485   7.127   0.487 -0.1559 -0.1087  0.2519
   19MOL   H196 3832   0.451   6.761   0.426  0.2618  1.3437  0.9853
   19MOL   H197 3833   0.418   6.825   0.267  0.1988 -1.7746 -0.4821
   19MOL   H198 3834   0.595   7.006   0.312 -0.7978 -0.8397 -0.3195
   19MOL   H199 3835   0.412   7.207   0.497 -0.0435 -0.0471  0.5802
   19MOL   H200 3836   0.533   7.111   0.583  1.3241 -0.7321 -0.5718
   19MOL   H201 3837   0.557   7.181   0.425 -1.0449 -0.9837 -1.5895
   19MOL   H202 3838   0.612   6.919   0.468 -0.8885 -0.8193  0.8016
   20MOL     C1 3839   3.097   4.776   1.323  0.1519  0.1109 -0.9067
   20MOL     C2 3840   3.017   4.901   1.351  0.3025  0.1234 -1.1915
   20MOL     O3 3841   2.887   4.864   1.410  0.0379 -0.1791 -0.8039
   20MOL     C4 3842   2.771   4.951   1.399  0.6872  0.2844  0.5724
   20MOL     H5 3843   3.204   4.792   1.309  0.1890  0.4694 -0.2221
   20MOL     H6 3844   3.095   4.716   1.414 -1.8612  1.7160  0.1593
   20MOL     H7 3845   3.004   4.953   1.256  0.8517  0.5846 -1.0202
   20MOL     H8 3846   2.682   4.889   1.406  1.3973 -0.8297 -0.0320
   20MOL     H9 3847   2.766   5.029   1.474 -0.2564 -0.3145  1.1404
   20MOL    H10 3848   2.761   4.997   1.301  1.1113  1.4591  1.0700
   20MOL    H11 3849   3.056   4.725   1.235  0.5225  0.0982 -1.0715
   20MOL    C12 3850   3.089   5.004   1.445  0.5453  0.2655  0.2497
   20MOL    C13 3851   3.150   4.953   1.581 -0.9279  0.3771  0.2869
   20MOL    O14 3852   3.189   5.075   1.660 -1.1570  0.4769 -0.4412
   20MOL    C15 3853   3.307   5.145   1.617  0.0339  0.2726  0.1451
   20MOL    H16 3854   3.005   5.072   1.462  0.6552  0.7317 -1.0068
   20MOL    H17 3855   3.168   5.053   1.388  0.2995  0.1920 -0.1587
   20MOL    H18 3856   3.241   4.894   1.572 -0.0700  2.0771 -2.9080
   20MOL    H19 3857   3.392   5.077   1.617  0.1773  0.4547  0.2048
   20MOL    H20 3858   3.302   5.187   1.516  1.8619 -0.0387 -0.0904
   20MOL    H21 3859   3.332   5.226   1.684 -1.3243  1.4420 -0.7279
   20MOL    C22 3860   3.053   4.879   1.671 -0.3986 -0.4558 -0.5478
   20MOL    C23 3861   3.097   4.849   1.812  0.0808  0.6118  0.0042
   20MOL    O24 3862   2.993   4.780   1.887 -0.1459  0.4076  0.2462
   20MOL    C25 3863   2.949   4.853   2.000 -0.3130  0.2810 -0.1304
   20MOL    H26 3864   3.030   4.784   1.622 -3.1402 -0.4496  0.6267
   20MOL    H27 3865   2.953   4.921   1.659  0.5545  1.9989  0.0324
   20MOL    H28 3866   3.128   4.943   1.858 -1.3420  1.6953 -1.1884
   20MOL    H29 3867   3.017   4.889   2.078 -0.3955  1.3427 -0.5383
   20MOL    H30 3868   2.897   4.945   1.970 -1.7531  0.1150  1.7196
   20MOL    H31 3869   2.873   4.794   2.051  0.4966 -1.4718 -0.9214
   20MOL    C32 3870   3.214   4.740   1.815 -0.2164  0.0332  0.2478
   20MOL    C33 3871   3.278   4.703   1.957 -0.2939 -1.0621 -0.3477
   20MOL    O34 3872   3.384   4.608   1.942 -0.3570 -0.0642  0.3491
   20MOL    C35 3873   3.343   4.471   1.958 -0.3661  0.2023  0.1386
   20MOL    H36 3874   3.295   4.784   1.757 -0.8969  1.4907  0.3915
   20MOL    H37 3875   3.182   4.650   1.762 -1.0139  1.0684 -1.0512
   20MOL    H38 3876   3.212   4.654   2.029  0.1812 -1.8076 -0.4158
   20MOL    H39 3877   3.269   4.435   1.886 -0.1642  0.9552 -0.4524
   20MOL    H40 3878   3.432   4.408   1.957 -1.0693 -0.7993 -0.1098
   20MOL    H41 3879   3.300   4.458   2.057 -1.5939  3.0142  0.0231
   20MOL    C42 3880   3.331   4.829   2.029 -0.8457 -0.4363 -0.0965
   20MOL    C43 3881   3.457   4.892   1.974 -0.3257  0.5989 -0.6298
   20MOL    O44 3882   3.453   5.016   2.031 -0.5088 -0.5045 -0.2616
   20MOL    C45 3883   3.450   5.128   1.941  0.3541 -0.3732  0.2262
   20MOL    H46 3884   3.359   4.806   2.132  0.4211  2.8700  0.3374
   20MOL    H47 3885   3.252   4.902   2.045 -1.4687 -1.1346  0.0443
   20MOL    H48 3886   3.453   4.899   1.866 -0.6806 -1.5772 -0.7837
   20MOL    H49 3887   3.524   5.121   1.862  0.1673 -1.7037  0.1491
   20MOL    H50 3888   3.351   5.127   1.897  0.0230 -0.8451  0.9598
   20MOL    H51 3889   3.476   5.213   2.004  0.9895  0.9547 -1.7995
   20MOL    C52 3890   3.590   4.825   2.027  0.1738 -0.3007  0.7752
   20MOL    C53 3891   3.725   4.892   1.985 -0.0181 -0.6943 -0.6258
   20MOL    O54 3892   3.823   4.845   2.073  0.2817 -0.2295  0.2335
   20MOL    C55 3893   3.822   4.895   2.206  0.0917  0.6260 -0.7778
   20MOL    H56 3894   3.605   4.721   2.001  3.0401  0.2896 -0.1035
   20MOL    H57 3895   3.578   4.830   2.135 -0.1756  2.1993  0.6485
   20MOL    H58 3896   3.722   5.001   1.990 -0.3737 -0.7182 -0.3255
   20MOL    H59 3897   3.726   4.878   2.255  0.6098  0.3205  0.1506
   20MOL    H60 3898   3.905   4.850   2.260 -0.3220 -0.9895 -1.4396
   20MOL    H61 3899   3.844   5.001   2.206 -0.7891  0.8224  0.9529
   20MOL    C62 3900   3.762   4.857   1.831  0.0414  0.1690 -0.2895
   20MOL    C63 3901   3.876   4.933   1.761 -0.1984  0.2935  0.4322
   20MOL    O64 3902   3.883   4.864   1.635  0.5587 -0.2309 -0.2489
   20MOL    C65 3903   4.014   4.868   1.574  0.2611 -0.4600 -0.1191
   20MOL    H66 3904   3.672   4.877   1.773  0.8543 -3.8883 -3.1463
   20MOL    H67 3905   3.783   4.751   1.820 -0.9301 -0.0716  0.0543
   20MOL    H68 3906   3.971   4.922   1.814 -1.0263 -0.2451  1.8549
   20MOL    H69 3907   4.004   4.832   1.471 -1.5811 -2.9195  0.8770
   20MOL    H70 3908   4.071   4.960   1.562 -0.4623 -0.0013 -0.1320
   20MOL    H71 3909   4.075   4.810   1.642  0.3657  1.9656  1.9428
   20MOL    C72 3910   3.852   5.075   1.736  0.3363  0.2428 -0.6718
   20MOL    C73 3911   3.949   5.176   1.806  0.1238  0.1993 -0.2156
   20MOL    O74 3912   3.955   5.285   1.714 -0.3244  0.7544 -0.4511
   20MOL    C75 3913   4.054   5.274   1.613  0.1884 -0.0864 -0.5414
   20MOL    H76 3914   3.753   5.104   1.770  0.0157 -2.0831  0.4527
   20MOL    H77 3915   3.848   5.093   1.628 -1.4425  1.4999 -0.4178
   20MOL    H78 3916   4.053   5.144   1.816 -0.5787 -1.5761  1.9011
   20MOL    H79 3917   4.038   5.344   1.531 -1.9305 -0.3293 -0.3820
   20MOL    H80 3918   4.157   5.283   1.646 -1.3120  1.6571  4.2273
   20MOL    H81 3919   4.047   5.183   1.554  0.2478 -0.1796 -0.4038
   20MOL    C82 3920   3.904   5.222   1.942 -0.2399 -1.0548 -0.2155
   20MOL    C83 3921   3.990   5.331   2.009  0.7218  0.1356 -0.3725
   20MOL    O84 3922   3.939   5.369   2.138  0.2289 -0.1275 -0.5220
   20MOL    C85 3923   3.840   5.469   2.140  0.0355 -0.4541 -0.8539
   20MOL    H86 3924   3.879   5.142   2.011  0.1509 -1.5292 -0.6217
   20MOL    H87 3925   3.807   5.269   1.927  0.9121  1.4154 -0.2307
   20MOL    H88 3926   4.003   5.417   1.944 -3.0258  1.8412  0.9859
   20MOL    H89 3927   3.741   5.439   2.106  0.2646  0.9665 -2.8690
   20MOL    H90 3928   3.834   5.514   2.238  3.7850  1.4592 -1.3870
   20MOL    H91 3929   3.870   5.550   2.073 -1.5462 -0.1766 -1.2303
   20MOL    C92 3930   4.141   5.294   2.027 -0.8808 -0.2728 -0.0033
   20MOL    C93 3931   4.228   5.406   2.089  0.0890  0.1137 -0.0657
   20MOL    O94 3932   4.276   5.367   2.220 -0.0041 -0.0485 -0.0375
   20MOL    C95 3933   4.206   5.431   2.324  0.2425  0.1781  0.9413
   20MOL    H96 3934   4.191   5.247   1.942 -0.0615 -2.7641  1.7796
   20MOL    H97 3935   4.148   5.214   2.101 -0.4193 -1.2179 -1.0525
   20MOL    H98 3936   4.163   5.494   2.093 -0.6164 -0.2877 -1.9642
   20MOL    H99 3937   4.099   5.416   2.313 -0.2459  1.1057  3.9004
   20MOL   H100 3938   4.257   5.399   2.415  0.6512 -1.1290  0.2640
   20MOL   H101 3939   4.228   5.537   2.313 -3.4155  0.7398 -1.6934
   20MOL   C102 3940   4.349   5.440   2.002 -0.6674  1.0054 -0.8464
   20MOL   C103 3941   4.310   5.495   1.864 -0.2041 -0.1412  0.2563
   20MOL   O104 3942   4.244   5.620   1.874 -0.3000 -0.5696 -0.3391
   20MOL   C105 3943   4.146   5.633   1.775  0.5793  0.3868  0.4085
   20MOL   H106 3944   4.400   5.344   1.999  0.0682  1.2799  2.0102
   20MOL   H107 3945   4.405   5.510   2.064  0.8087 -1.1797  0.3429
   20MOL   H108 3946   4.244   5.425   1.813  0.2696  0.5834 -1.3886
   20MOL   H109 3947   4.187   5.640   1.674 -2.2271  1.4525 -0.7106
   20MOL   H110 3948   4.085   5.542   1.768 -2.6364  2.4377  0.6114
   20MOL   H111 3949   4.085   5.719   1.801 -0.5271 -0.5607  0.9942
   20MOL   C112 3950   4.432   5.500   1.770 -0.0560 -0.4033  0.1028
   20MOL   C113 3951   4.552   5.588   1.809  0.3487 -0.2461  0.0001
   20MOL   O114 3952   4.663   5.540   1.736 -0.2236  0.7244 -0.2044
   20MOL   C115 3953   4.730   5.431   1.799 -0.0298  0.0808  0.2124
   20MOL   H116 3954   4.383   5.526   1.676 -2.6347 -3.1581  0.6041
   20MOL   H117 3955   4.472   5.399   1.755  0.1788  0.0169 -2.3701
   20MOL   H118 3956   4.577   5.570   1.914 -0.5269  1.8077  0.5955
   20MOL   H119 3957   4.798   5.387   1.726 -1.1361  0.2175 -0.9160
   20MOL   H120 3958   4.798   5.463   1.879 -1.7270  0.2858  1.6062
   20MOL   H121 3959   4.659   5.364   1.847 -0.2544  1.1403  1.3922
   20MOL   C122 3960   4.539   5.740   1.797 -0.0257  0.0150  0.3774
   20MOL   C123 3961   4.649   5.819   1.876  0.7339 -0.6687 -0.0475
   20MOL   O124 3962   4.675   5.923   1.783  0.5058  0.4524 -0.0358
   20MOL   C125 3963   4.820   5.954   1.765 -0.2822 -0.1077 -0.1819
   20MOL   H126 3964   4.441   5.780   1.822 -0.5068 -0.3683 -0.8861
   20MOL   H127 3965   4.542   5.763   1.691  1.1348 -3.1175 -0.3163
   20MOL   H128 3966   4.733   5.750   1.888  1.0723 -0.5845 -1.7917
   20MOL   H129 3967   4.887   5.868   1.761 -0.0988  0.0928 -2.2333
   20MOL   H130 3968   4.842   6.026   1.686  1.1883  0.2637  0.5502
   20MOL   H131 3969   4.849   6.014   1.851  1.0077 -2.1637  0.8645
   20MOL   C132 3970   4.599   5.882   2.011  0.0558 -1.1273 -0.8394
   20MOL   C133 3971   4.605   5.781   2.135  0.1295  0.5384  0.5238
   20MOL   O134 3972   4.743   5.743   2.147 -0.2236  0.6425 -0.3830
   20MOL   C135 3973   4.752   5.608   2.192  0.8523 -0.4547 -0.8303
   20MOL   H136 3974   4.494   5.910   2.004  0.9555  2.2412 -1.5991
   20MOL   H137 3975   4.663   5.969   2.023 -1.3616  0.3342 -3.3493
   20MOL   H138 3976   4.540   5.696   2.114 -0.5388  1.0656  0.4136
   20MOL   H139 3977   4.716   5.545   2.111 -0.9195  0.0157 -0.4211
   20MOL   H140 3978   4.860   5.591   2.195  0.4914 -3.1865 -1.7508
   20MOL   H141 3979   4.703   5.594   2.289 -1.7950 -0.7839 -2.1772
   20MOL   C142 3980   4.560   5.839   2.271  0.3887  0.1638  0.3464
   20MOL   C143 3981   4.415   5.893   2.269 -0.8358  0.7073  0.3702
   20MOL   O144 3982   4.324   5.788   2.234 -0.0450  0.2127 -0.5524
   20MOL   C145 3983   4.219   5.826   2.141 -0.6404  0.4597  0.0110
   20MOL   H146 3984   4.623   5.925   2.297 -0.8656  2.1947 -2.9752
   20MOL   H147 3985   4.570   5.765   2.350 -0.5674 -0.6961 -0.3214
   20MOL   H148 3986   4.410   5.978   2.201 -1.3983  0.6333  0.3216
   20MOL   H149 3987   4.186   5.929   2.154  3.8418  2.1015 -0.8002
   20MOL   H150 3988   4.257   5.813   2.040 -1.6182  1.2078 -0.4639
   20MOL   H151 3989   4.135   5.757   2.150 -0.6750  0.3481 -1.0866
   20MOL   C152 3990   4.383   5.957   2.408 -0.0746  0.1659  0.8083
   20MOL   C153 3991   4.401   5.872   2.540  0.3353  0.4538  0.1348
   20MOL   O154 3992   4.364   5.974   2.641  0.0248 -0.0083  0.6444
   20MOL   C155 3993   4.472   6.035   2.717  0.1863 -0.8492  0.7834
   20MOL   H156 3994   4.282   5.997   2.401  0.3142  0.8911 -0.9904
   20MOL   H157 3995   4.450   6.043   2.417 -0.1467  0.6174 -2.3890
   20MOL   H158 3996   4.506   5.848   2.559 -0.0187  0.0068  1.5963
   20MOL   H159 3997   4.437   6.082   2.809 -1.8909  0.0170 -0.3943
   20MOL   H160 3998   4.547   5.964   2.750  1.4112  0.9232  1.9117
   20MOL   H161 3999   4.521   6.106   2.650 -0.0551 -0.9816  0.4613
   20MOL   C162 4000   4.311   5.750   2.544 -0.1985  0.3533  0.2663
   20MOL   C163 4001   4.329   5.667   2.672  0.0514  0.6293  0.3086
   20MOL   O164 4002   4.254   5.548   2.651 -0.3485 -0.5690  0.4865
   20MOL   C165 4003   4.126   5.547   2.717 -0.3457 -0.7185 -0.2877
   20MOL   H166 4004   4.349   5.682   2.468  1.4086  0.0634  1.2824
   20MOL   H167 4005   4.209   5.782   2.523 -0.3749 -0.7676 -0.6512
   20MOL   H168 4006   4.289   5.738   2.745 -0.6181 -1.9185  2.4692
   20MOL   H169 4007   4.064   5.617   2.662 -1.1449 -0.1309  1.3184
   20MOL   H170 4008   4.072   5.453   2.707  0.8085 -1.8633  3.4250
   20MOL   H171 4009   4.120   5.578   2.822 -0.3876 -3.4081  0.5373
   20MOL   C172 4010   4.476   5.624   2.712 -0.0710 -0.2670 -0.1039
   20MOL   C173 4011   4.497   5.557   2.851 -0.5328 -0.4551 -0.0921
   20MOL   O174 4012   4.634   5.529   2.866  0.2032  0.4009  0.5812
   20MOL   C175 4013   4.665   5.387   2.852 -0.0891  0.2867 -0.1336
   20MOL   H176 4014   4.533   5.717   2.714  0.5855 -0.6890  1.5930
   20MOL   H177 4015   4.519   5.557   2.637 -2.2394  0.8540 -2.4190
   20MOL   H178 4016   4.431   5.470   2.853  0.2011 -1.0213 -0.3318
   20MOL   H179 4017   4.625   5.332   2.937 -2.2406  2.7703  0.5433
   20MOL   H180 4018   4.632   5.354   2.754 -0.9999 -0.2673  0.3623
   20MOL   H181 4019   4.773   5.374   2.861 -0.1755  0.3429  1.1237
   20MOL   C182 4020   4.472   5.666   2.957  0.4839  0.2574 -0.2106
   20MOL   C183 4021   4.477   5.604   3.099  0.5010 -0.7752 -0.6781
   20MOL   O184 4022   4.581   5.660   3.167 -0.8689 -0.2449  0.2834
   20MOL   C185 4023   4.698   5.593   3.164 -1.0030 -0.1900  0.4751
   20MOL   H186 4024   4.382   5.726   2.943 -0.2512 -0.3208  1.7920
   20MOL   H187 4025   4.546   5.746   2.949  1.2570 -0.5289 -1.0422
   20MOL   H188 4026   4.483   5.495   3.097  1.0815 -0.8170  1.9943
   20MOL   H189 4027   4.689   5.491   3.202  1.9425 -0.7870 -0.2735
   20MOL   H190 4028   4.748   5.598   3.068 -0.7299 -2.7032  0.4435
   20MOL   H191 4029   4.764   5.646   3.232  1.9167 -2.1011 -0.7777
   20MOL   C192 4030   4.344   5.626   3.183 -0.5239  0.3009  0.3639
   20MOL   C193 4031   4.333   5.554   3.310 -0.2188 -0.0804  0.1886
   20MOL   O194 4032   4.361   5.415   3.302  0.0025  0.1375  1.2200
   20MOL   C195 4033   4.313   5.339   3.409  0.5882 -0.1625 -0.6084
   20MOL   H196 4034   4.259   5.597   3.123 -0.0816 -1.7888  0.7335
   20MOL   H197 4035   4.338   5.733   3.205 -0.4028  0.3654  0.0842
   20MOL   H198 4036   4.228   5.570   3.334 -0.5610  0.4783 -1.6164
   20MOL   H199 4037   4.357   5.371   3.504 -0.4400  2.9576 -1.1028
   20MOL   H200 4038   4.206   5.343   3.424  0.6413 -0.0336 -0.2540
   20MOL   H201 4039   4.338   5.234   3.395  0.3202 -0.2732 -0.2411
   20MOL   H202 4040   4.392   5.595   3.392 -1.3081  0.8578  0.4968
   21MOL     C1 4041   0.761   1.389   6.912 -0.1608  0.3371 -0.6924
   21MOL     C2 4042   0.782   1.366   6.766  0.3270  0.0692  0.4931
   21MOL     O3 4043   0.789   1.225   6.739 -0.0289  0.0635  0.0408
   21MOL     C4 4044   0.915   1.168   6.780 -0.2712  0.2581 -0.4307
   21MOL     H5 4045   0.747   1.493   6.940  0.7049  0.2191  0.1968
   21MOL     H6 4046   0.680   1.330   6.956  1.5058  0.3158  2.4975
   21MOL     H7 4047   0.873   1.413   6.728  1.1343 -2.0731 -0.3170
   21MOL     H8 4048   0.990   1.247   6.768  1.5464 -1.5816 -1.3782
   21MOL     H9 4049   0.912   1.149   6.887 -0.1861  1.1423 -0.2620
   21MOL    H10 4050   0.941   1.078   6.724  0.6967  0.7468 -0.7858
   21MOL    H11 4051   0.826   1.346   6.989 -1.2327 -0.9546 -0.4893
   21MOL    C12 4052   0.661   1.429   6.693 -1.3287  0.5162 -0.7115
   21MOL    C13 4053   0.664   1.428   6.536 -0.7432 -0.4378 -0.5242
   21MOL    O14 4054   0.539   1.474   6.495  0.3571  0.4845  0.1375
   21MOL    C15 4055   0.444   1.373   6.475 -0.2845  0.3289  0.5362
   21MOL    H16 4056   0.652   1.532   6.729 -1.1657 -0.6013  2.6917
   21MOL    H17 4057   0.579   1.371   6.736 -0.2972  0.0291  0.6192
   21MOL    H18 4058   0.681   1.323   6.512 -1.4796 -0.9280  1.0608
   21MOL    H19 4059   0.417   1.311   6.561  0.4200  1.5778  1.6781
   21MOL    H20 4060   0.350   1.420   6.444  0.0495 -0.6870 -2.1433
   21MOL    H21 4061   0.462   1.305   6.391 -1.5314  0.3616  0.2343
   21MOL    C22 4062   0.774   1.523   6.486  0.1871  0.1178 -0.2009
   21MOL    C23 4063   0.845   1.472   6.357 -0.0440 -0.2225 -0.2665
   21MOL    O24 4064   0.901   1.588   6.289  0.3137  0.2453  0.1135
   21MOL    C25 4065   1.006   1.670   6.339  0.3806  0.3545  0.0867
   21MOL    H26 4066   0.840   1.559   6.565 -0.9177  1.5005  0.1229
   21MOL    H27 4067   0.725   1.613   6.448  1.0173  0.8607  0.4431
   21MOL    H28 4068   0.762   1.438   6.295 -1.7395 -1.4855  2.5919
   21MOL    H29 4069   1.038   1.733   6.256  1.3126  0.1243  0.2750
   21MOL    H30 4070   0.982   1.734   6.424  1.1250  1.6550 -0.6727
   21MOL    H31 4071   1.092   1.613   6.373  0.4366  1.8727  2.5950
   21MOL    C32 4072   0.954   1.368   6.391 -0.0944  0.0849  0.0617
   21MOL    C33 4073   1.039   1.326   6.271 -0.7494  0.3188 -0.0514
   21MOL    O34 4074   1.113   1.217   6.315  0.2199  0.2224 -0.2245
   21MOL    C35 4075   1.252   1.241   6.300  0.0896  0.4765 -0.3706
   21MOL    H36 4076   0.905   1.275   6.420  1.0547 -0.7075 -0.5180
   21MOL    H37 4077   1.016   1.395   6.476 -0.2476  3.4569 -0.8232
   21MOL    H38 4078   1.109   1.400   6.233 -0.2670 -0.3199 -0.4206
   21MOL    H39 4079   1.280   1.263   6.197 -1.3067  0.1215 -0.8307
   21MOL    H40 4080   1.283   1.326   6.361 -3.4497  0.4340  1.5646
   21MOL    H41 4081   1.315   1.160   6.337  0.8238  0.1249 -2.3182
   21MOL    C42 4082   0.970   1.264   6.147  0.1231 -0.0406 -0.7164
   21MOL    C43 4083   0.939   1.362   6.029 -0.0432  0.1656 -0.1929
   21MOL    O44 4084   1.057   1.409   5.988 -0.3000 -0.4854  0.4263
   21MOL    C45 4085   1.038   1.533   5.913 -0.6013  0.1557 -0.1653
   21MOL    H46 4086   0.878   1.215   6.178  0.2183  0.3427  0.1834
   21MOL    H47 4087   1.029   1.183   6.105  1.2530  0.0970  0.5914
   21MOL    H48 4088   0.869   1.441   6.055 -0.8278 -0.7256  0.4326
   21MOL    H49 4089   1.135   1.564   5.873 -2.1849 -1.8314 -5.9503
   21MOL    H50 4090   0.977   1.528   5.824 -2.6384 -0.4918  1.2406
   21MOL    H51 4091   0.995   1.611   5.977 -0.2626 -1.0282  1.5498
   21MOL    C52 4092   0.881   1.279   5.909 -0.4506 -0.8910 -0.9272
   21MOL    C53 4093   0.740   1.219   5.925  0.9758 -0.8957  0.3925
   21MOL    O54 4094   0.652   1.323   5.962  0.1544 -0.4811  0.2469
   21MOL    C55 4095   0.593   1.294   6.085 -0.2643  0.2438 -0.4149
   21MOL    H56 4096   0.945   1.196   5.877 -1.6245 -2.7314  1.4153
   21MOL    H57 4097   0.875   1.337   5.816 -1.6018 -1.3559 -1.1410
   21MOL    H58 4098   0.738   1.137   5.996 -0.7085 -1.7053 -0.5465
   21MOL    H59 4099   0.544   1.198   6.071 -0.8473  0.1815  1.8348
   21MOL    H60 4100   0.659   1.301   6.171 -0.2376 -1.9248 -0.2332
   21MOL    H61 4101   0.511   1.364   6.101  0.0237  1.1304 -2.5880
   21MOL    C62 4102   0.693   1.161   5.790  0.0719 -0.1898  0.7760
   21MOL    C63 4103   0.566   1.082   5.759 -0.2232 -0.2186 -0.2077
   21MOL    O64 4104   0.573   0.987   5.864  0.2949  0.8128 -0.2301
   21MOL    C65 4105   0.536   0.852   5.822  0.0174  0.1217  0.3518
   21MOL    H66 4106   0.768   1.086   5.765 -0.1587 -0.1864  0.0723
   21MOL    H67 4107   0.701   1.240   5.715 -1.1409 -1.4227 -0.6769
   21MOL    H68 4108   0.583   1.029   5.666 -1.3023 -0.9312 -0.0110
   21MOL    H69 4109   0.523   0.794   5.913  1.8511  0.8768  1.1038
   21MOL    H70 4110   0.442   0.848   5.767  1.1389 -0.2460 -1.5969
   21MOL    H71 4111   0.615   0.793   5.776 -0.2816 -1.1280  1.4108
   21MOL    C72 4112   0.433   1.160   5.761  0.7238  0.3915  0.4687
   21MOL    C73 4113   0.420   1.261   5.651  0.3636  0.7582  0.1916
   21MOL    O74 4114   0.425   1.181   5.536  0.3054  0.1448 -0.1752
   21MOL    C75 4115   0.457   1.256   5.416 -0.8537 -0.0900  0.3922
   21MOL    H76 4116   0.447   1.218   5.852  1.0976  0.2352  0.5144
   21MOL    H77 4117   0.347   1.093   5.766  0.8788  0.0570 -1.2008
   21MOL    H78 4118   0.511   1.320   5.640  0.4630  0.6038  0.1834
   21MOL    H79 4119   0.433   1.361   5.432 -0.1231  0.3169 -1.1177
   21MOL    H80 4120   0.566   1.251   5.413 -0.8445 -0.8796  1.7909
   21MOL    H81 4121   0.415   1.213   5.325 -0.6765 -0.8424  0.6633
   21MOL    C82 4122   0.278   1.341   5.665  0.1502 -0.0510  0.5504
   21MOL    C83 4123   0.280   1.450   5.782  0.6049  0.6058  0.0023
   21MOL    O84 4124   0.351   1.561   5.732  0.5719  0.1448 -0.3251
   21MOL    C85 4125   0.444   1.619   5.829 -0.1134 -0.7810  0.4669
   21MOL    H86 4126   0.193   1.274   5.679  1.4802 -1.5036  1.9732
   21MOL    H87 4127   0.261   1.400   5.575  0.0245  0.0202  0.6228
   21MOL    H88 4128   0.341   1.410   5.863  0.9349  1.2758  0.0900
   21MOL    H89 4129   0.403   1.681   5.909  1.0644  1.9683 -0.9911
   21MOL    H90 4130   0.519   1.545   5.858  0.9618  0.3945  0.7223
   21MOL    H91 4131   0.499   1.692   5.769 -1.7249 -1.9867 -2.5691
   21MOL    C92 4132   0.143   1.482   5.845  0.1205  0.2015 -1.3201
   21MOL    C93 4133   0.045   1.569   5.768  0.4620 -0.4647  0.1440
   21MOL    O94 4134   7.715   1.540   5.810 -0.0230 -0.4088 -0.2803
   21MOL    C95 4135   7.678   1.545   5.951 -0.2740  0.2925  0.5304
   21MOL    H96 4136   0.150   1.534   5.941 -1.5613  2.3277 -2.2913
   21MOL    H97 4137   0.092   1.388   5.866  1.5448 -0.3422 -0.1924
   21MOL    H98 4138   0.055   1.531   5.667  0.2449  2.4219 -1.0054
   21MOL    H99 4139   7.716   1.457   6.003 -0.2163 -0.5250 -0.9006
   21MOL   H100 4140   7.740   1.624   5.994  1.3537  0.3238 -1.7838
   21MOL   H101 4141   7.575   1.569   5.976  0.5308  1.7780  2.5887
   21MOL   C102 4142   0.060   1.718   5.763 -0.5465 -0.0199  0.0195
   21MOL   C103 4143   7.795   1.787   5.645  0.1724  1.0967  0.2944
   21MOL   O104 4144   7.764   1.917   5.684  0.0566  0.6188 -0.4635
   21MOL   C105 4145   7.655   1.927   5.772  0.0377  0.7170 -0.1269
   21MOL   H106 4146   0.165   1.744   5.750 -0.6861  0.8611  0.5941
   21MOL   H107 4147   0.029   1.759   5.860  2.7876  1.8690  0.3579
   21MOL   H108 4148   7.704   1.730   5.625  0.2539  0.4957  1.5608
   21MOL   H109 4149   7.697   1.941   5.871 -1.5007  1.2546  0.4540
   21MOL   H110 4150   7.594   2.011   5.739 -0.6262  0.0390 -0.6433
   21MOL   H111 4151   7.593   1.838   5.763 -1.2547  1.2755  2.7689
   21MOL   C112 4152   0.067   1.793   5.514  0.1850 -0.1442 -0.8928
   21MOL   C113 4153   7.792   1.857   5.399  0.0492 -0.2928 -0.6157
   21MOL   O114 4154   0.058   1.884   5.291  0.9437 -0.0873  0.7266
   21MOL   C115 4155   0.038   2.014   5.233  0.0611  0.1013 -0.1375
   21MOL   H116 4156   0.092   1.689   5.493 -1.6272 -0.9392  0.7338
   21MOL   H117 4157   0.157   1.849   5.542 -1.7277  1.3925  2.4972
   21MOL   H118 4158   7.744   1.950   5.431  1.4564  0.7543 -1.4399
   21MOL   H119 4159   0.083   2.084   5.303 -0.4403  0.9406 -0.6551
   21MOL   H120 4160   0.104   2.036   5.148  2.9016  0.5121  2.0997
   21MOL   H121 4161   7.741   2.028   5.225  0.2826  1.3813 -0.9580
   21MOL   C122 4162   7.682   1.761   5.341  0.1625  0.4106  0.2449
   21MOL   C123 4163   7.537   1.802   5.385 -0.0798  0.1628 -0.3559
   21MOL   O124 4164   7.509   1.916   5.314 -0.3965 -0.5686  0.0341
   21MOL   C125 4165   7.417   2.009   5.381 -0.3429  0.7899  0.0066
   21MOL   H126 4166   7.705   1.658   5.365 -1.6962 -0.5837 -2.0449
   21MOL   H127 4167   7.661   1.762   5.234 -0.9699 -1.2538  0.4260
   21MOL   H128 4168   7.539   1.828   5.491 -1.0397  0.0628 -0.3084
   21MOL   H129 4169   7.326   1.964   5.420 -0.2350  0.1200 -0.4976
   21MOL   H130 4170   7.465   2.055   5.467 -0.7209  0.2738  0.4963
   21MOL   H131 4171   7.393   2.090   5.311  1.9185  0.9664 -0.6057
   21MOL   C132 4172   7.423   1.704   5.360 -0.2432 -0.2084 -0.0841
   21MOL   C133 4173   7.412   1.596   5.466 -0.0898  0.4013 -0.1042
   21MOL   O134 4174   7.342   1.658   5.579 -0.0114 -0.0021 -0.1703
   21MOL   C135 4175   7.362   1.581   5.704  0.1505 -0.4415  0.3573
   21MOL   H136 4176   7.441   1.661   5.262 -2.1511 -0.5727 -0.2993
   21MOL   H137 4177   7.325   1.751   5.349 -0.2154 -0.4491 -1.4010
   21MOL   H138 4178   7.509   1.563   5.504  0.3491  1.0418 -0.6632
   21MOL   H139 4179   7.359   1.644   5.793  1.4879 -1.7041  1.3121
   21MOL   H140 4180   7.283   1.506   5.717  1.7658 -2.3515 -0.5646
   21MOL   H141 4181   7.456   1.528   5.712  0.0897 -0.6030  0.0029
   21MOL   C142 4182   7.335   1.477   5.420  0.6523 -0.2514 -0.3395
   21MOL   C143 4183   7.404   1.396   5.311 -0.2992  0.3355 -0.1406
   21MOL   O144 4184   7.533   1.347   5.356 -0.2937 -0.4712 -0.0492
   21MOL   C145 4185   7.625   1.329   5.242  0.4840  0.0287  0.4173
   21MOL   H146 4186   7.241   1.508   5.373 -0.3924 -1.2934  0.9977
   21MOL   H147 4187   7.316   1.406   5.500 -2.0919 -0.8100 -1.4262
   21MOL   H148 4188   7.405   1.459   5.222 -2.2440  0.5717 -0.0130
   21MOL   H149 4189   7.726   1.316   5.279  0.4366  0.0235  0.5426
   21MOL   H150 4190   7.595   1.243   5.182  1.2836 -0.6425  0.9762
   21MOL   H151 4191   7.624   1.417   5.177 -2.3071  0.9539  1.6633
   21MOL   C152 4192   7.322   1.268   5.276  0.1181 -0.0054 -0.1799
   21MOL   C153 4193   7.186   1.293   5.203 -0.1160  0.2032  0.7325
   21MOL   O154 4194   7.199   1.402   5.106  0.2475  0.2725  0.0461
   21MOL   C155 4195   7.088   1.488   5.102  0.1931 -0.2740 -0.0066
   21MOL   H156 4196   7.300   1.205   5.363 -1.3382  1.2408  0.3613
   21MOL   H157 4197   7.388   1.203   5.218 -0.3377 -1.1568  0.5763
   21MOL   H158 4198   7.113   1.316   5.281  0.1237  2.3613  0.3578
   21MOL   H159 4199   6.996   1.429   5.103 -0.0842  0.1577  0.0763
   21MOL   H160 4200   7.090   1.556   5.187 -0.5784  0.7257 -0.7717
   21MOL   H161 4201   7.098   1.542   5.008 -0.5968 -1.9190 -1.0741
   21MOL   C162 4202   7.133   1.172   5.115 -0.1650  0.4129 -0.5401
   21MOL   C163 4203   7.113   1.041   5.180  0.4951  0.5537 -0.5036
   21MOL   O164 4204   7.006   1.029   5.262  0.2896 -0.6149 -0.8084
   21MOL   C165 4205   7.044   1.030   5.403 -0.2864  0.0675 -0.0554
   21MOL   H166 4206   7.199   1.145   5.033 -0.9119 -1.3961 -0.5566
   21MOL   H167 4207   7.037   1.185   5.067 -0.7936  0.1863  0.6353
   21MOL   H168 4208   7.200   1.005   5.236 -0.8037 -2.8184 -0.5257
   21MOL   H169 4209   7.118   0.958   5.438  0.4003  0.2865 -1.0461
   21MOL   H170 4210   7.079   1.129   5.429 -1.4951  0.2954  0.7337
   21MOL   H171 4211   6.958   1.014   5.468 -0.2624 -1.9964 -0.4905
   21MOL   C172 4212   7.104   0.933   5.070 -0.1364 -0.1305  0.0766
   21MOL   C173 4213   7.067   0.793   5.117 -0.4713 -0.5704 -0.2869
   21MOL   O174 4214   7.084   0.714   5.004  0.1466  0.3013 -0.1623
   21MOL   C175 4215   6.969   0.645   4.953  0.5527  0.2021  0.5680
   21MOL   H176 4216   7.199   0.930   5.017  0.9242  2.5115  1.7547
   21MOL   H177 4217   7.025   0.953   4.997 -0.2890 -0.8379  0.0434
   21MOL   H178 4218   6.964   0.787   5.152 -1.3428  1.2174 -2.3905
   21MOL   H179 4219   6.912   0.707   4.885 -0.9787 -1.6400  0.1143
   21MOL   H180 4220   7.004   0.564   4.889 -1.8236 -1.8540  1.7726
   21MOL   H181 4221   6.897   0.599   5.021  0.6271  0.9493  1.1497
   21MOL   C182 4222   7.176   0.734   5.214 -0.1974  0.2349  0.1598
   21MOL   C183 4223   7.150   0.597   5.265  0.1126  0.4827  0.0867
   21MOL   O184 4224   7.257   0.551   5.359  0.5325 -0.1645  0.3362
   21MOL   C185 4225   7.365   0.504   5.293 -0.5431  0.3604 -0.3345
   21MOL   H186 4226   7.186   0.796   5.303  3.7256  0.9230 -0.6498
   21MOL   H187 4227   7.273   0.740   5.164 -1.0299  0.0660 -1.5091
   21MOL   H188 4228   7.145   0.527   5.181  0.2481  1.8717 -1.0967
   21MOL   H189 4229   7.341   0.413   5.237 -0.0973 -1.6207  2.5505
   21MOL   H190 4230   7.401   0.578   5.223  0.3436  2.2410  2.0372
   21MOL   H191 4231   7.438   0.463   5.363  0.4113 -2.2008 -2.7260
   21MOL   C192 4232   7.023   0.590   5.347 -1.0335 -0.3309 -0.3844
   21MOL   C193 4233   7.006   0.453   5.412  0.1890  0.1176  0.1280
   21MOL   O194 4234   6.867   0.443   5.457 -0.2940  0.1368  0.3578
   21MOL   C195 4235   6.836   0.305   5.475  0.9315  0.0567 -0.5617
   21MOL   H196 4236   6.941   0.604   5.277  0.1301  3.4444 -1.1263
   21MOL   H197 4237   7.024   0.660   5.431 -0.7700 -0.3305 -0.3859
   21MOL   H198 4238   7.071   0.441   5.499 -0.4682 -3.1949  0.2293
   21MOL   H199 4239   6.819   0.264   5.375  2.1260  1.2703 -1.2774
   21MOL   H200 4240   6.912   0.246   5.527 -0.1888  0.1285  1.1853
   21MOL   H201 4241   6.751   0.298   5.542 -0.9282 -2.3943 -3.0603
   21MOL   H202 4242   7.024   0.374   5.339 -0.1083  0.1621  0.0064
   22MOL     C1 4243   3.617   4.192   0.840  0.1646  0.1635  0.0478
   22MOL     C2 4244   3.656   4.049   0.801 -1.3388 -0.7789  0.1283
   22MOL     O3 4245   3.687   3.979   0.914  1.0615  0.4797 -0.0135
   22MOL     C4 4246   3.826   3.963   0.940 -0.5476 -0.5320  0.5960
   22MOL     H5 4247   3.604   4.238   0.742  0.9907 -1.5040 -0.8808
   22MOL     H6 4248   3.527   4.195   0.901 -0.0752  0.5400 -0.3177
   22MOL     H7 4249   3.733   4.055   0.724 -0.9798  0.2898  0.5625
   22MOL     H8 4250   3.848   3.881   1.008  0.0784 -0.9956 -0.1570
   22MOL     H9 4251   3.889   3.939   0.854  0.3865 -0.3819  1.2428
   22MOL    H10 4252   3.873   4.050   0.985 -0.5155 -0.1490 -0.1708
   22MOL    H11 4253   3.694   4.244   0.897  0.4299 -3.2016  2.9504
   22MOL    C12 4254   3.538   3.974   0.737 -0.1723 -1.0123  0.6115
   22MOL    C13 4255   3.525   3.987   0.587  0.1037 -0.2137 -0.5481
   22MOL    O14 4256   3.647   3.950   0.521  0.3708  0.0752  0.5489
   22MOL    C15 4257   3.661   3.993   0.395 -0.4880 -0.5074  0.0537
   22MOL    H16 4258   3.448   3.996   0.795  0.0577 -1.0065  0.9674
   22MOL    H17 4259   3.567   3.871   0.756  3.2820 -0.0371  0.8886
   22MOL    H18 4260   3.492   4.089   0.569 -0.0661 -0.0977  0.4048
   22MOL    H19 4261   3.656   4.101   0.387  0.7472 -0.4876 -0.6694
   22MOL    H20 4262   3.762   3.961   0.367 -0.6516 -1.3113  0.3566
   22MOL    H21 4263   3.597   3.937   0.326 -0.8852  0.1507 -0.1141
   22MOL    C22 4264   3.416   3.881   0.535  0.1860 -0.3988 -0.6454
   22MOL    C23 4265   3.273   3.919   0.578  0.2067  0.1713  0.4160
   22MOL    O24 4266   3.230   4.043   0.523 -0.1723 -0.1163  0.5716
   22MOL    C25 4267   3.183   4.140   0.616  0.1454 -0.2255  0.3399
   22MOL    H26 4268   3.442   3.781   0.567 -3.0569 -1.0439  0.1643
   22MOL    H27 4269   3.412   3.886   0.426 -5.2165  1.5825 -0.5374
   22MOL    H28 4270   3.264   3.913   0.687 -1.1365  3.0414  0.5090
   22MOL    H29 4271   3.125   4.215   0.562  0.3109 -0.2680  0.1015
   22MOL    H30 4272   3.132   4.109   0.707  0.2554 -1.1056  0.1065
   22MOL    H31 4273   3.278   4.185   0.645  1.8744 -1.8004 -2.5845
   22MOL    C32 4274   3.171   3.814   0.529  0.7648  0.0324 -0.3952
   22MOL    C33 4275   3.169   3.777   0.380  0.0394 -0.8445  0.3282
   22MOL    O34 4276   3.072   3.677   0.349 -0.3732 -0.9916  0.1422
   22MOL    C35 4277   3.095   3.546   0.402  0.1559 -0.4069 -0.0086
   22MOL    H36 4278   3.067   3.820   0.561  1.0904  0.2609  0.6565
   22MOL    H37 4279   3.198   3.727   0.590 -3.4688 -0.4609  0.9262
   22MOL    H38 4280   3.268   3.740   0.355  0.9176  0.2833  2.0473
   22MOL    H39 4281   3.189   3.504   0.366 -0.3832 -0.1456 -1.7706
   22MOL    H40 4282   3.091   3.540   0.511  0.2952  1.5617  0.1241
   22MOL    H41 4283   3.021   3.478   0.361 -0.3764  0.6289 -0.7692
   22MOL    C42 4284   3.132   3.900   0.290 -0.1010 -0.4040 -0.0763
   22MOL    C43 4285   3.136   3.887   0.137  0.7492  0.0464  0.3646
   22MOL    O44 4286   3.096   4.010   0.088  0.2190  0.6540  0.1909
   22MOL    C45 4287   2.973   4.010   0.016  0.6617 -0.7821  0.9593
   22MOL    H46 4288   3.201   3.984   0.301  0.2252 -0.7299  0.3628
   22MOL    H47 4289   3.036   3.938   0.326 -0.6923 -1.7630 -0.2152
   22MOL    H48 4290   3.069   3.807   0.104 -0.7872  1.6273 -0.4453
   22MOL    H49 4291   2.956   3.931   7.754  0.1822 -0.4695  0.7254
   22MOL    H50 4292   2.893   4.012   0.090  0.5180  2.5073  0.8080
   22MOL    H51 4293   2.969   4.105   7.772  2.0044 -0.5580  1.2262
   22MOL    C52 4294   3.276   3.843   0.081 -0.2571  0.2715 -0.3812
   22MOL    C53 4295   3.287   3.854   7.741 -0.2890 -0.7702  1.4672
   22MOL    O54 4296   3.426   3.852   7.702 -0.6868  0.2568  0.5331
   22MOL    C55 4297   3.495   3.976   7.701 -0.3406  0.4403  0.8896
   22MOL    H56 4298   3.299   3.741   0.110 -0.9803 -0.2222 -1.5011
   22MOL    H57 4299   3.361   3.892   0.128 -0.2647  2.4233 -2.5000
   22MOL    H58 4300   3.248   3.951   7.709  0.3404 -0.5528  1.3350
   22MOL    H59 4301   3.601   3.955   7.686 -0.2695  1.4767 -0.1348
   22MOL    H60 4302   3.478   4.050   7.623  1.4456 -1.1581 -1.0390
   22MOL    H61 4303   3.494   4.024   7.799  0.0116  0.3677  0.9296
   22MOL    C62 4304   3.222   3.729   7.672  0.1920 -0.7371  0.5449
   22MOL    C63 4305   3.222   3.722   7.514 -0.1084 -0.6319 -0.5371
   22MOL    O64 4306   3.179   3.596   7.473  0.5405  0.0026 -0.3269
   22MOL    C65 4307   3.270   3.481   7.460 -0.0354 -1.0225  0.1752
   22MOL    H66 4308   3.120   3.710   7.706  0.4997 -0.5384  1.5866
   22MOL    H67 4309   3.283   3.642   7.698 -2.1313 -2.4350  0.4997
   22MOL    H68 4310   3.320   3.739   7.470  0.9040 -1.4198  1.3256
   22MOL    H69 4311   3.222   3.384   7.450  0.9513 -1.4869 -0.1756
   22MOL    H70 4312   3.330   3.487   7.369 -0.0890  1.3299  0.2659
   22MOL    H71 4313   3.334   3.482   7.548 -0.6232  0.2737  0.5947
   22MOL    C72 4314   3.114   3.822   7.457  0.7741  0.1239 -0.4450
   22MOL    C73 4315   3.110   3.855   7.303  0.5305 -0.5632  0.0131
   22MOL    O74 4316   2.997   3.817   7.230  0.3639 -0.1415  0.0901
   22MOL    C75 4317   3.006   3.681   7.190 -0.6251  0.6053  0.1105
   22MOL    H76 4318   3.146   3.912   7.509 -0.3001  1.5143 -2.1488
   22MOL    H77 4319   3.018   3.795   7.500  0.6924  2.9918  1.2893
   22MOL    H78 4320   3.199   3.811   7.259  1.9829  1.3365  0.9862
   22MOL    H79 4321   3.037   3.615   7.271 -1.2845  2.9226  2.3145
   22MOL    H80 4322   2.910   3.650   7.149  0.1885 -1.5658 -0.2211
   22MOL    H81 4323   3.080   3.681   7.109  1.8088 -3.5260  2.1388
   22MOL    C82 4324   3.108   4.007   7.270  0.2896 -0.3944 -0.0708
   22MOL    C83 4325   3.245   4.072   7.295  0.1796 -0.5880 -0.0142
   22MOL    O84 4326   3.314   4.015   7.187 -0.0793  0.0134  0.1014
   22MOL    C85 4327   3.448   3.970   7.215  0.0600  0.2152 -0.6962
   22MOL    H86 4328   3.025   4.050   7.325  0.3301  1.9754 -1.7870
   22MOL    H87 4329   3.085   4.027   7.165  1.8462  1.7818 -0.0296
   22MOL    H88 4330   3.280   4.047   7.395  0.2655 -0.6504 -0.0604
   22MOL    H89 4331   3.445   3.888   7.286 -2.5356  1.4013  0.6271
   22MOL    H90 4332   3.511   3.940   7.131  1.4721 -0.1915  0.4996
   22MOL    H91 4333   3.498   4.055   7.262 -1.3830 -0.1635  1.5985
   22MOL    C92 4334   3.243   4.225   7.255 -1.2921  0.0813 -0.3045
   22MOL    C93 4335   3.184   4.308   7.374 -0.0100 -0.4793  0.4478
   22MOL    O94 4336   3.266   4.288   7.487  0.0707 -0.6342  0.2479
   22MOL    C95 4337   3.191   4.262   7.606 -0.0882  0.7084  0.7914
   22MOL    H96 4338   3.179   4.242   7.169 -0.3459  0.2310 -0.9836
   22MOL    H97 4339   3.343   4.264   7.236 -0.9539 -0.4258  0.3927
   22MOL    H98 4340   3.084   4.274   7.399 -0.7639  0.6227 -0.9901
   22MOL    H99 4341   3.261   4.262   7.689  0.6636  0.1576  0.1638
   22MOL   H100 4342   3.110   4.329   7.634  0.1807  2.2890 -2.0402
   22MOL   H101 4343   3.159   4.158   7.619  1.4092  0.5516  3.6594
   22MOL   C102 4344   3.182   4.458   7.342 -0.1704 -0.1802 -0.6182
   22MOL   C103 4345   3.107   4.557   7.437 -0.2408  0.6960  0.0074
   22MOL   O104 4346   3.130   4.684   7.378 -0.1923  0.2689  0.7165
   22MOL   C105 4347   3.122   4.781   7.482 -0.0395  0.0488 -0.1960
   22MOL   H106 4348   3.137   4.467   7.243 -0.1080 -1.6502 -0.7984
   22MOL   H107 4349   3.285   4.486   7.321  0.8794 -0.1880  4.0941
   22MOL   H108 4350   3.151   4.547   7.536  0.0446 -1.4951 -0.3121
   22MOL   H109 4351   3.157   4.879   7.449  0.8647 -0.7940 -1.7664
   22MOL   H110 4352   3.018   4.791   7.513  0.1804 -1.1944  0.9930
   22MOL   H111 4353   3.180   4.756   7.571  0.8921  0.0269 -0.8109
   22MOL   C112 4354   2.948   4.542   7.445  0.0505  0.1812  0.2090
   22MOL   C113 4355   2.880   4.520   7.586 -0.3250  0.6053 -0.8118
   22MOL   O114 4356   2.914   4.639   7.660 -0.2139  0.0121 -0.0147
   22MOL   C115 4357   2.893   4.620   7.799 -0.5801  0.2898  0.6022
   22MOL   H116 4358   2.938   4.443   7.399 -0.6059 -0.6755  2.0917
   22MOL   H117 4359   2.899   4.620   7.387 -3.2456 -1.1546  1.0781
   22MOL   H118 4360   2.918   4.428   7.629 -0.0706  0.3914 -1.4960
   22MOL   H119 4361   2.960   4.688   0.041 -0.4108 -1.2276  2.4413
   22MOL   H120 4362   2.786   4.618   0.012 -0.1380 -2.0127  2.6403
   22MOL   H121 4363   2.946   4.529   0.019  0.2260  0.6886  0.3852
   22MOL   C122 4364   2.721   4.503   7.572  0.0900 -0.9139 -0.5092
   22MOL   C123 4365   2.660   4.372   7.511  0.5802 -0.0167  0.0630
   22MOL   O124 4366   2.727   4.260   7.562  0.3226 -0.5129  0.4881
   22MOL   C125 4367   2.748   4.151   7.478 -0.5592 -0.3954  0.4561
   22MOL   H126 4368   2.679   4.598   7.539 -1.4612 -1.3721  0.1031
   22MOL   H127 4369   2.675   4.502   7.671  0.4430 -2.4857 -0.3568
   22MOL   H128 4370   2.675   4.378   7.403  0.2952 -0.8144 -0.0228
   22MOL   H129 4371   2.813   4.076   7.523 -0.3873 -0.3999  0.1969
   22MOL   H130 4372   2.657   4.098   7.450 -0.7343 -0.1470  0.5488
   22MOL   H131 4373   2.791   4.187   7.385  0.7034  2.2506  2.0192
   22MOL   C132 4374   2.511   4.360   7.552 -0.0454 -0.9786 -0.3296
   22MOL   C133 4375   2.416   4.460   7.483 -0.5810  0.2860 -0.2677
   22MOL   O134 4376   2.405   4.440   7.348 -0.0519 -0.0453  0.1581
   22MOL   C135 4377   2.424   4.550   7.267  0.0908  0.7557  0.1238
   22MOL   H136 4378   2.492   4.361   7.660 -1.7205 -1.6317 -0.6067
   22MOL   H137 4379   2.483   4.257   7.531  0.8796 -1.6315  1.5179
   22MOL   H138 4380   2.469   4.555   7.497  0.5341 -0.1790 -1.2413
   22MOL   H139 4381   2.362   4.636   7.291  0.4194  1.3171 -1.0353
   22MOL   H140 4382   2.528   4.585   7.263  0.4468 -0.3060 -0.2227
   22MOL   H141 4383   2.403   4.521   7.164 -2.3164  0.3470  0.6980
   22MOL   C142 4384   2.272   4.469   7.541  0.1146 -1.3731 -0.0985
   22MOL   C143 4385   2.257   4.521   7.687  0.6769 -0.2914  0.3782
   22MOL   O144 4386   2.305   4.429   7.788 -0.2617  0.4474 -0.4820
   22MOL   C145 4387   2.231   4.407   0.100  0.3180  0.0930 -0.3996
   22MOL   H146 4388   2.223   4.372   7.532  1.4005 -1.9355 -1.2015
   22MOL   H147 4389   2.214   4.527   7.468  1.7315  0.8753  0.3679
   22MOL   H148 4390   2.150   4.523   7.705  0.5120 -0.5407 -0.5455
   22MOL   H149 4391   2.302   4.364   0.171  0.2004  0.5522 -0.0022
   22MOL   H150 4392   2.202   4.499   0.150 -0.5856 -1.1813  1.4990
   22MOL   H151 4393   2.145   4.340   0.093  0.3313 -0.0430  0.5982
   22MOL   C152 4394   2.312   4.655   7.736 -0.0714  0.0995 -0.0423
   22MOL   C153 4395   2.250   4.772   7.659 -0.2123  0.6531  0.0267
   22MOL   O154 4396   2.102   4.771   7.686 -0.4883 -0.0096  0.0113
   22MOL   C155 4397   2.017   4.853   7.605  0.2427 -0.0177  0.3446
   22MOL   H156 4398   2.421   4.656   7.730 -0.0431  0.6056  0.4817
   22MOL   H157 4399   2.292   4.672   0.031  1.2614  3.7913 -0.3029
   22MOL   H158 4400   2.266   4.762   7.552  1.0153 -1.2068  0.3564
   22MOL   H159 4401   1.918   4.813   7.624 -0.8792  2.0983 -0.9452
   22MOL   H160 4402   1.994   4.955   7.633 -1.5210 -0.2753 -0.1421
   22MOL   H161 4403   2.042   4.846   7.499  1.6021  2.6770  0.4469
   22MOL   C162 4404   2.296   4.908   7.715 -0.5953  0.1257 -0.2107
   22MOL   C163 4405   2.430   4.951   7.646 -0.1075  0.3551  0.4502
   22MOL   O164 4406   2.404   4.981   7.513 -0.3128  0.2772  0.3296
   22MOL   C165 4407   2.478   4.929   7.404 -0.7062  0.3815  0.3924
   22MOL   H166 4408   2.307   4.915   0.013  0.8161  0.1900 -0.3504
   22MOL   H167 4409   2.232   4.997   7.708  2.2913  2.3756  0.9430
   22MOL   H168 4410   2.499   4.867   7.644 -0.7756 -0.2213  1.1302
   22MOL   H169 4411   2.503   4.823   7.414 -0.5727  0.2554 -1.1837
   22MOL   H170 4412   2.417   4.952   7.316  0.4053  1.9431  0.0161
   22MOL   H171 4413   2.574   4.980   7.396 -0.6535  0.2492  0.1698
   22MOL   C172 4414   2.492   5.076   7.712 -0.6220 -0.4172  0.2686
   22MOL   C173 4415   2.601   5.051   0.018  1.1220  0.9404 -0.1605
   22MOL   O174 4416   2.670   5.166   0.021  0.0074 -0.0397  0.1020
   22MOL   C175 4417   2.809   5.152   0.006 -0.2589  0.3910  0.3768
   22MOL   H176 4418   2.427   5.160   7.734 -0.0130  0.9039 -2.7791
   22MOL   H177 4419   2.554   5.114   7.631 -0.9171 -1.6537 -0.5498
   22MOL   H178 4420   2.654   4.964   7.792  0.3725  0.9186 -1.2274
   22MOL   H179 4421   2.852   5.247   7.785 -0.7612 -0.0308 -1.6579
   22MOL   H180 4422   2.861   5.131   0.099 -0.1036 -1.7744 -0.1897
   22MOL   H181 4423   2.843   5.085   7.738 -0.0713 -1.2133  1.8170
   22MOL   C182 4424   2.532   5.035   0.151  0.5446 -0.6633 -0.9124
   22MOL   C183 4425   2.623   5.010   0.269  0.1099  0.2832  0.1909
   22MOL   O184 4426   2.552   5.012   0.394 -0.0382  0.2105 -0.0340
   22MOL   C185 4427   2.639   5.010   0.506  0.6567 -0.1618 -0.3306
   22MOL   H186 4428   2.468   4.947   0.149  0.9551 -1.0081  0.6240
   22MOL   H187 4429   2.468   5.118   0.179  1.5864 -0.4111  0.7065
   22MOL   H188 4430   2.697   5.090   0.262  1.3761 -0.7435  1.4506
   22MOL   H189 4431   2.741   5.029   0.475  1.1749 -1.6513  0.4316
   22MOL   H190 4432   2.610   5.090   0.575  3.9582  0.9424 -0.1431
   22MOL   H191 4433   2.633   4.909   0.544  2.2678  0.5441  1.9039
   22MOL   C192 4434   2.687   4.859   0.256 -0.1348  0.3601  0.6044
   22MOL   C193 4435   2.592   4.739   0.270  0.2053  0.0406 -0.1873
   22MOL   O194 4436   2.670   4.622   0.242 -0.9587 -0.1838 -0.0831
   22MOL   C195 4437   2.587   4.504   0.256  0.0890  0.2840  0.1517
   22MOL   H196 4438   2.770   4.844   0.324  0.0949  0.9579  0.4613
   22MOL   H197 4439   2.736   4.844   0.161 -0.9505 -0.3075  0.2855
   22MOL   H198 4440   2.515   4.751   0.195  0.5905  0.5367 -0.5104
   22MOL   H199 4441   2.639   4.420   0.209  1.1105 -0.8770  3.1804
   22MOL   H200 4442   2.599   4.478   0.362  0.6495 -0.3167 -0.0516
   22MOL   H201 4443   2.481   4.510   0.233  0.5556  1.0259 -1.8255
   22MOL   H202 4444   2.542   4.738   0.367 -1.0895  0.7962 -0.8324
   23MOL     C1 4445   0.250   1.020   2.159  0.0527  0.8162  0.4617
   23MOL     C2 4446   0.372   1.001   2.065 -0.8319 -0.2931  0.2658
   23MOL     O3 4447   0.400   1.126   2.005 -0.2950 -0.1052 -0.2393
   23MOL     C4 4448   0.338   1.148   1.881  0.2316  0.6174 -0.8324
   23MOL     H5 4449   0.264   1.098   2.234 -2.5144  1.5413  0.2159
   23MOL     H6 4450   0.155   1.042   2.111  0.7811  1.0646 -0.9090
   23MOL     H7 4451   0.358   0.920   1.993 -1.7939  0.7168 -0.7056
   23MOL     H8 4452   0.346   1.255   1.862 -1.8237  0.7037 -1.3280
   23MOL     H9 4453   0.380   1.088   1.800 -0.1973 -1.9900  0.8569
   23MOL    H10 4454   0.232   1.125   1.891  0.0765  0.2687 -2.9995
   23MOL    H11 4455   0.243   0.930   2.219  0.1221  0.7792  0.4152
   23MOL    C12 4456   0.502   0.958   2.136 -0.8394  0.2242 -0.5284
   23MOL    C13 4457   0.615   0.905   2.039  0.0330 -0.7187  0.0441
   23MOL    O14 4458   0.742   0.964   2.076  0.3047 -0.1840  0.8865
   23MOL    C15 4459   0.767   1.084   1.999  0.0558  0.2976  0.2337
   23MOL    H16 4460   0.481   0.884   2.213 -0.0948 -0.9772 -1.4620
   23MOL    H17 4461   0.550   1.043   2.185 -1.1552 -0.0549  0.2695
   23MOL    H18 4462   0.590   0.929   1.935  0.9903  2.0854  0.4399
   23MOL    H19 4463   0.691   1.161   2.017  0.3735  0.6834 -0.0546
   23MOL    H20 4464   0.860   1.133   2.027 -0.1142  0.7042  0.1044
   23MOL    H21 4465   0.758   1.059   1.894 -0.8798 -1.2065  0.6550
   23MOL    C22 4466   0.656   0.755   2.042 -0.0557  0.1025 -0.7014
   23MOL    C23 4467   0.569   0.640   1.980 -0.2473  0.8669 -0.7389
   23MOL    O24 4468   0.448   0.634   2.065  0.0983 -0.6025 -0.0074
   23MOL    C25 4469   0.460   0.551   2.184 -0.3139  0.4963  0.5680
   23MOL    H26 4470   0.692   0.737   2.143 -0.9128  1.7795 -0.0703
   23MOL    H27 4471   0.747   0.753   1.983  0.6214 -0.7313  0.3731
   23MOL    H28 4472   0.620   0.543   1.980  1.0252  1.5348 -0.7562
   23MOL    H29 4473   0.476   0.444   2.166 -0.1899  0.4502  0.9437
   23MOL    H30 4474   0.539   0.586   2.250 -0.8654 -0.0977  1.5466
   23MOL    H31 4475   0.360   0.550   2.226 -1.4934 -1.7993 -2.0844
   23MOL    C32 4476   0.523   0.679   1.834  0.5572 -0.1046  0.5365
   23MOL    C33 4477   0.529   0.564   1.729 -0.2165  0.5731 -0.5067
   23MOL    O34 4478   0.469   0.627   1.618 -0.5196  0.0713 -0.6024
   23MOL    C35 4479   0.337   0.581   1.592  0.2809 -0.3651 -0.0888
   23MOL    H36 4480   0.584   0.760   1.794 -0.8141 -0.2340 -1.8940
   23MOL    H37 4481   0.422   0.718   1.837  0.7686  0.4987 -0.3262
   23MOL    H38 4482   0.464   0.486   1.768 -0.9025 -0.3830 -3.4189
   23MOL    H39 4483   0.332   0.474   1.572 -3.0375 -0.5591  1.4830
   23MOL    H40 4484   0.266   0.608   1.670  2.1946  0.5717  1.3587
   23MOL    H41 4485   0.297   0.629   1.502  0.6233 -0.1375 -0.1224
   23MOL    C42 4486   0.672   0.510   1.691  0.1907  0.1654  0.1184
   23MOL    C43 4487   0.665   0.410   1.576 -0.3632  0.1759 -0.4878
   23MOL    O44 4488   0.800   0.385   1.536 -0.0384 -0.1860 -0.0876
   23MOL    C45 4489   0.819   0.319   1.407 -0.5835  0.0413 -0.6593
   23MOL    H46 4490   0.717   0.468   1.781  1.5156  0.0166 -0.6054
   23MOL    H47 4491   0.735   0.595   1.664  0.6060  1.0012  3.5046
   23MOL    H48 4492   0.609   0.458   1.495  0.0572 -0.6327 -1.2565
   23MOL    H49 4493   0.775   0.368   1.320 -0.2745  2.5729  0.5743
   23MOL    H50 4494   0.925   0.305   1.388 -0.2758  0.3352  0.7909
   23MOL    H51 4495   0.789   0.215   1.419 -1.7749  0.4825  0.4717
   23MOL    C52 4496   0.589   0.278   1.610  0.0548  0.0146  0.4582
   23MOL    C53 4497   0.639   0.197   1.730 -0.2525  0.5223 -0.1708
   23MOL    O54 4498   0.581   0.272   1.842  0.1819  0.2175 -0.1062
   23MOL    C55 4499   0.648   0.252   1.964 -0.4851  0.8029 -0.0508
   23MOL    H56 4500   0.587   0.226   1.515 -0.3306 -0.0454  0.4988
   23MOL    H57 4501   0.485   0.305   1.628  0.2934  2.8285 -2.0431
   23MOL    H58 4502   0.747   0.189   1.724 -0.3510 -0.0685 -1.2095
   23MOL    H59 4503   0.620   0.315   2.049 -1.4541  1.4830 -0.8696
   23MOL    H60 4504   0.657   0.148   1.996  0.4623  0.8707 -0.0959
   23MOL    H61 4505   0.745   0.292   1.935 -0.3059  0.3887 -0.0260
   23MOL    C62 4506   0.575   0.057   1.721  0.1150 -0.1734 -0.1272
   23MOL    C63 4507   0.621   7.760   1.822 -0.3621  0.1873 -0.4969
   23MOL    O64 4508   0.560   7.641   1.775  0.3788  0.0619 -0.6262
   23MOL    C65 4509   0.433   7.609   1.828  0.1788  0.4177  0.1632
   23MOL    H66 4510   0.598   0.019   1.621 -0.9815  0.7735 -0.7577
   23MOL    H67 4511   0.466   0.068   1.728 -0.1849 -0.9465 -2.7340
   23MOL    H68 4512   0.579   7.785   1.919 -0.6735  1.7746 -1.0185
   23MOL    H69 4513   0.403   7.507   1.807  0.3473  0.1628  1.1515
   23MOL    H70 4514   0.450   7.609   1.936 -2.4003  0.5641  0.6125
   23MOL    H71 4515   0.360   7.673   1.778 -1.1658 -0.7918  0.5339
   23MOL    C72 4516   0.773   7.734   1.824 -0.4652  0.0301 -1.0443
   23MOL    C73 4517   0.833   7.618   1.921  0.1606  0.0343 -0.1764
   23MOL    O74 4518   0.969   7.604   1.894  0.1319 -0.1418 -0.8814
   23MOL    C75 4519   0.998   7.534   1.774  0.2352 -0.0702 -0.6867
   23MOL    H76 4520   0.824   0.015   1.855 -3.0446  1.8486 -2.0457
   23MOL    H77 4521   0.806   7.725   1.721  0.0359  2.0076 -1.0686
   23MOL    H78 4522   0.776   7.526   1.908 -0.5391  0.4097  0.1787
   23MOL    H79 4523   0.958   7.432   1.780  0.6088 -0.0730  3.0042
   23MOL    H80 4524   0.989   7.577   1.674  2.9611  0.9439 -0.5317
   23MOL    H81 4525   1.103   7.513   1.791  0.0802  2.1434  3.7377
   23MOL    C82 4526   0.813   7.659   2.066  0.5887 -0.1591  0.5576
   23MOL    C83 4527   0.879   7.592   2.186  0.3852  0.1911  0.1255
   23MOL    O84 4528   0.816   7.655   2.295 -0.7288  0.0670  0.1134
   23MOL    C85 4529   0.891   7.752   2.370 -0.1098 -0.6074 -0.3403
   23MOL    H86 4530   0.706   7.660   2.083  0.4110  1.8549 -0.6187
   23MOL    H87 4531   0.843   7.762   2.080 -1.6561  0.6013 -0.1183
   23MOL    H88 4532   0.982   7.627   2.190  0.6812 -0.5974 -0.4187
   23MOL    H89 4533   0.957   7.695   2.436 -0.5641 -1.5809 -0.7246
   23MOL    H90 4534   0.947   7.807   2.294  1.8015 -3.0615 -0.7811
   23MOL    H91 4535   0.826   7.810   2.435 -0.3194 -0.6372 -0.5223
   23MOL    C92 4536   0.880   7.432   2.194  0.3034 -0.5752 -0.1601
   23MOL    C93 4537   0.946   7.383   2.323 -0.6458  0.2225  0.0687
   23MOL    O94 4538   0.935   7.242   2.334 -0.0625 -0.0461  0.0608
   23MOL    C95 4539   0.810   7.192   2.385 -0.2696 -0.3441 -0.2799
   23MOL    H96 4540   0.917   7.386   2.102  0.7072 -2.3833  0.8823
   23MOL    H97 4541   0.777   7.398   2.202  0.9018 -2.3096  0.3871
   23MOL    H98 4542   0.897   7.433   2.406  2.3727  1.1109  1.3776
   23MOL    H99 4543   0.818   7.084   2.399 -2.3368 -0.3038  1.4111
   23MOL   H100 4544   0.801   7.241   2.481  0.1959 -1.0476  0.1248
   23MOL   H101 4545   0.725   7.209   2.319  0.4911 -0.6313 -1.3672
   23MOL   C102 4546   1.102   7.404   2.337 -0.5999 -0.0323 -0.1243
   23MOL   C103 4547   1.169   7.338   2.459 -0.1530 -0.2361 -0.6864
   23MOL   O104 4548   1.311   7.353   2.448 -0.0552 -0.1369 -0.3045
   23MOL   C105 4549   1.366   7.251   2.367  0.0946  0.3203  0.1494
   23MOL   H106 4550   1.137   7.507   2.325  0.6334 -0.4194  0.0842
   23MOL   H107 4551   1.144   7.357   2.248 -0.6838 -2.0564  0.8899
   23MOL   H108 4552   1.134   7.237   2.477 -0.0202  0.0602  1.4124
   23MOL   H109 4553   1.349   7.271   2.262 -2.7271 -2.3845  0.0349
   23MOL   H110 4554   1.474   7.263   2.378  0.0584 -0.3301  1.3264
   23MOL   H111 4555   1.324   7.155   2.398 -0.4257  0.9988  1.6500
   23MOL   C112 4556   1.121   7.408   2.590  0.5042 -0.8235  0.3578
   23MOL   C113 4557   1.172   7.343   2.723  0.6634 -0.1979  0.4581
   23MOL   O114 4558   1.162   7.426   2.835  0.3347  0.4561 -0.0697
   23MOL   C115 4559   1.251   7.535   2.843 -0.3232  0.3096 -0.1990
   23MOL   H116 4560   1.013   7.419   2.587  0.3027 -3.1571 -2.1976
   23MOL   H117 4561   1.169   7.505   2.575  0.6824 -1.0054 -0.2662
   23MOL   H118 4562   1.274   7.306   2.723  0.1871 -1.5593 -0.2500
   23MOL   H119 4563   1.263   7.590   2.750  1.4694  0.2321 -0.0361
   23MOL   H120 4564   1.234   7.614   2.917  0.5434  1.2056 -0.9349
   23MOL   H121 4565   1.345   7.494   2.879 -0.2869  0.9954  0.5241
   23MOL   C122 4566   1.063   7.229   2.756  0.0635 -0.0421 -0.5215
   23MOL   C123 4567   1.089   7.144   2.886  0.0281 -0.0876  0.5510
   23MOL   O124 4568   0.992   7.038   2.890 -0.0776  0.5395  0.2049
   23MOL   C125 4569   0.877   7.080   2.960 -0.5258 -0.0184  0.2054
   23MOL   H126 4570   1.079   7.161   2.673  0.4238 -1.9770  1.0953
   23MOL   H127 4571   0.960   7.264   2.762 -1.2091 -3.3542 -1.7785
   23MOL   H128 4572   1.074   7.221   2.961 -3.8537  1.8588 -2.0141
   23MOL   H129 4573   0.895   7.096   3.067 -1.4455 -0.1360  0.3821
   23MOL   H130 4574   0.845   7.176   2.919  1.8761  0.3426 -0.9128
   23MOL   H131 4575   0.800   7.004   2.949 -0.1964 -0.5693  1.6037
   23MOL   C132 4576   1.224   7.078   2.892 -1.2465 -0.2949 -0.1240
   23MOL   C133 4577   1.245   6.996   3.020  0.1447  0.3008  0.5077
   23MOL   O134 4578   1.388   6.962   3.021  0.4188 -0.3200  0.1755
   23MOL   C135 4579   1.427   6.848   2.948 -0.0891  0.1758 -0.1108
   23MOL   H136 4580   1.311   7.145   2.890 -0.4381 -1.2498  1.3952
   23MOL   H137 4581   1.237   7.023   2.799 -3.4686 -0.2142 -0.4898
   23MOL   H138 4582   1.187   6.904   3.024 -1.8131  1.4667 -0.0563
   23MOL   H139 4583   1.533   6.839   2.969 -0.1600  0.2374  0.2773
   23MOL   H140 4584   1.374   6.759   2.981 -0.6416  0.1886 -0.9518
   23MOL   H141 4585   1.407   6.867   2.842 -0.5408 -0.0862 -0.0737
   23MOL   C142 4586   1.219   7.064   3.152 -0.4993  0.0580  0.0795
   23MOL   C143 4587   1.217   6.968   3.276 -0.2165  0.7895  0.6580
   23MOL   O144 4588   1.236   7.055   3.383  0.2780 -0.2552 -0.0697
   23MOL   C145 4589   1.359   7.048   3.458  0.3079  0.5997 -0.6259
   23MOL   H146 4590   1.124   7.115   3.160 -0.2118  0.8731 -1.5727
   23MOL   H147 4591   1.292   7.144   3.161  1.2982 -1.3863 -1.0171
   23MOL   H148 4592   1.299   6.898   3.262 -0.0586  0.8303  1.3753
   23MOL   H149 4593   1.351   6.956   3.516 -0.3892 -1.3779 -3.7400
   23MOL   H150 4594   1.448   7.029   3.397  1.1072  2.8710 -0.2192
   23MOL   H151 4595   1.382   7.130   3.526 -0.7976 -1.8613  2.8828
   23MOL   C152 4596   1.079   6.916   3.297 -0.0904 -0.0615 -0.0209
   23MOL   C153 4597   1.075   6.791   3.384 -0.3262  0.1103  0.0586
   23MOL   O154 4598   0.961   6.805   3.463  0.1235  0.3967 -0.1572
   23MOL   C155 4599   0.992   6.875   3.580  0.8145  0.2680 -0.0719
   23MOL   H156 4600   1.038   6.883   3.202 -0.5230  0.0672  0.1180
   23MOL   H157 4601   1.011   7.000   3.308  1.1517  1.0531 -0.8397
   23MOL   H158 4602   1.169   6.782   3.437 -0.8384 -3.3944  0.4425
   23MOL   H159 4603   0.908   6.928   3.625  0.9840 -0.9571  1.7800
   23MOL   H160 4604   1.019   6.802   3.657  0.6712  1.2070  0.8837
   23MOL   H161 4605   1.073   6.946   3.564 -0.7296  2.1841  0.4200
   23MOL   C162 4606   1.058   6.662   3.303  0.5209  0.4771  0.0758
   23MOL   C163 4607   1.182   6.626   3.213 -0.3452  0.0504 -0.8000
   23MOL   O164 4608   1.289   6.589   3.306  0.2981  0.3132 -0.1730
   23MOL   C165 4609   1.413   6.571   3.254  0.5552  0.1305 -0.1223
   23MOL   H166 4610   0.967   6.668   3.244  1.0659 -1.6683 -1.0141
   23MOL   H167 4611   1.043   6.582   3.376  0.9658  0.6487  0.3590
   23MOL   H168 4612   1.214   6.712   3.155  3.4676  1.1703  2.7587
   23MOL   H169 4613   1.488   6.596   3.329  1.6645  0.9500 -1.4921
   23MOL   H170 4614   1.446   6.468   3.246  0.4209 -0.0822  1.7779
   23MOL   H171 4615   1.437   6.633   3.167 -1.4508 -1.8998 -2.2090
   23MOL   C172 4616   1.148   6.512   3.108  0.5198 -0.2707 -0.4674
   23MOL   C173 4617   1.038   6.539   3.006 -0.0207  0.0800 -0.4331
   23MOL   O174 4618   1.079   6.653   2.937  0.0541 -0.3867  0.3561
   23MOL   C175 4619   0.981   6.743   2.879  0.1397  0.1543  0.3024
   23MOL   H176 4620   1.116   6.425   3.165  3.7552 -0.5496  1.0697
   23MOL   H177 4621   1.243   6.486   3.061  1.1512 -0.4258  0.8721
   23MOL   H178 4622   0.941   6.555   3.053 -0.0742 -2.0013  0.1921
   23MOL   H179 4623   0.908   6.688   2.818 -0.7691  0.5863  0.9888
   23MOL   H180 4624   0.925   6.796   2.956 -1.3069 -1.0176  0.0822
   23MOL   H181 4625   1.026   6.820   2.817 -2.3668  0.7891 -0.8232
   23MOL   C182 4626   1.020   6.430   2.904  0.1948 -0.5983  0.1881
   23MOL   C183 4627   0.977   6.287   2.953  0.2883 -0.0140  0.2836
   23MOL   O184 4628   0.855   6.284   3.021  0.1063 -0.5284  0.1686
   23MOL   C185 4629   0.854   6.313   3.161 -0.2619 -0.3986 -0.1248
   23MOL   H186 4630   1.109   6.419   2.843 -1.8525 -0.8822 -2.8637
   23MOL   H187 4631   0.951   6.468   2.829  0.5121 -1.3923 -0.5110
   23MOL   H188 4632   1.052   6.241   3.018 -0.3459  0.5598  1.4155
   23MOL   H189 4633   0.765   6.268   3.204 -0.9738  2.3939  1.4263
   23MOL   H190 4634   0.936   6.263   3.213 -0.4395  0.6847  1.2162
   23MOL   H191 4635   0.859   6.418   3.190 -0.7577  0.3769 -2.6650
   23MOL   C192 4636   0.953   6.188   2.844 -0.3005  0.3038  0.3766
   23MOL   C193 4637   1.065   6.163   2.739  0.2405 -0.3557 -0.2010
   23MOL   O194 4638   1.028   6.045   2.671 -0.3110 -0.0288 -0.6631
   23MOL   C195 4639   1.091   6.025   2.545  0.1838 -0.3315  0.4928
   23MOL   H196 4640   0.870   6.222   2.782  1.3653  0.9631 -1.5456
   23MOL   H197 4641   0.936   6.088   2.885  0.1700  0.6410  1.4118
   23MOL   H198 4642   1.161   6.139   2.784 -0.2962 -0.7986  0.7310
   23MOL   H199 4643   1.041   5.952   2.481 -1.8388  0.0887  1.5574
   23MOL   H200 4644   1.097   6.122   2.497  0.2591 -0.8285 -0.5106
   23MOL   H201 4645   1.189   5.977   2.549 -0.5016 -1.6752  2.2396
   23MOL   H202 4646   1.074   6.248   2.672  2.4894 -1.9252 -1.9467
   24MOL     C1 4647   2.443   0.989   5.924  0.0570  0.5117  0.1156
   24MOL     C2 4648   2.566   1.025   5.840 -0.4451 -0.8647  0.6806
   24MOL     O3 4649   2.623   1.152   5.874  0.1325 -0.0061  0.5292
   24MOL     C4 4650   2.567   1.266   5.811  0.5398  0.7964 -0.6252
   24MOL     H5 4651   2.349   1.038   5.900 -0.7432 -0.7963  0.4965
   24MOL     H6 4652   2.421   0.882   5.932 -1.2753  0.4584 -3.5994
   24MOL     H7 4653   2.533   1.022   5.736 -3.1781  0.2153  1.4768
   24MOL     H8 4654   2.458   1.264   5.808  0.5052  0.7274  0.4446
   24MOL     H9 4655   2.603   1.355   5.864 -2.0000  1.5995 -0.1562
   24MOL    H10 4656   2.597   1.263   5.706  2.8512 -2.3875  0.0592
   24MOL    H11 4657   2.463   1.016   6.028 -1.0559  0.5823  0.3128
   24MOL    C12 4658   2.680   0.917   5.836 -0.0655  0.2639 -0.1497
   24MOL    C13 4659   2.766   0.906   5.707  0.1566 -0.1887  0.4888
   24MOL    O14 4660   2.872   0.825   5.741  0.3854  0.6903 -0.5132
   24MOL    C15 4661   2.996   0.893   5.756 -0.0599  0.2344 -0.0488
   24MOL    H16 4662   2.636   0.821   5.863 -0.0036  0.5350  0.9241
   24MOL    H17 4663   2.754   0.937   5.913  0.3006 -0.6876 -0.2505
   24MOL    H18 4664   2.807   1.001   5.673  0.1848 -1.0761 -2.0718
   24MOL    H19 4665   3.082   0.826   5.761  1.0380  1.4904 -1.5736
   24MOL    H20 4666   3.008   0.977   5.688 -0.5257  0.6961  0.4398
   24MOL    H21 4667   2.984   0.940   5.853 -3.5631  2.7720 -1.6062
   24MOL    C22 4668   2.699   0.837   5.581 -0.6551  0.0918  0.5065
   24MOL    C23 4669   2.630   0.702   5.599 -0.2788  0.7047  0.1664
   24MOL    O24 4670   2.507   0.736   5.664  0.2305 -0.1316 -0.3605
   24MOL    C25 4671   2.448   0.624   5.721 -0.0110 -0.4064 -0.1310
   24MOL    H26 4672   2.779   0.818   5.509  0.5709  1.2335  1.5553
   24MOL    H27 4673   2.629   0.912   5.545 -0.9658 -1.1631 -1.6060
   24MOL    H28 4674   2.691   0.649   5.673 -1.3675 -0.6615  0.1048
   24MOL    H29 4675   2.363   0.650   5.784  1.2729 -0.4975  1.6406
   24MOL    H30 4676   2.401   0.562   5.644 -0.7175  0.4864 -0.4180
   24MOL    H31 4677   2.518   0.567   5.782  1.6196  0.0201 -1.5601
   24MOL    C32 4678   2.616   0.618   5.468 -0.8615  0.2556  0.7334
   24MOL    C33 4679   2.543   0.683   5.351  0.1676  0.3926 -0.0867
   24MOL    O34 4680   2.553   0.601   5.228 -0.1266 -0.3262 -0.3987
   24MOL    C35 4681   2.601   0.676   5.120  0.0469  0.5114  0.2299
   24MOL    H36 4682   2.565   0.525   5.492 -0.5325  0.2209  1.2946
   24MOL    H37 4683   2.709   0.576   5.429 -1.2644 -1.4738  1.5949
   24MOL    H38 4684   2.584   0.782   5.332  0.7266 -0.0912 -1.4545
   24MOL    H39 4685   2.620   0.607   5.039  1.6651  1.1846  0.0111
   24MOL    H40 4686   2.528   0.753   5.093 -0.3018  0.2882  0.5301
   24MOL    H41 4687   2.698   0.719   5.146 -0.0965  1.7814 -1.2263
   24MOL    C42 4688   2.388   0.695   5.371 -0.5065 -0.2959 -0.8539
   24MOL    C43 4689   2.305   0.567   5.355 -0.1173  0.2367 -0.3963
   24MOL    O44 4690   2.345   0.456   5.439 -0.2010  0.1392 -0.0547
   24MOL    C45 4691   2.362   0.323   5.377  0.6015  0.2122  0.2107
   24MOL    H46 4692   2.349   0.767   5.299  0.5558 -0.5009 -1.6504
   24MOL    H47 4693   2.369   0.744   5.466  2.3332 -1.0572  0.1697
   24MOL    H48 4694   2.311   0.537   5.251 -3.5253  1.3728 -0.9798
   24MOL    H49 4695   2.364   0.242   5.450 -0.9186 -0.3747 -0.3699
   24MOL    H50 4696   2.283   0.300   5.304  1.2406 -2.2908  0.2942
   24MOL    H51 4697   2.458   0.334   5.326  0.4394 -0.9891 -0.3633
   24MOL    C52 4698   2.158   0.600   5.398 -0.2465 -0.3865 -0.4704
   24MOL    C53 4699   2.052   0.532   5.305 -0.7126  0.1829  0.0420
   24MOL    O54 4700   1.933   0.515   5.390  0.5988 -0.5146 -0.3574
   24MOL    C55 4701   1.927   0.405   5.474 -0.5700  0.5352  0.6625
   24MOL    H56 4702   2.137   0.706   5.391 -1.3561 -0.4670  1.2724
   24MOL    H57 4703   2.148   0.567   5.501  0.2188  3.2822  0.8218
   24MOL    H58 4704   2.078   0.429   5.282 -3.6084 -0.6050  0.1802
   24MOL    H59 4705   2.013   0.375   5.534  0.4436 -0.7623 -1.3938
   24MOL    H60 4706   1.846   0.437   5.539 -0.9112  1.7891 -0.3846
   24MOL    H61 4707   1.882   0.329   5.410 -0.6322  1.4272 -0.3740
   24MOL    C62 4708   2.017   0.612   5.178 -0.1161  0.0490  0.0568
   24MOL    C63 4709   1.963   0.534   5.056 -0.0967  0.1443 -0.0361
   24MOL    O64 4710   2.053   0.445   5.002 -0.5253 -0.5099 -0.1961
   24MOL    C65 4711   2.142   0.505   4.913  0.4185  0.7360 -0.0480
   24MOL    H66 4712   2.113   0.643   5.137 -0.6766  0.6448 -0.8359
   24MOL    H67 4713   1.952   0.697   5.198 -0.7223 -0.7451  1.5241
   24MOL    H68 4714   1.936   0.603   4.977  0.6199 -1.3746 -1.6524
   24MOL    H69 4715   2.203   0.579   4.965  0.5023  0.8785 -0.3488
   24MOL    H70 4716   2.213   0.433   4.872 -0.8500 -1.2328  1.1786
   24MOL    H71 4717   2.096   0.555   4.828  3.0154 -0.4387 -2.2344
   24MOL    C72 4718   1.827   0.464   5.086  0.1716 -0.7065 -0.3096
   24MOL    C73 4719   1.762   0.394   4.974  0.1783  0.0839 -0.1417
   24MOL    O74 4720   1.650   0.330   5.028  0.2763  0.3516 -0.3992
   24MOL    C75 4721   1.674   0.214   5.106  0.4819 -0.2517  0.2328
   24MOL    H76 4722   1.755   0.539   5.118 -0.8757 -1.0515 -1.8049
   24MOL    H77 4723   1.847   0.390   5.163  1.6215 -1.6358 -1.5449
   24MOL    H78 4724   1.825   0.318   4.927 -1.1953 -0.3454 -1.3470
   24MOL    H79 4725   1.743   0.148   5.052  0.0192 -0.3758 -0.2104
   24MOL    H80 4726   1.702   0.244   5.207 -1.4959  0.9898  0.4238
   24MOL    H81 4727   1.580   0.160   5.118 -1.5548  2.9059 -0.8471
   24MOL    C82 4728   1.704   0.489   4.854 -0.2846 -0.3990  0.2570
   24MOL    C83 4729   1.626   0.427   4.743  1.1720  0.4058  0.2298
   24MOL    O84 4730   1.689   0.317   4.683 -0.3072 -0.3360  0.8878
   24MOL    C85 4731   1.722   0.337   4.541  0.3020 -0.0832  0.1964
   24MOL    H86 4732   1.786   0.541   4.806  0.3814 -1.6816 -0.0136
   24MOL    H87 4733   1.645   0.566   4.904  1.1625  1.4780 -0.9188
   24MOL    H88 4734   1.603   0.505   4.671  0.2035 -0.1780 -0.1014
   24MOL    H89 4735   1.817   0.392   4.539 -1.8162  3.8221  1.6482
   24MOL    H90 4736   1.749   0.237   4.506 -1.2563 -1.2641  2.2767
   24MOL    H91 4737   1.641   0.381   4.482 -0.8872 -1.3543  0.8665
   24MOL    C92 4738   1.487   0.375   4.782  0.7099  0.4325 -0.0877
   24MOL    C93 4739   1.389   0.347   4.672 -0.0456 -0.1214  0.2060
   24MOL    O94 4740   1.260   0.313   4.738  0.0481 -0.2644 -0.3169
   24MOL    C95 4741   1.233   0.184   4.785  0.7320 -0.2033  0.3061
   24MOL    H96 4742   1.441   0.450   4.847  0.3023 -0.3744  0.5692
   24MOL    H97 4743   1.508   0.288   4.844 -0.2213 -0.5674 -1.1389
   24MOL    H98 4744   1.418   0.262   4.611 -0.3233  0.7652 -1.1877
   24MOL    H99 4745   1.135   0.171   4.830 -0.8985  2.2996 -2.3093
   24MOL   H100 4746   1.245   0.111   4.705  2.6757  1.3828 -0.9186
   24MOL   H101 4747   1.308   0.160   4.860 -0.5620 -1.0260  1.3412
   24MOL   C102 4748   1.358   0.452   4.567  0.4693 -0.6976 -0.2111
   24MOL   C103 4749   1.346   0.601   4.619  0.0477 -0.1415 -0.0990
   24MOL   O104 4750   1.357   0.677   4.498 -0.2702  0.3873  0.2814
   24MOL   C105 4751   1.391   0.815   4.519  0.0683  0.7678  0.4700
   24MOL   H106 4752   1.267   0.439   4.508  0.9753  0.0243 -1.1666
   24MOL   H107 4753   1.436   0.457   4.491  1.3227 -1.3716  0.6159
   24MOL   H108 4754   1.431   0.633   4.680  0.2044  1.4853 -1.1204
   24MOL   H109 4755   1.491   0.821   4.562 -0.3220 -0.1112  1.5147
   24MOL   H110 4756   1.385   0.874   4.427  1.8503  1.0349  0.5034
   24MOL   H111 4757   1.323   0.863   4.589  0.7691  0.0203  1.6667
   24MOL   C112 4758   1.211   0.635   4.676  0.3644  0.0238 -0.4462
   24MOL   C113 4759   1.212   0.708   4.815 -0.3650 -0.2986  0.4959
   24MOL   O114 4760   1.107   0.805   4.816 -0.2200  0.1664  0.0881
   24MOL   C115 4761   1.124   0.931   4.754 -0.6137 -0.1489  0.0847
   24MOL   H116 4762   1.164   0.536   4.686 -0.9798  0.7957  1.2612
   24MOL   H117 4763   1.144   0.686   4.607  0.0703  2.4777  1.5846
   24MOL   H118 4764   1.313   0.745   4.831 -0.1229 -1.5992  2.1634
   24MOL   H119 4765   1.198   0.986   4.811 -0.0152  0.3695 -1.1660
   24MOL   H120 4766   1.151   0.926   4.648  0.8209 -0.6039  0.4639
   24MOL   H121 4767   1.032   0.986   4.772 -1.4517 -1.9515  1.3938
   24MOL   C122 4768   1.194   0.613   4.933  0.2907  0.2027  0.0690
   24MOL   C123 4769   1.243   0.667   5.064  0.4130  0.2666  0.1018
   24MOL   O124 4770   1.191   0.586   5.176 -0.0998  0.0619 -0.4478
   24MOL   C125 4771   1.154   0.455   5.152 -0.0033 -0.0560 -0.2817
   24MOL   H126 4772   1.247   0.522   4.904  2.3627  0.5626  2.4333
   24MOL   H127 4773   1.090   0.583   4.943  0.1045  1.1874  1.2389
   24MOL   H128 4774   1.196   0.765   5.069  1.0666  0.6134 -0.5141
   24MOL   H129 4775   1.054   0.439   5.111 -0.4147 -2.1602  1.4816
   24MOL   H130 4776   1.225   0.408   5.084 -0.4120 -0.3014 -0.5405
   24MOL   H131 4777   1.148   0.398   5.244  0.9397 -0.0354 -0.1975
   24MOL   C132 4778   1.401   0.683   5.077 -0.0717 -0.9640  0.1929
   24MOL   C133 4779   1.437   0.745   5.217 -0.0131 -0.4660  0.3652
   24MOL   O134 4780   1.574   0.718   5.250  0.6264 -0.7092 -0.3312
   24MOL   C135 4781   1.588   0.588   5.311  0.0128  0.8111 -0.5922
   24MOL   H136 4782   1.451   0.735   4.995 -1.4453  1.6560  0.9671
   24MOL   H137 4783   1.442   0.582   5.079  0.8243 -0.6219 -0.6798
   24MOL   H138 4784   1.369   0.702   5.290 -1.4827  0.7831 -0.2255
   24MOL   H139 4785   1.692   0.557   5.317 -0.0013  0.4476 -1.9931
   24MOL   H140 4786   1.539   0.606   5.407 -1.2677 -0.3785 -1.0072
   24MOL   H141 4787   1.534   0.506   5.263  0.6994  0.0588 -0.0764
   24MOL   C142 4788   1.421   0.901   5.208 -0.5874  0.0151 -0.7961
   24MOL   C143 4789   1.454   0.975   5.336 -0.0839  0.2950  0.4642
   24MOL   O144 4790   1.457   1.113   5.303  0.1072  0.1110  0.0713
   24MOL   C145 4791   1.582   1.168   5.304  0.2497  0.0547 -0.2644
   24MOL   H146 4792   1.320   0.918   5.172  0.0118  0.5111 -2.2567
   24MOL   H147 4793   1.486   0.944   5.132  0.0117  0.2112 -0.1784
   24MOL   H148 4794   1.552   0.938   5.365  0.2737 -0.0040 -1.0546
   24MOL   H149 4795   1.595   1.261   5.250 -2.9704  0.3022 -0.7071
   24MOL   H150 4796   1.600   1.180   5.411  1.0907 -3.0722 -0.0020
   24MOL   H151 4797   1.650   1.095   5.259  1.7794 -0.3972  2.6693
   24MOL   C152 4798   1.354   0.954   5.448  0.1602  0.0343 -0.5328
   24MOL   C153 4799   1.418   1.014   5.581  0.2920  0.0951 -0.3965
   24MOL   O154 4800   1.316   1.097   5.633  0.4759 -0.1254  0.0873
   24MOL   C155 4801   1.304   1.227   5.570  0.8527 -0.5680 -0.2401
   24MOL   H156 4802   1.325   0.850   5.462 -0.3397  0.3535  0.8778
   24MOL   H157 4803   1.264   1.006   5.416  1.9823  2.6366 -1.6414
   24MOL   H158 4804   1.515   1.061   5.564 -0.3707  2.3237  1.5895
   24MOL   H159 4805   1.291   1.229   5.462 -2.2525 -2.6891  0.0418
   24MOL   H160 4806   1.232   1.285   5.628  1.4984  0.6283 -0.6186
   24MOL   H161 4807   1.395   1.281   5.595  0.9708 -1.6965  1.9216
   24MOL   C162 4808   1.433   0.894   5.679  0.2075 -0.4948  0.5778
   24MOL   C163 4809   1.554   0.793   5.658  0.1528 -0.0241  0.2305
   24MOL   O164 4810   1.670   0.863   5.627  0.4770  0.3422 -0.4339
   24MOL   C165 4811   1.781   0.781   5.597  0.1352  1.3105 -0.2701
   24MOL   H166 4812   1.345   0.830   5.673  0.5620 -0.9304 -0.1554
   24MOL   H167 4813   1.427   0.936   5.779 -0.6606  1.5497 -0.3085
   24MOL   H168 4814   1.531   0.734   5.570  0.3972  1.2474 -0.7038
   24MOL   H169 4815   1.853   0.854   5.562 -0.5045  1.0030 -2.2836
   24MOL   H170 4816   1.828   0.721   5.675 -1.9356 -0.5203 -0.3725
   24MOL   H171 4817   1.758   0.710   5.517  0.1069 -1.3337  2.0013
   24MOL   C172 4818   1.568   0.706   5.789 -0.3905 -0.6974  0.4790
   24MOL   C173 4819   1.636   0.776   5.913  0.9089 -0.3964 -0.6966
   24MOL   O174 4820   1.543   0.855   5.988  0.0120  0.7138 -0.4479
   24MOL   C175 4821   1.604   0.967   6.048  0.0065  0.0416 -0.0501
   24MOL   H176 4822   1.638   0.627   5.763  0.0725 -0.1398  0.0109
   24MOL   H177 4823   1.472   0.662   5.815 -0.2049 -3.2704 -2.9520
   24MOL   H178 4824   1.714   0.834   5.863  1.0228 -1.8272 -2.2241
   24MOL   H179 4825   1.658   0.936   6.138 -1.1048 -1.1077  0.2525
   24MOL   H180 4826   1.668   1.025   5.982 -0.6258 -0.8092 -1.4317
   24MOL   H181 4827   1.524   1.034   6.078 -0.5204 -0.4823 -0.2614
   24MOL   C182 4828   1.718   0.681   5.997 -0.5646  0.3022  0.9414
   24MOL   C183 4829   1.639   0.566   6.060 -0.7865 -0.0249  1.7496
   24MOL   O184 4830   1.641   0.450   5.972  0.2299 -0.2686 -0.0059
   24MOL   C185 4831   1.525   0.360   5.994  0.8093  0.0467  0.3698
   24MOL   H186 4832   1.765   0.744   6.073  1.7528  0.8877 -0.9061
   24MOL   H187 4833   1.785   0.639   5.922 -1.5975 -0.5453  0.4819
   24MOL   H188 4834   1.534   0.592   6.073 -0.7223 -0.0423  2.3583
   24MOL   H189 4835   1.555   0.265   5.949  0.4769  0.4652 -0.7516
   24MOL   H190 4836   1.494   0.350   6.098  1.1386  1.1583  0.5776
   24MOL   H191 4837   1.441   0.388   5.930  0.6167 -0.2016  0.5148
   24MOL   C192 4838   1.687   0.513   6.198 -0.2712  0.2117  0.0061
   24MOL   C193 4839   1.822   0.441   6.185  0.3432 -0.4033  0.5722
   24MOL   O194 4840   1.840   0.377   6.310  0.0452 -0.7220  0.1122
   24MOL   C195 4841   1.949   0.294   6.314 -0.4483  0.7365  0.7552
   24MOL   H196 4842   1.622   0.436   6.239 -0.6674  1.2710  1.4184
   24MOL   H197 4843   1.689   0.587   6.279  0.4273 -0.0357  0.2246
   24MOL   H198 4844   1.901   0.512   6.164  0.4596 -0.7511 -0.1607
   24MOL   H199 4845   2.042   0.345   6.290  0.8685 -1.5618  0.8679
   24MOL   H200 4846   1.968   0.265   6.418  1.6407  1.5933  0.6320
   24MOL   H201 4847   1.928   0.210   6.249  1.6210  0.6860  0.1214
   24MOL   H202 4848   1.819   0.364   6.108 -2.1933  2.0291 -1.9150
   25MOL     C1 4849   3.508   3.006   5.538  0.1026 -0.3286  0.4287
   25MOL     C2 4850   3.538   2.861   5.492  0.4968  0.2786 -0.1616
   25MOL     O3 4851   3.675   2.827   5.511  0.0437 -0.2319 -0.7179
   25MOL     C4 4852   3.750   2.822   5.389  0.4197 -0.0301  0.0407
   25MOL     H5 4853   3.526   3.003   5.645  1.3289 -1.2724  0.2058
   25MOL     H6 4854   3.567   3.079   5.483  2.6341 -2.1636  0.6046
   25MOL     H7 4855   3.513   2.857   5.386  1.0895  1.4389 -0.3477
   25MOL     H8 4856   3.716   2.747   5.318  0.7290 -0.1768  0.0481
   25MOL     H9 4857   3.741   2.920   5.343  1.0841 -1.1150 -2.4774
   25MOL    H10 4858   3.857   2.806   5.400  0.8727  1.0456 -2.5276
   25MOL    H11 4859   3.404   3.036   5.521 -0.2444 -1.0022  1.3052
   25MOL    C12 4860   3.459   2.751   5.565 -0.2894 -0.9164 -0.2092
   25MOL    C13 4861   3.314   2.742   5.520 -0.5200 -0.1077 -0.7354
   25MOL    O14 4862   3.300   2.679   5.395 -0.0897  0.5019  0.5782
   25MOL    C15 4863   3.214   2.752   5.306  0.9111 -0.5134  0.2415
   25MOL    H16 4864   3.475   2.764   5.672  0.4121 -2.3165 -0.1310
   25MOL    H17 4865   3.513   2.658   5.547  0.9421  0.1724 -2.4189
   25MOL    H18 4866   3.265   2.839   5.529  0.7974  0.3249  2.3447
   25MOL    H19 4867   3.113   2.718   5.327  0.5501 -0.7592 -1.7645
   25MOL    H20 4868   3.221   2.860   5.315  0.1672 -0.3391 -1.1681
   25MOL    H21 4869   3.237   2.729   5.201  0.6851  0.5527 -0.0449
   25MOL    C22 4870   3.218   2.660   5.614  0.6014 -0.2273 -0.1816
   25MOL    C23 4871   3.200   2.728   5.749  0.0559  0.3542 -0.1711
   25MOL    O24 4872   3.139   2.858   5.748  0.4862  0.0827  0.2892
   25MOL    C25 4873   3.206   2.957   5.830  0.2322 -0.4587  0.0951
   25MOL    H26 4874   3.271   2.566   5.632 -3.4875 -2.5946 -0.0435
   25MOL    H27 4875   3.119   2.641   5.573  0.6387  0.5144 -0.6262
   25MOL    H28 4876   3.296   2.754   5.794  0.1878 -1.8443  0.9069
   25MOL    H29 4877   3.138   3.042   5.836  0.2023 -0.5469  0.9884
   25MOL    H30 4878   3.211   2.933   5.936  2.5585  0.8325  0.3013
   25MOL    H31 4879   3.300   2.983   5.781  0.3848 -1.7821 -0.3584
   25MOL    C32 4880   3.123   2.642   5.847  0.0257  0.5094 -0.0983
   25MOL    C33 4881   3.195   2.522   5.908  0.4623 -0.4093  0.9566
   25MOL    O34 4882   3.300   2.557   5.994  0.7374 -0.7754  0.1412
   25MOL    C35 4883   3.431   2.539   5.932 -0.1940 -0.3510  0.4124
   25MOL    H36 4884   3.034   2.611   5.792  0.2319 -0.1849 -0.0470
   25MOL    H37 4885   3.081   2.692   5.934 -2.1192 -2.3470  0.6109
   25MOL    H38 4886   3.227   2.463   5.822 -0.6374  0.6177 -0.1597
   25MOL    H39 4887   3.460   2.576   5.834  1.0978 -3.6824 -0.5253
   25MOL    H40 4888   3.507   2.570   6.004  0.4031 -2.9452  0.9488
   25MOL    H41 4889   3.437   2.432   5.915  2.6936 -0.0558 -0.8060
   25MOL    C42 4890   3.101   2.427   5.988 -0.2665  0.0863 -0.5398
   25MOL    C43 4891   3.172   2.293   6.041  1.0446  0.2152  1.1780
   25MOL    O44 4892   3.234   2.237   5.922 -0.2384 -0.4769  0.3947
   25MOL    C45 4893   3.148   2.161   5.846 -0.0062  0.6652 -0.0181
   25MOL    H46 4894   3.012   2.394   5.934 -1.2730 -0.0219  1.1623
   25MOL    H47 4895   3.060   2.478   6.075  1.9246 -1.1904  1.3035
   25MOL    H48 4896   3.095   2.228   6.082  1.8453 -0.1073  2.1921
   25MOL    H49 4897   3.043   2.189   5.853 -0.7332 -1.6657 -1.0482
   25MOL    H50 4898   3.166   2.182   5.741  0.2007  0.3757 -0.0413
   25MOL    H51 4899   3.160   2.054   5.861  0.1540  0.7074  0.1626
   25MOL    C52 4900   3.277   2.290   6.156 -1.0646  0.3360 -0.1203
   25MOL    C53 4901   3.243   2.373   6.284 -0.2439 -0.6371  0.1514
   25MOL    O54 4902   3.131   2.312   6.335 -0.0366  0.1492  0.2996
   25MOL    C55 4903   3.043   2.399   6.400 -0.3647  0.3510 -0.3389
   25MOL    H56 4904   3.375   2.316   6.118 -0.7968 -0.3396  0.0993
   25MOL    H57 4905   3.285   2.187   6.190  1.2864 -0.0126 -1.6383
   25MOL    H58 4906   3.230   2.479   6.259 -1.5702 -0.1232  2.8597
   25MOL    H59 4907   3.093   2.469   6.467 -1.4943  1.7139 -0.8711
   25MOL    H60 4908   2.994   2.453   6.318  2.7523  0.1306 -2.4253
   25MOL    H61 4909   2.974   2.336   6.456  1.5333 -1.3288  0.1458
   25MOL    C62 4910   3.351   2.365   6.392 -0.9072  0.0507  0.1300
   25MOL    C63 4911   3.488   2.441   6.380 -0.3643 -0.0242  0.0898
   25MOL    O64 4912   3.569   2.395   6.267 -0.0390  0.0531 -0.1112
   25MOL    C65 4913   3.625   2.270   6.284 -0.2397  0.7903 -0.3423
   25MOL    H66 4914   3.376   2.259   6.398 -0.1809  0.2516  0.6811
   25MOL    H67 4915   3.309   2.399   6.486 -1.4487  1.6323 -0.6763
   25MOL    H68 4916   3.546   2.427   6.471  1.3376  0.3648 -0.9121
   25MOL    H69 4917   3.712   2.270   6.219  0.4402 -1.2763  0.5272
   25MOL    H70 4918   3.662   2.256   6.385 -1.5866 -0.8179 -0.0620
   25MOL    H71 4919   3.564   2.184   6.255  1.4231  0.1928 -2.1515
   25MOL    C72 4920   3.466   2.592   6.349  0.0251  0.7156  0.0240
   25MOL    C73 4921   3.374   2.669   6.448  0.0934  0.4258 -0.5498
   25MOL    O74 4922   3.414   2.660   6.585  0.0094  0.4382 -0.2143
   25MOL    C75 4923   3.296   2.675   6.670 -0.8906 -0.1910 -0.0351
   25MOL    H76 4924   3.425   2.604   6.248 -0.2307 -1.2111 -0.1222
   25MOL    H77 4925   3.562   2.641   6.337  0.8298 -1.2702 -2.0339
   25MOL    H78 4926   3.270   2.645   6.427  0.7243 -1.9437 -1.0845
   25MOL    H79 4927   3.228   2.591   6.658  1.1574 -2.1339  1.5802
   25MOL    H80 4928   3.333   2.680   6.773  1.9365  0.2305 -1.0220
   25MOL    H81 4929   3.240   2.765   6.647 -1.1196 -0.0202  1.1234
   25MOL    C82 4930   3.394   2.820   6.421  0.7613  0.6624  0.0839
   25MOL    C83 4931   3.302   2.881   6.306  0.3599 -0.2552 -0.2041
   25MOL    O84 4932   3.169   2.880   6.361  0.1159 -0.0457 -0.1046
   25MOL    C85 4933   3.067   2.890   6.264  0.0660  0.0783  0.3763
   25MOL    H86 4934   3.497   2.856   6.418  1.0882 -0.2559  0.2329
   25MOL    H87 4935   3.357   2.881   6.504  0.4041 -0.3399  0.6756
   25MOL    H88 4936   3.301   2.817   6.218  0.0921 -0.2973 -0.1724
   25MOL    H89 4937   3.057   2.989   6.220  0.4120 -0.2625 -0.4674
   25MOL    H90 4938   3.090   2.809   6.195  1.0773 -0.4637  1.3199
   25MOL    H91 4939   2.980   2.865   6.326 -0.0668  0.9013  0.5190
   25MOL    C92 4940   3.341   3.022   6.261  0.0678  0.0938 -0.5953
   25MOL    C93 4941   3.468   3.038   6.171  0.5325  0.1263  0.2178
   25MOL    O94 4942   3.463   2.949   6.057 -0.5938  0.0456  0.3221
   25MOL    C95 4943   3.571   2.864   6.033 -0.2985 -0.5930  0.4492
   25MOL    H96 4944   3.347   3.089   6.347 -3.2978 -0.0285 -0.1871
   25MOL    H97 4945   3.258   3.061   6.202  0.3403  1.0909 -0.3389
   25MOL    H98 4946   3.556   3.008   6.228  0.4935  0.9595  0.7230
   25MOL    H99 4947   3.551   2.784   5.961 -0.5861 -0.0900 -0.0388
   25MOL   H100 4948   3.648   2.923   5.985  1.1026 -0.9721  2.2022
   25MOL   H101 4949   3.611   2.836   6.130  0.9633 -0.1855  0.0479
   25MOL   C102 4950   3.484   3.182   6.113 -0.2385 -1.0050  0.3537
   25MOL   C103 4951   3.567   3.275   6.202  0.3965 -0.3957 -0.2581
   25MOL   O104 4952   3.688   3.223   6.242 -0.1524  0.5163 -0.1630
   25MOL   C105 4953   3.730   3.240   6.376  0.2120  0.4195  0.4895
   25MOL   H106 4954   3.389   3.236   6.105  0.6463  0.5631  0.1471
   25MOL   H107 4955   3.529   3.175   6.014  1.2639 -0.4875  0.9827
   25MOL   H108 4956   3.501   3.299   6.285 -0.9989 -1.6474 -0.9755
   25MOL   H109 4957   3.832   3.203   6.388  0.6546  0.3763 -2.8675
   25MOL   H110 4958   3.734   3.344   6.408  1.1169  1.1496 -1.8562
   25MOL   H111 4959   3.656   3.199   6.444 -0.2520 -0.2431 -0.4063
   25MOL   C112 4960   3.608   3.409   6.125 -0.1433 -0.6143  0.0998
   25MOL   C113 4961   3.502   3.498   6.052  0.2701 -0.1799 -0.0293
   25MOL   O114 4962   3.442   3.563   6.168  0.9833  0.3775 -0.2247
   25MOL   C115 4963   3.307   3.608   6.147  0.9508  0.4511 -0.1644
   25MOL   H116 4964   3.692   3.389   6.059  0.5530  1.2951  0.3765
   25MOL   H117 4965   3.667   3.475   6.188 -0.4979 -1.0844  0.9344
   25MOL   H118 4966   3.427   3.435   6.005  0.7316 -0.8898  0.1696
   25MOL   H119 4967   3.236   3.538   6.101  0.8523  1.0789 -0.9636
   25MOL   H120 4968   3.253   3.651   6.232  0.0248 -0.1509 -0.4299
   25MOL   H121 4969   3.312   3.684   6.069 -1.0934  1.2883  0.4838
   25MOL   C122 4970   3.557   3.594   5.954  0.3137  0.0352  0.0190
   25MOL   C123 4971   3.655   3.525   5.852 -0.1887  0.4104  0.0107
   25MOL   O124 4972   3.593   3.401   5.820  0.2798 -0.4711  0.8503
   25MOL   C125 4973   3.690   3.304   5.780  0.5103  0.5763 -0.6217
   25MOL   H126 4974   3.607   3.674   6.010 -0.3715  0.8534 -0.5389
   25MOL   H127 4975   3.475   3.637   5.897  0.2329 -1.4229 -0.9791
   25MOL   H128 4976   3.748   3.516   5.907 -1.1399 -0.6304  1.4934
   25MOL   H129 4977   3.636   3.211   5.797  0.2001  0.6828 -1.0219
   25MOL   H130 4978   3.719   3.315   5.676 -1.3537 -1.2250 -1.3646
   25MOL   H131 4979   3.789   3.302   5.825  0.3137  0.1509 -0.1996
   25MOL   C132 4980   3.685   3.619   5.732 -0.2485 -0.4751 -0.0370
   25MOL   C133 4981   3.813   3.587   5.646 -0.1927  0.2949  0.1539
   25MOL   O134 4982   3.812   3.670   5.534 -0.1949 -0.2111 -0.5051
   25MOL   C135 4983   3.731   3.622   5.428  0.1575 -0.1966  0.3017
   25MOL   H136 4984   3.703   3.722   5.762  0.2180 -0.6617  0.3252
   25MOL   H137 4985   3.595   3.608   5.670 -1.0102  0.4168  0.8968
   25MOL   H138 4986   3.816   3.486   5.607  0.5623  0.2001  0.4477
   25MOL   H139 4987   3.768   3.530   5.384 -0.8116 -0.1241 -0.6929
   25MOL   H140 4988   3.635   3.586   5.465 -0.2967 -0.1697 -0.8337
   25MOL   H141 4989   3.718   3.708   5.362 -0.7467  0.7879  1.7278
   25MOL   C142 4990   3.943   3.633   5.725 -0.9649  0.2464  0.1131
   25MOL   C143 4991   4.077   3.613   5.644 -0.6594 -0.2393 -1.0856
   25MOL   O144 4992   4.158   3.723   5.697  0.8349  0.3045  0.7739
   25MOL   C145 4993   4.240   3.776   5.593  0.4640 -0.0060  0.3237
   25MOL   H146 4994   3.937   3.584   5.822 -1.4222  0.6740  0.3005
   25MOL   H147 4995   3.933   3.741   5.736  0.8395  0.3815  0.5222
   25MOL   H148 4996   4.059   3.623   5.537 -0.9135 -0.2765 -1.0453
   25MOL   H149 4997   4.296   3.707   5.530 -0.1308  1.6680 -2.1279
   25MOL   H150 4998   4.186   3.843   5.525  0.9858  1.0715  0.9502
   25MOL   H151 4999   4.308   3.838   5.650 -0.2134 -0.8499  2.0779
   25MOL   C152 5000   4.145   3.473   5.670  0.1180  0.4707 -0.0679
   25MOL   C153 5001   4.061   3.348   5.631  0.2559  0.1994 -0.1041
   25MOL   O154 5002   4.029   3.353   5.492 -0.4876 -0.1170  0.0646
   25MOL   C155 5003   3.937   3.254   5.437 -0.2345 -0.0236  0.5125
   25MOL   H156 5004   4.164   3.477   5.778 -1.7010  2.5694  0.1935
   25MOL   H157 5005   4.243   3.472   5.622 -0.0509 -0.4978 -0.3911
   25MOL   H158 5006   3.975   3.350   5.697  0.3883 -1.8520  0.1811
   25MOL   H159 5007   3.952   3.148   5.458  0.9790  0.1741  0.7196
   25MOL   H160 5008   3.840   3.276   5.481 -0.6103  1.5069 -1.0338
   25MOL   H161 5009   3.932   3.252   5.328 -0.9612 -0.1279  0.5500
   25MOL   C162 5010   4.134   3.224   5.665  0.5363  0.3138 -0.1736
   25MOL   C163 5011   4.139   3.204   5.825  0.1749 -0.0614  0.5580
   25MOL   O164 5012   4.010   3.164   5.873 -0.2563  0.1960 -0.7363
   25MOL   C165 5013   3.995   3.188   6.009  0.3640  0.2081 -0.0381
   25MOL   H166 5014   4.229   3.212   5.614 -0.1237  0.9977 -1.5955
   25MOL   H167 5015   4.072   3.141   5.631  0.2449  1.2775 -2.0117
   25MOL   H168 5016   4.167   3.297   5.876 -2.6337  1.3587 -0.3559
   25MOL   H169 5017   4.069   3.144   6.076 -1.3306 -1.0010  1.1002
   25MOL   H170 5018   4.010   3.295   6.019  1.6117  0.2296 -1.9465
   25MOL   H171 5019   3.891   3.170   6.037  0.2357  1.1412  0.0927
   25MOL   C172 5020   4.242   3.092   5.853  0.2960 -0.6704 -0.0106
   25MOL   C173 5021   4.386   3.127   5.887 -0.2619 -0.0570 -0.0104
   25MOL   O174 5022   4.458   3.200   5.782 -0.6353  0.0143 -0.5938
   25MOL   C175 5023   4.488   3.116   5.679  0.0174 -0.0040 -0.0278
   25MOL   H176 5024   4.245   3.019   5.772  3.2246  0.6835 -1.1876
   25MOL   H177 5025   4.195   3.023   5.923 -2.0934  0.9057  0.0248
   25MOL   H178 5026   4.445   3.036   5.905 -1.5241 -0.7076  0.9367
   25MOL   H179 5027   4.569   3.044   5.695  1.1744  1.0288 -1.1443
   25MOL   H180 5028   4.399   3.077   5.630  0.2289 -1.0847  0.4330
   25MOL   H181 5029   4.532   3.182   5.605 -3.6565 -0.9779 -3.2535
   25MOL   C182 5030   4.396   3.217   6.012  0.0491  0.2173  0.0030
   25MOL   C183 5031   4.533   3.243   6.073  0.3560 -0.2898 -0.6266
   25MOL   O184 5032   4.517   3.369   6.139 -0.0196 -0.0262  0.1816
   25MOL   C185 5033   4.462   3.372   6.272  0.2862  0.4345 -0.4033
   25MOL   H186 5034   4.324   3.173   6.081  0.0690 -1.7489 -1.1886
   25MOL   H187 5035   4.357   3.316   5.986 -1.4618 -0.0896  1.0376
   25MOL   H188 5036   4.596   3.257   5.986  0.3167 -0.2453 -0.6479
   25MOL   H189 5037   4.452   3.475   6.307 -3.5383 -0.6922  2.0572
   25MOL   H190 5038   4.367   3.319   6.273 -0.9989  2.6704 -0.3263
   25MOL   H191 5039   4.528   3.329   6.347 -0.4025  0.5378  0.2542
   25MOL   C192 5040   4.595   3.131   6.175  0.3164  0.0820 -0.4157
   25MOL   C193 5041   4.653   3.011   6.107 -0.3897 -0.0394 -0.9553
   25MOL   O194 5042   4.733   3.036   5.997 -0.5479 -0.2596  0.0276
   25MOL   C195 5043   4.773   2.916   5.923 -0.4940  0.3523  0.4665
   25MOL   H196 5044   4.509   3.105   6.235  1.4858 -0.9824  0.8359
   25MOL   H197 5045   4.675   3.179   6.232  1.2315 -0.8048 -0.9307
   25MOL   H198 5046   4.573   2.947   6.070 -1.5433  0.0181  1.3569
   25MOL   H199 5047   4.699   2.837   5.915  1.0270 -1.0839  0.3786
   25MOL   H200 5048   4.787   2.934   5.816 -0.6928 -0.1107  0.3582
   25MOL   H201 5049   4.866   2.880   5.967  0.0352 -0.3628 -1.2038
   25MOL   H202 5050   4.712   2.955   6.180 -2.1205  0.4716  0.8819
   26MOL     C1 5051   7.593   6.415   4.032  0.6349  1.1429 -0.0663
   26MOL     C2 5052   7.682   6.310   4.099  0.0352  0.1379  0.8725
   26MOL     O3 5053   7.635   6.179   4.074  0.9205  0.4409  0.0787
   26MOL     C4 5054   7.505   6.152   4.121  0.0484 -0.0623  0.7201
   26MOL     H5 5055   7.608   6.406   3.924  3.2593  0.0685  0.3372
   26MOL     H6 5056   7.488   6.409   4.057  0.5628 -1.8845 -0.8713
   26MOL     H7 5057   7.673   6.316   4.207 -0.1956 -1.4226  0.9511
   26MOL     H8 5058   7.476   6.047   4.113 -0.8871  0.1640  1.0391
   26MOL     H9 5059   7.499   6.166   4.229  2.5426  1.2083  0.7160
   26MOL    H10 5060   7.426   6.201   4.064 -0.5283 -0.3532  1.2719
   26MOL    H11 5061   7.638   6.510   4.059 -0.4061  2.3755 -2.4728
   26MOL    C12 5062   0.023   6.322   4.050  0.0326  0.0349  0.1836
   26MOL    C13 5063   0.110   6.208   4.118  0.4601  0.5686 -0.3367
   26MOL    O14 5064   0.208   6.173   4.016 -0.4665  0.2155 -0.2136
   26MOL    C15 5065   0.164   6.056   3.949 -0.1214 -0.2498 -0.3740
   26MOL    H16 5066   0.070   6.418   4.071  1.0838 -0.8325  1.9471
   26MOL    H17 5067   0.022   6.309   3.942 -2.2213  1.3120  0.0368
   26MOL    H18 5068   0.041   6.130   4.152  1.0808  1.0367  2.0926
   26MOL    H19 5069   0.239   6.025   3.876  2.1068 -0.9462  2.1466
   26MOL    H20 5070   0.168   5.976   4.023  1.4445  1.8167  1.8380
   26MOL    H21 5071   0.064   6.052   3.904  0.1545 -3.1405 -0.8487
   26MOL    C22 5072   0.174   6.247   4.255  0.0615  0.7172 -0.0156
   26MOL    C23 5073   0.276   6.143   4.309  0.0165  0.4868  0.4719
   26MOL    O24 5074   0.381   6.214   4.363  0.5085 -0.0626 -0.5778
   26MOL    C25 5075   0.487   6.238   4.267  0.6037  0.8169 -0.2466
   26MOL    H26 5076   0.105   6.274   4.335 -3.0980  1.0672 -2.7695
   26MOL    H27 5077   0.230   6.340   4.246  0.7866  0.5302  2.3438
   26MOL    H28 5078   0.314   6.074   4.234  1.6298 -1.0871  2.6635
   26MOL    H29 5079   0.559   6.311   4.304  0.4890  1.5914 -1.5268
   26MOL    H30 5080   0.542   6.147   4.242 -0.6432  0.3714 -1.4187
   26MOL    H31 5081   0.450   6.270   4.169  2.7648 -0.8591 -1.6402
   26MOL    C32 5082   0.225   6.056   4.427 -0.4020  0.4577  0.5980
   26MOL    C33 5083   0.328   5.990   4.517  0.0955  0.1829 -0.0913
   26MOL    O34 5084   0.273   5.919   4.625 -0.0502 -0.0030  0.1152
   26MOL    C35 5085   0.225   6.002   4.732  1.0134 -0.6942 -0.5608
   26MOL    H36 5086   0.157   5.976   4.397 -0.9362  1.6204 -1.4165
   26MOL    H37 5087   0.159   6.121   4.485 -3.2625 -2.8428  1.2454
   26MOL    H38 5088   0.391   6.070   4.556 -0.6542 -1.0558  3.8809
   26MOL    H39 5089   0.298   6.052   4.796  0.8890 -0.8700 -0.2811
   26MOL    H40 5090   0.156   6.077   4.692 -1.5318 -2.0809  1.0914
   26MOL    H41 5091   0.172   5.930   4.794  1.7631  0.1818  1.1266
   26MOL    C42 5092   0.416   5.893   4.443 -0.1553 -0.3788  0.7512
   26MOL    C43 5093   0.557   5.875   4.500 -0.2925  0.2779  0.3717
   26MOL    O44 5094   0.620   5.763   4.436 -0.7994  0.1121  0.3460
   26MOL    C45 5095   0.610   5.635   4.503  0.7656 -0.0462  0.4069
   26MOL    H46 5096   0.410   5.904   4.335  0.9167 -1.6724  0.5456
   26MOL    H47 5097   0.375   5.794   4.460  1.0117 -0.8470  0.9315
   26MOL    H48 5098   0.538   5.854   4.605 -1.5019  1.9949  0.5159
   26MOL    H49 5099   0.671   5.633   4.594  0.4708 -0.7116  0.5859
   26MOL    H50 5100   0.504   5.612   4.511  0.6189 -0.1265 -1.5632
   26MOL    H51 5101   0.657   5.562   4.438  0.4803  0.1946 -0.0718
   26MOL    C52 5102   0.655   5.993   4.486  0.1756  0.0522 -0.4470
   26MOL    C53 5103   0.769   5.987   4.587 -0.2809 -0.6864  0.3361
   26MOL    O54 5104   0.879   6.049   4.525 -0.0146  0.0947  0.2029
   26MOL    C55 5105   0.962   5.950   4.472 -0.6297 -0.2522  0.0839
   26MOL    H56 5106   0.603   6.089   4.489 -0.4004 -0.2403 -1.0296
   26MOL    H57 5107   0.701   5.997   4.387 -0.7760 -2.6876 -1.0411
   26MOL    H58 5108   0.792   5.888   4.625 -2.7096 -0.2971  2.9434
   26MOL    H59 5109   1.037   5.902   4.535 -1.7807 -0.6783  1.1442
   26MOL    H60 5110   0.896   5.873   4.432 -3.0440  0.9949  1.5195
   26MOL    H61 5111   1.004   5.997   4.383 -1.5217 -0.4266 -0.4403
   26MOL    C62 5112   0.731   6.069   4.717  0.4557 -0.5925 -0.0624
   26MOL    C63 5113   0.838   6.097   4.823 -0.2230  0.4123  0.2319
   26MOL    O64 5114   0.772   6.176   4.918 -0.4123 -0.1902 -0.0303
   26MOL    C65 5115   0.835   6.302   4.934  0.5737 -0.4213 -0.7898
   26MOL    H66 5116   0.646   6.026   4.769  1.3690  0.2577  2.2000
   26MOL    H67 5117   0.708   6.173   4.693  1.8420 -0.1871  0.2838
   26MOL    H68 5118   0.917   6.149   4.769  0.4119 -1.7238 -0.9494
   26MOL    H69 5119   0.937   6.288   4.970  0.5091  2.8316  0.8673
   26MOL    H70 5120   0.853   6.360   4.843  1.7898 -0.5461 -0.6335
   26MOL    H71 5121   0.787   6.371   5.003  2.8642 -0.1885  0.6257
   26MOL    C72 5122   0.893   5.971   4.891 -0.5706 -0.3740  0.0667
   26MOL    C73 5123   1.049   5.962   4.904  0.0034 -0.0606 -0.0929
   26MOL    O74 5124   1.079   6.055   5.006 -0.4430  0.0868 -0.6444
   26MOL    C75 5125   1.203   6.119   4.991 -0.0123  0.2739  0.3136
   26MOL    H76 5126   0.836   5.889   4.847 -3.0508  0.3108  1.8605
   26MOL    H77 5127   0.851   5.978   4.992  2.3764  0.0990  1.3050
   26MOL    H78 5128   1.104   5.993   4.815 -0.9438  1.9917 -0.0061
   26MOL    H79 5129   1.187   6.210   4.932 -2.4380  0.4465  1.1979
   26MOL    H80 5130   1.251   6.160   5.080  0.7115  1.5420 -0.6333
   26MOL    H81 5131   1.273   6.052   4.940 -1.2781 -1.6137  0.9919
   26MOL    C82 5132   1.087   5.829   4.962  0.4886  0.0511  0.6376
   26MOL    C83 5133   1.231   5.784   4.960 -0.1917  0.2696 -0.7163
   26MOL    O84 5134   1.242   5.686   5.067  0.3498 -0.3210 -0.1552
   26MOL    C85 5135   1.339   5.714   5.171 -0.8461  0.6203 -0.5675
   26MOL    H86 5136   1.023   5.758   4.910  1.1776  0.0906 -0.2707
   26MOL    H87 5137   1.047   5.835   5.064  1.3083 -0.3160  0.9840
   26MOL    H88 5138   1.292   5.863   5.003 -1.9942  0.9632  0.5681
   26MOL    H89 5139   1.346   5.819   5.196 -1.0584  0.8002 -1.2442
   26MOL    H90 5140   1.305   5.646   5.249 -2.4986  1.6841 -0.3349
   26MOL    H91 5141   1.440   5.695   5.135 -0.9054  0.2631 -0.5534
   26MOL    C92 5142   1.299   5.727   4.822  0.0746 -0.1577 -0.2867
   26MOL    C93 5143   1.437   5.659   4.835  0.6508 -0.1999  0.4450
   26MOL    O94 5144   1.464   5.592   4.708 -0.7461 -0.5028 -0.1033
   26MOL    C95 5145   1.457   5.451   4.717  0.8020  0.4091  0.5533
   26MOL    H96 5146   1.293   5.806   4.747 -3.3343 -0.0454  0.0504
   26MOL    H97 5147   1.231   5.649   4.790 -0.3290 -0.0630  0.3209
   26MOL    H98 5148   1.431   5.596   4.923  0.3501 -1.2855 -0.3407
   26MOL    H99 5149   1.423   5.409   4.622  2.0310 -0.1180  0.3443
   26MOL   H100 5150   1.543   5.399   4.759  0.2122 -0.9304  0.1102
   26MOL   H101 5151   1.374   5.426   4.784 -1.0917 -0.4756 -2.0425
   26MOL   C102 5152   1.538   5.776   4.858 -0.3592  1.5469 -0.2608
   26MOL   C103 5153   1.681   5.719   4.865 -0.3890  0.1507  0.0335
   26MOL   O104 5154   1.767   5.802   4.783  0.3689  0.4811  0.1087
   26MOL   C105 5155   1.792   5.752   4.651  0.4069  0.5461 -0.3094
   26MOL   H106 5156   1.509   5.839   4.942 -1.1652  2.9157 -1.5605
   26MOL   H107 5157   1.517   5.836   4.769  0.3507 -1.2068 -2.3523
   26MOL   H108 5158   1.680   5.616   4.829 -1.3176  0.9121 -2.2000
   26MOL   H109 5159   1.839   5.653   4.645 -0.4762  0.1368 -0.5379
   26MOL   H110 5160   1.698   5.743   4.596 -1.2204  0.9866  2.3246
   26MOL   H111 5161   1.862   5.819   4.602  2.2102 -1.8587 -1.1430
   26MOL   C112 5162   1.749   5.734   5.002 -0.4497  0.9840  0.1213
   26MOL   C113 5163   1.882   5.662   5.025  0.8772 -0.0948 -0.3117
   26MOL   O114 5164   1.966   5.720   5.121  0.3513  0.2842  0.3615
   26MOL   C115 5165   1.903   5.746   5.245 -0.5843  0.0779  0.1805
   26MOL   H116 5166   1.680   5.709   5.082 -0.5202 -1.4163 -0.6409
   26MOL   H117 5167   1.771   5.840   5.011 -0.1069  0.8223  1.2056
   26MOL   H118 5168   1.941   5.672   4.933 -0.4920  1.3029 -1.0615
   26MOL   H119 5169   1.812   5.698   5.281 -1.2329  0.8953 -0.3378
   26MOL   H120 5170   1.975   5.747   5.327 -1.1470 -3.7090  0.8176
   26MOL   H121 5171   1.876   5.852   5.239  1.2899  0.6675  1.5758
   26MOL   C122 5172   1.873   5.517   5.062 -0.1236  0.0651 -0.2665
   26MOL   C123 5173   2.007   5.435   5.078 -0.0576  0.1384  0.4479
   26MOL   O124 5174   1.990   5.295   5.078  0.3515 -0.4973 -0.1299
   26MOL   C125 5175   1.907   5.248   5.178 -0.7003 -0.7902  0.3100
   26MOL   H126 5176   1.829   5.463   4.978 -1.0271 -1.6805  1.2887
   26MOL   H127 5177   1.809   5.514   5.150  0.1619  0.8315 -0.0307
   26MOL   H128 5178   2.041   5.454   5.180 -0.1935  0.8007  0.3714
   26MOL   H129 5179   1.803   5.279   5.171  0.4434  2.8630 -2.1489
   26MOL   H130 5180   1.911   5.139   5.174 -0.6880 -0.7552 -0.8705
   26MOL   H131 5181   1.933   5.287   5.276  1.0981  0.7412 -0.7395
   26MOL   C132 5182   2.119   5.488   4.980  0.4399 -0.3877 -0.1775
   26MOL   C133 5183   2.094   5.492   4.829 -0.3768 -0.1348 -0.0229
   26MOL   O134 5184   2.203   5.561   4.776 -0.1533 -0.4930  0.3633
   26MOL   C135 5185   2.207   5.706   4.766 -0.3605 -0.2990  0.1254
   26MOL   H136 5186   2.210   5.432   5.002  2.0101  2.8123  1.8475
   26MOL   H137 5187   2.152   5.587   5.013  0.0314 -0.2843 -0.0745
   26MOL   H138 5188   2.001   5.542   4.802  0.2907  2.1723  1.7883
   26MOL   H139 5189   2.305   5.737   4.729 -0.4641  0.9045  0.8386
   26MOL   H140 5190   2.122   5.748   4.712 -0.1797  1.0812  0.9018
   26MOL   H141 5191   2.196   5.750   4.865 -2.9532  0.5085 -0.4865
   26MOL   C142 5192   2.100   5.349   4.776  0.1192  0.1676 -0.0243
   26MOL   C143 5193   2.046   5.337   4.633 -0.6588  0.4089  0.3725
   26MOL   O144 5194   1.921   5.386   4.618 -0.0094  0.2037  0.0404
   26MOL   C145 5195   1.814   5.304   4.656  0.3151  0.5010 -0.0896
   26MOL   H146 5196   2.051   5.279   4.845  0.5980  0.4762  0.6394
   26MOL   H147 5197   2.205   5.322   4.769 -0.2311 -0.8490 -1.6837
   26MOL   H148 5198   2.056   5.232   4.606 -1.3198  0.4263  0.0626
   26MOL   H149 5199   1.802   5.279   4.762 -0.2620  1.5225  0.0985
   26MOL   H150 5200   1.723   5.354   4.623  1.8629  1.6821 -2.6832
   26MOL   H151 5201   1.827   5.207   4.608  0.2374 -0.9014  2.6353
   26MOL   C152 5202   2.147   5.389   4.523 -0.4346  0.6053 -0.4360
   26MOL   C153 5203   2.112   5.388   4.371  0.1113  0.6501  0.0801
   26MOL   O154 5204   2.219   5.434   4.292 -0.0306 -0.1072  0.0553
   26MOL   C155 5205   2.230   5.578   4.276 -0.4471  0.5886 -0.4612
   26MOL   H156 5206   2.247   5.349   4.536 -0.8962  0.0711  1.6934
   26MOL   H157 5207   2.178   5.488   4.556  1.5768  0.5882 -2.1861
   26MOL   H158 5208   2.027   5.456   4.362 -0.1102  0.4831  0.8686
   26MOL   H159 5209   2.214   5.636   4.367 -0.2419  2.0432 -1.3363
   26MOL   H160 5210   2.335   5.590   4.247 -0.3334  0.3505 -0.1540
   26MOL   H161 5211   2.160   5.623   4.205 -0.6949  2.6904  1.0472
   26MOL   C162 5212   2.057   5.252   4.319 -0.7554 -0.4228  0.1344
   26MOL   C163 5213   2.002   5.253   4.177  0.1277  0.0329 -0.5395
   26MOL   O164 5214   1.963   5.118   4.157  0.0729  0.6641 -0.5592
   26MOL   C165 5215   1.962   5.066   4.022  1.1570  0.3797 -0.0136
   26MOL   H166 5216   1.982   5.199   4.378 -0.4559 -0.9092  0.0756
   26MOL   H167 5217   2.142   5.184   4.321 -0.4523 -0.0449  0.0836
   26MOL   H168 5218   2.089   5.273   4.115  1.4229  0.6100  1.3937
   26MOL   H169 5219   1.914   5.130   3.948  1.4163  0.4419 -0.1248
   26MOL   H170 5220   2.063   5.060   3.982  0.4953 -0.6131 -1.5800
   26MOL   H171 5221   1.921   4.965   4.019  2.8103 -0.3158  0.6465
   26MOL   C172 5222   1.904   5.364   4.134 -0.3558  0.5585 -0.1942
   26MOL   C173 5223   1.774   5.368   4.205 -0.5772  0.4443  0.2404
   26MOL   O174 5224   1.705   5.481   4.159 -0.2098  0.7524  0.5269
   26MOL   C175 5225   1.755   5.600   4.217  0.1108 -0.0705  0.1207
   26MOL   H176 5226   1.885   5.343   4.029  3.4035  2.1474 -1.2935
   26MOL   H177 5227   1.954   5.461   4.135  2.6085 -0.8866  2.6424
   26MOL   H178 5228   1.799   5.352   4.310 -0.0375  0.8305  0.1754
   26MOL   H179 5229   1.790   5.579   4.318  1.0119  1.2949  0.1065
   26MOL   H180 5230   1.839   5.643   4.162 -0.4454 -0.1205 -0.7942
   26MOL   H181 5231   1.672   5.670   4.206 -1.1732 -1.6493 -0.4888
   26MOL   C182 5232   1.678   5.247   4.169  0.2603 -0.0728 -0.8254
   26MOL   C183 5233   1.537   5.260   4.232  0.6810 -0.6772  0.4505
   26MOL   O184 5234   1.454   5.159   4.179 -0.0302  0.2680  0.0239
   26MOL   C185 5235   1.371   5.210   4.077  1.0070  0.1568  0.6212
   26MOL   H186 5236   1.715   5.153   4.208  1.0172  1.0703  1.2971
   26MOL   H187 5237   1.682   5.244   4.060  0.0511  0.5821 -0.8556
   26MOL   H188 5238   1.501   5.360   4.211  0.1844 -0.4617  2.1973
   26MOL   H189 5239   1.303   5.281   4.123  1.4802  2.2217 -1.7501
   26MOL   H190 5240   1.423   5.253   3.991  0.3679  0.0669  0.1839
   26MOL   H191 5241   1.313   5.125   4.039  1.0951 -0.7978  2.5434
   26MOL   C192 5242   1.525   5.242   4.388 -0.4030 -0.8320  0.4320
   26MOL   C193 5243   1.557   5.097   4.440 -0.4426 -0.0301  0.0101
   26MOL   O194 5244   1.499   5.099   4.569 -0.0821  0.5197 -0.0686
   26MOL   C195 5245   1.527   4.968   4.632  0.0486 -0.6765  0.6396
   26MOL   H196 5246   1.423   5.265   4.417 -1.4334 -2.1197 -1.9672
   26MOL   H197 5247   1.581   5.325   4.431 -0.0998 -0.3975 -0.7708
   26MOL   H198 5248   1.665   5.082   4.446 -0.1886  1.4527 -0.6486
   26MOL   H199 5249   1.494   4.953   4.735 -0.1461  2.1539  1.0114
   26MOL   H200 5250   1.500   4.884   4.568  0.1047  0.2399 -0.6069
   26MOL   H201 5251   1.635   4.951   4.626  0.5411  2.5207 -0.3598
   26MOL   H202 5252   1.501   5.029   4.375 -0.1352  0.7234 -1.0482
   27MOL     C1 5253   2.218   3.916   3.048 -0.5202  0.3901 -1.0165
   27MOL     C2 5254   2.095   3.999   3.080 -0.1562 -0.4188  0.8631
   27MOL     O3 5255   1.979   3.940   3.032  0.3998 -0.0878 -0.6029
   27MOL     C4 5256   1.964   3.932   2.891 -0.3148  0.5012  0.6516
   27MOL     H5 5257   2.201   3.811   3.073 -1.2309  0.3582 -1.6206
   27MOL     H6 5258   2.240   3.915   2.942  1.1328  0.7144 -0.6832
   27MOL     H7 5259   2.104   4.100   3.039  0.6267 -0.4430  0.9833
   27MOL     H8 5260   1.986   4.026   2.842  1.1385 -0.6489 -0.9850
   27MOL     H9 5261   2.035   3.861   2.848  0.4612  1.5100  0.2525
   27MOL    H10 5262   1.860   3.904   2.873 -0.5194  0.7724  1.3782
   27MOL    H11 5263   2.305   3.947   3.106 -1.1930 -1.7066  1.2368
   27MOL    C12 5264   2.080   4.024   3.232 -0.0285 -1.0225 -0.0416
   27MOL    C13 5265   2.040   3.893   3.314 -0.3030  1.4058 -0.2686
   27MOL    O14 5266   2.122   3.882   3.439  0.6638  0.3118  0.1043
   27MOL    C15 5267   2.224   3.782   3.441 -0.1715 -0.1255  0.3039
   27MOL    H16 5268   2.016   4.111   3.252  2.0588  0.3761  0.7317
   27MOL    H17 5269   2.177   4.049   3.275 -0.5955  0.2784  0.5432
   27MOL    H18 5270   2.052   3.804   3.252  0.3731  1.8031 -0.7084
   27MOL    H19 5271   2.281   3.797   3.533  0.7410 -0.9144 -0.1272
   27MOL    H20 5272   2.198   3.676   3.441  0.7597 -0.3627 -0.5944
   27MOL    H21 5273   2.298   3.796   3.363 -0.0420 -1.7442  0.1349
   27MOL    C22 5274   1.898   3.911   3.372  0.7616 -0.3983  0.2818
   27MOL    C23 5275   1.848   3.778   3.432  0.2862  0.2493  0.4426
   27MOL    O24 5276   1.800   3.787   3.565 -0.6468 -0.2482 -0.4380
   27MOL    C25 5277   1.894   3.817   3.665 -0.3033  0.6120 -0.1678
   27MOL    H26 5278   1.833   3.944   3.292  1.1732 -0.0182  0.1038
   27MOL    H27 5279   1.913   3.998   3.436 -0.0406 -1.0430  1.3707
   27MOL    H28 5280   1.932   3.708   3.439  0.4620  0.6718  3.1486
   27MOL    H29 5281   1.946   3.911   3.647 -2.0024  1.0832 -2.9018
   27MOL    H30 5282   1.844   3.840   3.760 -2.2976 -0.7273 -0.8621
   27MOL    H31 5283   1.963   3.736   3.687  1.9455  2.3994 -0.5284
   27MOL    C32 5284   1.741   3.707   3.353  0.9712  0.7162  0.1867
   27MOL    C33 5285   1.750   3.554   3.358 -0.4921  0.5478 -0.4758
   27MOL    O34 5286   1.888   3.521   3.317  0.3550  0.0998 -0.1022
   27MOL    C35 5287   1.920   3.391   3.280  0.3212  0.0160 -0.7267
   27MOL    H36 5288   1.737   3.746   3.251 -0.4157  0.8372  0.2772
   27MOL    H37 5289   1.645   3.732   3.398  0.2925  0.5080 -1.1379
   27MOL    H38 5290   1.678   3.520   3.284 -2.4892  4.0867 -0.2849
   27MOL    H39 5291   1.859   3.354   3.198 -0.6881  0.9902 -0.4212
   27MOL    H40 5292   2.024   3.381   3.249  0.2373 -2.3003 -0.3071
   27MOL    H41 5293   1.912   3.331   3.370 -0.5466  1.0666 -0.0931
   27MOL    C42 5294   1.708   3.480   3.483 -1.1084  0.1986  1.3277
   27MOL    C43 5295   1.570   3.516   3.544 -0.1810 -0.0446 -0.0274
   27MOL    O44 5296   1.470   3.465   3.452 -0.0414 -0.0770 -0.1286
   27MOL    C45 5297   1.368   3.567   3.452  0.2087  0.0445 -0.3203
   27MOL    H46 5298   1.782   3.511   3.557 -1.6933  3.4757  0.6382
   27MOL    H47 5299   1.717   3.372   3.481 -1.2669  0.1747  1.7297
   27MOL    H48 5300   1.559   3.623   3.562  2.4668  0.2364  0.0410
   27MOL    H49 5301   1.318   3.581   3.548  0.0522 -1.9691 -0.0876
   27MOL    H50 5302   1.401   3.661   3.409 -0.5682  0.4457 -0.0423
   27MOL    H51 5303   1.294   3.522   3.386  0.2557 -1.3648  0.5602
   27MOL    C52 5304   1.557   3.461   3.687  0.3514  0.3781 -0.2887
   27MOL    C53 5305   1.621   3.560   3.791 -0.3426 -0.3926  0.1798
   27MOL    O54 5306   1.516   3.651   3.806  0.0696  0.7202  0.5458
   27MOL    C55 5307   1.542   3.786   3.827  0.3977  0.2518 -0.6703
   27MOL    H56 5308   1.586   3.357   3.700  0.1134  0.1143 -1.8143
   27MOL    H57 5309   1.453   3.462   3.720 -0.3652  1.4259 -2.4826
   27MOL    H58 5310   1.701   3.612   3.739 -0.1193  2.0081  2.8087
   27MOL    H59 5311   1.585   3.822   3.734  0.4183 -0.5598 -0.9855
   27MOL    H60 5312   1.441   3.827   3.835  0.2154 -0.2223 -0.4604
   27MOL    H61 5313   1.596   3.794   3.921  1.4362  0.0771 -1.2508
   27MOL    C62 5314   1.655   3.500   3.924 -0.5485  0.4141 -0.5864
   27MOL    C63 5315   1.771   3.398   3.926 -0.5178 -0.3137  0.4422
   27MOL    O64 5316   1.731   3.281   3.858  0.5596  0.5132  0.1552
   27MOL    C65 5317   1.686   3.171   3.937 -0.1712 -0.7977 -0.5890
   27MOL    H66 5318   1.565   3.456   3.967 -0.6195  0.8004 -0.3365
   27MOL    H67 5319   1.677   3.576   3.999 -0.2533 -1.4922  1.3383
   27MOL    H68 5320   1.790   3.383   4.032  2.5494  1.2632  0.1878
   27MOL    H69 5321   1.669   3.097   3.859  0.7486  0.9437 -2.4779
   27MOL    H70 5322   1.765   3.124   3.995  0.8353 -2.4334 -3.2034
   27MOL    H71 5323   1.604   3.210   3.999 -0.2490 -1.8102 -0.0434
   27MOL    C72 5324   1.895   3.463   3.857  0.1245  0.1698 -0.4893
   27MOL    C73 5325   2.040   3.409   3.878 -0.3642 -0.0150  0.2943
   27MOL    O74 5326   2.121   3.453   3.766 -0.0346  0.5980  0.2701
   27MOL    C75 5327   2.093   3.391   3.639  0.0697 -0.1909 -0.5614
   27MOL    H76 5328   1.895   3.570   3.877 -1.6168  0.5559 -2.4001
   27MOL    H77 5329   1.880   3.464   3.749  3.9278  1.6568 -1.1010
   27MOL    H78 5330   2.031   3.302   3.863 -1.5322  0.1809 -0.4418
   27MOL    H79 5331   2.187   3.352   3.599  0.9803  1.1097  0.2891
   27MOL    H80 5332   2.020   3.310   3.649 -1.1943  1.0893  0.7562
   27MOL    H81 5333   2.053   3.468   3.573 -0.4428  0.1968  0.1961
   27MOL    C82 5334   2.089   3.443   4.020 -0.2810  0.3479  0.1654
   27MOL    C83 5335   2.235   3.414   4.041 -0.0687 -0.2570 -0.9841
   27MOL    O84 5336   2.263   3.468   4.170 -0.5967 -0.4708  0.4981
   27MOL    C85 5337   2.401   3.517   4.184 -0.0123  0.1568 -0.4504
   27MOL    H86 5338   2.023   3.391   4.089  2.5201 -0.8299  2.0095
   27MOL    H87 5339   2.077   3.548   4.048 -0.1593  0.2854  0.4477
   27MOL    H88 5340   2.278   3.478   3.964  1.1223  1.4881  1.0449
   27MOL    H89 5341   2.443   3.530   4.284 -1.7873  0.8573  0.2333
   27MOL    H90 5342   2.468   3.457   4.123 -0.9688 -2.2894  0.8737
   27MOL    H91 5343   2.402   3.623   4.157 -0.7418  0.2764 -0.0181
   27MOL    C92 5344   2.290   3.267   4.039  0.0470 -0.1132 -0.2229
   27MOL    C93 5345   2.309   3.200   3.901  0.2018  0.2059  0.7815
   27MOL    O94 5346   2.442   3.243   3.854  0.9178  0.1806 -0.0997
   27MOL    C95 5347   2.465   3.223   3.715  0.0673  0.2124 -0.2316
   27MOL    H96 5348   2.218   3.212   4.100  0.1578 -1.0689 -0.9419
   27MOL    H97 5349   2.382   3.254   4.095 -0.6776  0.6344  1.1862
   27MOL    H98 5350   2.238   3.221   3.821  1.2542  0.7357 -0.0305
   27MOL    H99 5351   2.376   3.240   3.655  0.7958  2.0448 -0.8354
   27MOL   H100 5352   2.547   3.278   3.670 -0.9318  2.6331  0.8180
   27MOL   H101 5353   2.497   3.121   3.695  0.1055  0.3472 -0.8666
   27MOL   C102 5354   2.316   3.050   3.925 -0.2994 -0.1391 -0.8358
   27MOL   C103 5355   2.176   2.981   3.903 -0.1515  0.1473  0.1650
   27MOL   O104 5356   2.146   3.007   3.764  0.0547  0.6673 -0.5567
   27MOL   C105 5357   2.006   3.021   3.748  0.4414  0.3012  0.5188
   27MOL   H106 5358   2.349   3.033   4.028 -0.1968  0.8894 -0.6959
   27MOL   H107 5359   2.387   2.991   3.867 -1.3294 -1.6802 -0.5868
   27MOL   H108 5360   2.109   3.029   3.974 -0.8372 -2.3560  1.2485
   27MOL   H109 5361   1.971   3.112   3.796 -1.1590 -0.5653  1.0405
   27MOL   H110 5362   2.000   3.039   3.640  0.2682 -1.1243  0.2712
   27MOL   H111 5363   1.955   2.932   3.785  1.9217 -0.8458 -0.1227
   27MOL   C112 5364   2.171   2.830   3.941  0.1562 -0.0516 -0.0909
   27MOL   C113 5365   2.201   2.793   4.092  0.0754  0.1060  0.3752
   27MOL   O114 5366   2.091   2.837   4.179 -0.0310  0.5375  0.2704
   27MOL   C115 5367   2.119   2.952   4.260 -0.0870 -0.2209 -0.3430
   27MOL   H116 5368   2.243   2.775   3.880 -0.1006 -0.3366 -0.1403
   27MOL   H117 5369   2.077   2.784   3.908 -2.2786  3.2389  1.9148
   27MOL   H118 5370   2.293   2.837   4.132 -1.0852  2.3816  0.6323
   27MOL   H119 5371   2.168   3.031   4.203  2.3936 -1.0793  0.5332
   27MOL   H120 5372   2.021   2.984   4.294  0.0135 -2.2563  2.0102
   27MOL   H121 5373   2.178   2.923   4.347  0.9052  0.6456 -0.7112
   27MOL   C122 5374   2.229   2.641   4.114 -0.5008 -0.3587 -0.5420
   27MOL   C123 5375   2.354   2.586   4.041  0.0471 -0.6156 -0.3365
   27MOL   O124 5376   2.468   2.671   4.075  0.0608 -0.1993  0.3530
   27MOL   C125 5377   2.581   2.692   3.988  0.3430 -0.2819 -0.0069
   27MOL   H126 5378   2.142   2.580   4.091  0.6198 -2.5062  0.8098
   27MOL   H127 5379   2.262   2.630   4.217 -0.2435  1.1422 -0.4535
   27MOL   H128 5380   2.343   2.593   3.933 -0.4817 -0.4401 -0.2747
   27MOL   H129 5381   2.652   2.609   3.986  0.5531 -0.1799  1.9736
   27MOL   H130 5382   2.550   2.708   3.885 -0.1976  0.6008  0.2836
   27MOL   H131 5383   2.652   2.764   4.029  1.3492 -0.5324 -1.2757
   27MOL   C132 5384   2.383   2.437   4.072 -0.0482 -0.7146  0.2835
   27MOL   C133 5385   2.399   2.404   4.222 -0.5863 -0.1745 -0.0158
   27MOL   O134 5386   2.274   2.378   4.282  0.2361  0.1560  0.3121
   27MOL   C135 5387   2.276   2.411   4.422 -0.7788 -0.0984  0.6916
   27MOL   H136 5388   2.465   2.395   4.013  0.0753  0.3069 -0.2727
   27MOL   H137 5389   2.297   2.373   4.050 -1.8633  2.2251 -1.4504
   27MOL   H138 5390   2.447   2.493   4.262  1.0591 -0.1690 -1.9270
   27MOL   H139 5391   2.291   2.517   4.439  1.2259  0.0084 -1.4985
   27MOL   H140 5392   2.181   2.375   4.462 -0.9627 -0.6419 -0.1962
   27MOL   H141 5393   2.357   2.368   4.480 -0.6369  1.0474  1.3500
   27MOL   C142 5394   2.488   2.276   4.243 -0.2272  0.3568 -0.6464
   27MOL   C143 5395   2.640   2.280   4.233 -0.2274 -0.5037 -0.4972
   27MOL   O144 5396   2.673   2.378   4.324  0.3090 -0.0239  0.4129
   27MOL   C145 5397   2.786   2.448   4.283 -0.2191  0.5209  0.4159
   27MOL   H146 5398   2.462   2.189   4.182 -0.2149 -0.2398  0.1902
   27MOL   H147 5399   2.489   2.240   4.346  0.8675 -1.5103 -1.2889
   27MOL   H148 5400   2.658   2.302   4.128  0.9329  0.2261 -0.1533
   27MOL   H149 5401   2.875   2.387   4.266 -1.0056  0.3263 -3.3691
   27MOL   H150 5402   2.767   2.495   4.187 -2.1672  0.0879  0.5712
   27MOL   H151 5403   2.809   2.526   4.356 -0.7065  1.2144 -0.1636
   27MOL   C152 5404   2.722   2.155   4.267  0.3427  0.6814  0.2724
   27MOL   C153 5405   2.709   2.033   4.166  0.5272 -0.9379 -0.0553
   27MOL   O154 5406   2.753   2.056   4.037 -0.5346  0.0836 -0.1717
   27MOL   C155 5407   2.649   2.047   3.947 -0.8529 -0.3796  0.2135
   27MOL   H156 5408   2.699   2.117   4.367  0.4347 -2.5663 -0.8893
   27MOL   H157 5409   2.828   2.179   4.282  0.3742  1.3952 -1.0852
   27MOL   H158 5410   2.603   2.013   4.177  0.2236  0.6004 -0.0888
   27MOL   H159 5411   2.704   2.044   3.852 -0.9668  1.1625  0.0816
   27MOL   H160 5412   2.592   1.955   3.955 -2.4294  0.1223 -3.7586
   27MOL   H161 5413   2.589   2.137   3.935 -0.7910 -0.1175  1.7905
   27MOL   C162 5414   2.792   1.917   4.218 -0.0316  0.0026 -0.2079
   27MOL   C163 5415   2.738   1.773   4.187 -0.0229 -0.6955  0.1582
   27MOL   O164 5416   2.824   1.702   4.100 -0.3454 -0.1957  0.4796
   27MOL   C165 5417   2.815   1.745   3.965  0.5917  0.2833  0.0996
   27MOL   H166 5418   2.788   1.929   4.326 -0.6647  0.3392 -0.2654
   27MOL   H167 5419   2.898   1.928   4.197  0.0090 -0.5513 -0.2938
   27MOL   H168 5420   2.648   1.797   4.129 -1.2918 -3.4629  0.9141
   27MOL   H169 5421   2.890   1.686   3.912  0.6743  0.7444 -0.2959
   27MOL   H170 5422   2.716   1.711   3.936 -0.5372  2.4984  1.2149
   27MOL   H171 5423   2.838   1.847   3.935  1.4560 -0.0735 -0.4820
   27MOL   C172 5424   2.721   1.688   4.315  0.3551  0.0679 -0.0368
   27MOL   C173 5425   2.642   1.550   4.298  0.4321 -0.1982 -0.0604
   27MOL   O174 5426   2.730   1.463   4.230 -0.5005 -0.2997  0.0583
   27MOL   C175 5427   2.681   1.409   4.110  0.3714  0.2361  0.2773
   27MOL   H176 5428   2.668   1.757   4.381  0.8335  0.2360  0.1726
   27MOL   H177 5429   2.820   1.665   4.355  0.8621 -0.8801 -1.8261
   27MOL   H178 5430   2.554   1.574   4.237 -0.4108 -1.2083  0.7432
   27MOL   H179 5431   2.609   1.470   4.055 -0.6438  0.1194  1.4470
   27MOL   H180 5432   2.770   1.396   4.048 -0.4201 -0.7875 -0.6761
   27MOL   H181 5433   2.628   1.315   4.130 -2.1654  1.3721 -0.8702
   27MOL   C182 5434   2.597   1.489   4.432 -0.2722 -0.0876 -0.1018
   27MOL   C183 5435   2.495   1.375   4.413 -0.5221  0.2054 -0.4671
   27MOL   O184 5436   2.538   1.252   4.482 -0.3986 -0.5039  0.5191
   27MOL   C185 5437   2.658   1.192   4.443 -0.1771 -0.1711  0.5708
   27MOL   H186 5438   2.549   1.567   4.490  1.2389 -0.1360  1.2312
   27MOL   H187 5439   2.686   1.452   4.483  0.7909  2.1128 -0.3240
   27MOL   H188 5440   2.490   1.350   4.307 -0.3052 -0.5611 -0.2980
   27MOL   H189 5441   2.648   1.091   4.482 -0.2571 -1.1116 -1.8102
   27MOL   H190 5442   2.670   1.191   4.334  0.6371  0.1614  0.6486
   27MOL   H191 5443   2.741   1.230   4.502 -0.8566  1.0570  0.7729
   27MOL   C192 5444   2.352   1.422   4.447 -1.1514  0.1871  0.4952
   27MOL   C193 5445   2.322   1.383   4.598  0.0119  0.6003 -0.2138
   27MOL   O194 5446   2.186   1.406   4.623 -0.6568  0.0860 -0.3476
   27MOL   C195 5447   2.152   1.353   4.753 -0.2217 -0.8094 -0.0359
   27MOL   H196 5448   2.289   1.360   4.384 -1.5099  1.8609 -0.8369
   27MOL   H197 5449   2.330   1.527   4.425  0.1632  0.2324 -0.7010
   27MOL   H198 5450   2.384   1.434   4.672 -0.3060  0.2466  0.2883
   27MOL   H199 5451   2.062   1.396   4.797 -1.3957 -0.5897 -2.5735
   27MOL   H200 5452   2.152   1.245   4.735  1.9768 -0.8772  0.3207
   27MOL   H201 5453   2.225   1.377   4.830 -0.4206  0.1053 -0.1255
   27MOL   H202 5454   2.331   1.276   4.612  1.9894  0.0832 -4.4743
   28MOL     C1 5455   4.982   2.981   7.783  0.4819 -0.4239 -0.4496
   28MOL     C2 5456   5.097   3.084   7.807  0.4304  0.3980 -0.0072
   28MOL     O3 5457   5.222   3.049   7.748 -0.1704 -0.0194 -0.0374
   28MOL     C4 5458   5.308   2.979   0.018  0.5862 -0.0548 -0.4155
   28MOL     H5 5459   4.882   3.019   7.805 -0.2533 -1.6600 -1.5162
   28MOL     H6 5460   4.994   2.953   7.678 -1.9357 -1.1775 -0.5582
   28MOL     H7 5461   5.103   3.108   0.103 -2.8388  0.2670  0.2648
   28MOL     H8 5462   5.300   2.871   0.017  2.7370 -0.2412  0.8819
   28MOL     H9 5463   5.407   2.998   7.787  0.4895 -1.1718 -1.1845
   28MOL    H10 5464   5.311   3.012   0.121 -0.5767 -2.0747  0.2961
   28MOL    H11 5465   4.992   2.886   0.026  2.6958 -0.3076 -0.6100
   28MOL    C12 5466   5.057   3.218   7.742  0.3219  0.2985 -0.2585
   28MOL    C13 5467   5.158   3.332   7.738 -0.0869 -0.8646 -0.6006
   28MOL    O14 5468   5.114   3.452   7.659 -0.4585 -0.1293  0.2848
   28MOL    C15 5469   5.151   3.437   7.523  0.2492 -0.3625  0.0190
   28MOL    H16 5470   4.972   3.256   7.798  0.9846  1.3689  0.0202
   28MOL    H17 5471   5.028   3.205   7.637  1.4708  1.4202 -0.7236
   28MOL    H18 5472   5.251   3.294   7.696  0.5815  0.0228  0.0478
   28MOL    H19 5473   5.124   3.531   7.474  0.7207 -0.0286  0.4004
   28MOL    H20 5474   5.255   3.416   7.499 -0.3556 -3.2227 -0.3446
   28MOL    H21 5475   5.097   3.355   7.475 -0.5370  1.0003 -1.4964
   28MOL    C22 5476   5.203   3.395   0.062 -0.2749  0.5688 -0.7976
   28MOL    C23 5477   5.089   3.445   0.161  0.0651  0.0771  0.3411
   28MOL    O24 5478   5.051   3.334   0.252 -0.1851 -0.4625 -0.3391
   28MOL    C25 5479   4.920   3.352   0.304 -0.5791  0.1897  0.1864
   28MOL    H26 5480   5.254   3.487   0.033  0.2095  0.5985  0.1202
   28MOL    H27 5481   5.274   3.328   0.110 -3.4316  0.2551  3.8164
   28MOL    H28 5482   5.005   3.476   0.099  0.2359  2.2212  1.1547
   28MOL    H29 5483   4.897   3.446   0.354 -0.2016  1.3537 -1.7712
   28MOL    H30 5484   4.862   3.345   0.211  0.9675 -1.2055 -0.6983
   28MOL    H31 5485   4.882   3.269   0.364 -1.0828 -0.1932 -0.6440
   28MOL    C32 5486   5.134   3.569   0.242  0.5223 -0.0814  0.3249
   28MOL    C33 5487   5.137   3.710   0.173 -0.5466 -0.3574 -0.7083
   28MOL    O34 5488   4.999   3.752   0.160  0.2237 -0.0952 -0.6355
   28MOL    C35 5489   4.963   3.780   0.022 -0.5546  0.1385 -0.4764
   28MOL    H36 5490   5.228   3.542   0.288 -0.9391 -2.1051  2.2286
   28MOL    H37 5491   5.062   3.585   0.322 -1.4228 -3.0322 -0.7432
   28MOL    H38 5492   5.181   3.686   0.077 -0.6221 -4.0919  0.1252
   28MOL    H39 5493   4.954   3.686   7.777  0.4872  0.5655 -1.3733
   28MOL    H40 5494   4.870   3.835   0.013  0.4414  1.8372 -0.6341
   28MOL    H41 5495   5.035   3.844   7.781 -0.8864  0.7271 -0.2061
   28MOL    C42 5496   5.227   3.819   0.234 -0.0569 -0.6300  0.0985
   28MOL    C43 5497   5.201   3.883   0.374  0.2962  0.0883  0.6370
   28MOL    O44 5498   5.231   3.788   0.474  0.3997 -0.0799 -0.3500
   28MOL    C45 5499   5.360   3.742   0.497  0.4383 -0.0166 -0.8949
   28MOL    H46 5500   5.220   3.904   0.167 -1.2001 -0.3811  0.5109
   28MOL    H47 5501   5.331   3.791   0.222  0.0321 -1.5181  2.5958
   28MOL    H48 5502   5.094   3.904   0.379 -0.6594 -3.0772 -3.4179
   28MOL    H49 5503   5.425   3.815   0.545 -1.1073 -0.1586  1.4693
   28MOL    H50 5504   5.346   3.671   0.577 -4.0030 -0.5291 -2.0231
   28MOL    H51 5505   5.412   3.695   0.413  1.5581  0.9871 -0.7801
   28MOL    C52 5506   5.263   4.021   0.400 -0.2300 -0.6830  0.2480
   28MOL    C53 5507   5.228   4.085   0.541  1.0716 -0.0064 -0.2044
   28MOL    O54 5508   5.289   4.217   0.542 -0.6188 -0.3020 -0.0933
   28MOL    C55 5509   5.417   4.217   0.588 -0.1525  0.1813  0.5262
   28MOL    H56 5510   5.240   4.088   0.317 -0.2127  0.1131  0.8792
   28MOL    H57 5511   5.370   4.017   0.381 -0.4308 -1.1092 -0.8466
   28MOL    H58 5512   5.267   4.019   0.619 -0.5832  1.0250  1.5244
   28MOL    H59 5513   5.457   4.317   0.572  0.2533  0.2713  2.0406
   28MOL    H60 5514   5.410   4.188   0.692 -1.3318 -1.3466  0.0282
   28MOL    H61 5515   5.485   4.151   0.534 -0.9148 -2.9684  3.2776
   28MOL    C62 5516   5.076   4.110   0.552 -0.6008  0.6155 -0.5344
   28MOL    C63 5517   5.029   4.191   0.679 -0.0121  0.1196 -0.4150
   28MOL    O64 5518   5.105   4.155   0.794  0.3919 -0.2461  0.6094
   28MOL    C65 5519   5.061   4.037   0.867  0.0732  0.9639  1.2173
   28MOL    H66 5520   5.025   4.014   0.556  0.9475 -0.2322 -0.4777
   28MOL    H67 5521   5.040   4.159   0.461 -0.6641  1.0984 -0.2473
   28MOL    H68 5522   4.925   4.162   0.690 -0.0921  0.8610  0.9283
   28MOL    H69 5523   5.039   3.951   0.803 -1.0442  2.5938 -0.6429
   28MOL    H70 5524   5.139   3.995   0.930 -0.5130  0.1485  1.4171
   28MOL    H71 5525   4.961   4.046   0.909  0.0934  0.5649  1.3566
   28MOL    C72 5526   5.007   4.338   0.654 -0.5918  0.0236  0.0647
   28MOL    C73 5527   4.919   4.418   0.746  0.4431  0.0066  0.3724
   28MOL    O74 5528   4.794   4.361   0.784  0.2443 -0.9833  0.4040
   28MOL    C75 5529   4.696   4.351   0.687 -0.0186 -0.0855  0.5470
   28MOL    H76 5530   4.958   4.324   0.557 -0.3095 -1.9187  0.1712
   28MOL    H77 5531   5.103   4.387   0.638  0.2621 -1.4039  0.6354
   28MOL    H78 5532   4.907   4.514   0.696 -0.4951 -0.3527 -0.0927
   28MOL    H79 5533   4.594   4.334   0.720  0.2804 -0.6412  1.1883
   28MOL    H80 5534   4.690   4.450   0.641  0.2608  0.0627  0.8232
   28MOL    H81 5535   4.727   4.271   0.620  0.8279  1.2304 -0.6866
   28MOL    C82 5536   4.988   4.462   0.874 -0.3741 -0.1086  0.0340
   28MOL    C83 5537   4.937   4.572   0.978 -0.2815  0.3580  0.1367
   28MOL    O84 5538   4.948   4.521   1.110 -0.2074 -0.4489 -0.6647
   28MOL    C85 5539   4.836   4.452   1.166 -0.1337  0.3186 -0.4047
   28MOL    H86 5540   5.093   4.486   0.857 -0.0509 -0.7101  1.1711
   28MOL    H87 5541   4.996   4.371   0.933 -0.7559 -0.6640 -0.7613
   28MOL    H88 5542   4.831   4.579   0.953 -0.5334  1.0346  1.3432
   28MOL    H89 5543   4.848   4.347   1.190 -1.5481  0.5922  1.6128
   28MOL    H90 5544   4.811   4.510   1.255 -2.3925  0.2251 -0.9458
   28MOL    H91 5545   4.743   4.458   1.110 -0.6916 -2.4687  0.1940
   28MOL    C92 5546   5.014   4.704   0.972  0.6753 -0.3440 -0.7083
   28MOL    C93 5547   4.954   4.791   0.871 -0.8415 -0.3871 -0.0392
   28MOL    O94 5548   4.844   4.866   0.914 -0.2700 -0.0227  0.0786
   28MOL    C95 5549   4.714   4.828   0.899 -0.0184 -0.3827 -0.0065
   28MOL    H96 5550   5.119   4.677   0.959  0.7021 -1.2411  1.1788
   28MOL    H97 5551   5.014   4.745   1.073  3.4489 -1.3867 -0.2362
   28MOL    H98 5552   4.925   4.733   0.784 -1.1908  0.6151 -0.6015
   28MOL    H99 5553   4.687   4.787   0.997  2.8677  2.4872  2.1183
   28MOL   H100 5554   4.656   4.916   0.871  0.6810  0.0567 -0.0890
   28MOL   H101 5555   4.701   4.748   0.826  0.9199 -0.9089  0.3970
   28MOL   C102 5556   5.053   4.890   0.817 -0.9765 -0.1380 -0.1406
   28MOL   C103 5557   5.012   4.983   0.707 -0.9365 -1.4004 -0.2347
   28MOL   O104 5558   5.100   5.100   0.698  0.0664  0.0116  0.1588
   28MOL   C105 5559   5.032   5.211   0.633  0.5984  0.4823  0.2571
   28MOL   H106 5560   5.141   4.837   0.782 -0.5394  0.6224 -0.1932
   28MOL   H107 5561   5.087   4.959   0.894  1.7333  0.2414 -1.6019
   28MOL   H108 5562   4.914   5.017   0.739 -0.9193 -0.8994 -0.6974
   28MOL   H109 5563   5.001   5.189   0.531  0.1627  1.8474  0.0919
   28MOL   H110 5564   4.952   5.241   0.701 -1.8080  0.0196 -2.3213
   28MOL   H111 5565   5.103   5.294   0.633 -0.3373  1.2855  0.8775
   28MOL   C112 5566   4.992   4.918   0.567 -0.5618 -0.2246  0.6876
   28MOL   C113 5567   5.129   4.852   0.524 -0.4570  0.2117  0.0856
   28MOL   O114 5568   5.141   4.721   0.578  0.1102 -0.1950  0.8962
   28MOL   C115 5569   5.267   4.658   0.565 -0.1088  0.3403  0.0568
   28MOL   H116 5570   4.953   4.981   0.488  1.0781  1.9166  1.5295
   28MOL   H117 5571   4.910   4.846   0.569  0.1193 -1.0089  1.4254
   28MOL   H118 5572   5.217   4.901   0.567  0.5113 -1.3641 -0.0414
   28MOL   H119 5573   5.259   4.550   0.558  0.5812  0.3042 -0.1687
   28MOL   H120 5574   5.318   4.687   0.474 -1.2371  1.9216 -0.0950
   28MOL   H121 5575   5.324   4.683   0.654  0.4326  1.8421 -0.6941
   28MOL   C122 5576   5.159   4.849   0.366 -0.6853 -0.0707  0.1061
   28MOL   C123 5577   5.075   4.744   0.283  0.0151  0.5482 -0.3857
   28MOL   O124 5578   4.948   4.797   0.260 -0.0886 -0.6499  0.2987
   28MOL   C125 5579   4.840   4.707   0.283  1.5818 -0.4776 -0.0501
   28MOL   H126 5580   5.266   4.848   0.347 -0.3560  1.7709  1.7447
   28MOL   H127 5581   5.128   4.945   0.325 -1.0038 -0.6825 -1.1087
   28MOL   H128 5582   5.077   4.644   0.326 -2.3907 -0.1468 -1.7432
   28MOL   H129 5583   4.757   4.777   0.282  0.5578 -1.5983  2.3172
   28MOL   H130 5584   4.834   4.630   0.206  2.1033 -0.6986  0.1295
   28MOL   H131 5585   4.828   4.650   0.375 -1.7423 -2.0212 -1.3534
   28MOL   C132 5586   5.116   4.723   0.137 -0.6443  0.2626  0.2177
   28MOL   C133 5587   5.238   4.630   0.123 -0.7334 -0.1624  0.8670
   28MOL   O134 5588   5.202   4.503   0.167  0.5193  1.2471  0.1104
   28MOL   C135 5589   5.270   4.458   0.282  0.2013  0.2225  0.7536
   28MOL   H136 5590   5.143   4.820   0.096  0.2525  0.5837  1.5170
   28MOL   H137 5591   5.033   4.680   0.081  1.2702 -0.4408 -2.1722
   28MOL   H138 5592   5.324   4.667   0.178 -0.5690  1.1731 -0.2804
   28MOL   H139 5593   5.217   4.467   0.376  0.2934  1.7126  0.6857
   28MOL   H140 5594   5.262   4.350   0.290 -0.2585  0.2108  0.1718
   28MOL   H141 5595   5.375   4.488   0.277  0.3313 -0.1254  1.3753
   28MOL   C142 5596   5.283   4.618   7.787 -0.1059 -0.2940 -0.2719
   28MOL   C143 5597   5.390   4.516   7.760 -0.0085 -0.4539  0.7698
   28MOL   O144 5598   5.404   4.519   7.617  0.2415 -1.0371 -0.3305
   28MOL   C145 5599   5.341   4.415   7.545  0.6826  0.4584  0.0847
   28MOL   H146 5600   5.305   4.707   7.729  1.4422 -0.7460 -0.3951
   28MOL   H147 5601   5.193   4.581   7.736  0.8315 -2.3930 -0.4707
   28MOL   H148 5602   5.360   4.416   7.790 -0.9115 -0.4306 -0.0372
   28MOL   H149 5603   5.379   4.318   7.577 -1.4109 -0.7048 -0.8370
   28MOL   H150 5604   5.232   4.421   7.538  0.5362  0.2944  1.9501
   28MOL   H151 5605   5.368   4.434   7.441 -3.5947  0.5102 -1.1301
   28MOL   C152 5606   5.535   4.544   7.810  0.6343  0.1341 -0.2036
   28MOL   C153 5607   5.650   4.442   7.785  0.2532  0.5931  0.3532
   28MOL   O154 5608   5.749   4.509   7.702 -0.2770  0.7459 -0.3154
   28MOL   C155 5609   5.810   4.418   7.611 -0.0385 -0.0232  0.4341
   28MOL   H156 5610   5.520   4.562   0.106 -1.3747 -2.6489  0.0379
   28MOL   H157 5611   5.569   4.645   7.787 -0.8051  0.2162 -2.0812
   28MOL   H158 5612   5.608   4.357   7.732 -0.2973  0.9303  0.2401
   28MOL   H159 5613   5.862   4.488   7.546  2.1050 -0.7731  1.3010
   28MOL   H160 5614   5.875   4.350   7.665  0.7867  1.4517  1.3321
   28MOL   H161 5615   5.735   4.360   7.557 -0.4751 -0.4589  1.4886
   28MOL   C162 5616   5.719   4.408   0.119  0.0489  0.2303 -0.1965
   28MOL   C163 5617   5.663   4.280   0.192 -0.3227 -0.1367  0.5688
   28MOL   O164 5618   5.670   4.165   0.112  0.6597 -0.3612 -0.2836
   28MOL   C165 5619   5.563   4.076   0.122 -0.4907  0.1721 -0.0980
   28MOL   H166 5620   5.713   4.495   0.185 -2.7423  0.2616 -0.4288
   28MOL   H167 5621   5.822   4.381   0.096 -0.3828 -0.4480 -1.3706
   28MOL   H168 5622   5.558   4.300   0.210 -0.2200  1.2945 -0.3929
   28MOL   H169 5623   5.583   3.993   0.054  3.9674  1.8017 -0.9406
   28MOL   H170 5624   5.559   4.022   0.217  1.6343 -0.5711 -0.4144
   28MOL   H171 5625   5.467   4.117   0.089 -0.6876  0.7307  1.1463
   28MOL   C172 5626   5.723   4.248   0.328 -0.5604 -0.2303 -0.0042
   28MOL   C173 5627   5.880   4.247   0.350  0.2401  0.4514  0.2830
   28MOL   O174 5628   5.893   4.272   0.493 -0.0215 -0.1448  0.2267
   28MOL   C175 5629   5.993   4.353   0.537 -0.0036 -0.7355 -0.2416
   28MOL   H176 5630   5.674   4.159   0.367 -1.7892  1.1492  1.6154
   28MOL   H177 5631   5.693   4.314   0.409  1.6433  0.0211  0.6586
   28MOL   H178 5632   5.927   4.324   0.289  1.0319 -0.1997  0.0650
   28MOL   H179 5633   6.090   4.316   0.503  0.9027  1.2335  0.1632
   28MOL   H180 5634   5.982   4.447   0.484 -2.8114 -0.9810 -0.1524
   28MOL   H181 5635   5.996   4.364   0.645  2.0866 -2.3283 -0.1043
   28MOL   C182 5636   5.953   4.114   0.322  0.6585 -0.4124 -0.3940
   28MOL   C183 5637   6.002   4.099   0.175  0.1630 -0.3534  0.4899
   28MOL   O184 5638   6.109   4.195   0.157 -0.3495  0.0650  0.3853
   28MOL   C185 5639   6.147   4.214   0.019 -0.0394  0.0318 -0.0338
   28MOL   H186 5640   5.883   4.033   0.346  1.5467 -0.9741  0.3136
   28MOL   H187 5641   6.033   4.099   0.394 -1.1975 -0.6577  1.7105
   28MOL   H188 5642   5.913   4.115   0.115 -0.6343 -1.9388  1.2044
   28MOL   H189 5643   6.218   4.296   0.008 -0.4571  0.5522  1.0885
   28MOL   H190 5644   6.188   4.125   7.783 -0.9864  0.2350 -1.3041
   28MOL   H191 5645   6.065   4.252   7.768  0.8232  2.9770  0.5353
   28MOL   C192 5646   6.060   3.948   0.159 -0.0577  0.2258 -0.7809
   28MOL   C193 5647   5.951   3.838   0.144  0.4172  0.8512 -0.5093
   28MOL   O194 5648   6.015   3.723   0.087  0.2121  0.6249  0.1764
   28MOL   C195 5649   5.925   3.616   0.070 -1.1563  0.3853 -0.6167
   28MOL   H196 5650   6.120   3.931   0.248  0.3508 -0.3144 -1.1573
   28MOL   H197 5651   6.120   3.929   0.070  1.6650  1.4920  0.0857
   28MOL   H198 5652   5.876   3.886   0.081  0.3451  0.6915 -0.5471
   28MOL   H199 5653   5.936   3.547   0.153  3.1545 -1.2355 -2.4012
   28MOL   H200 5654   5.822   3.652   0.062 -1.2468  0.2735 -0.0038
   28MOL   H201 5655   5.954   3.553   7.797 -0.4611  0.2722 -0.2936
   28MOL   H202 5656   5.899   3.822   0.238 -0.7710  0.6504 -1.1866
   29MOL     C1 5657   5.174   2.558   5.256  0.0295  0.4264  0.3048
   29MOL     C2 5658   5.201   2.452   5.146 -0.0436  0.0950 -1.0435
   29MOL     O3 5659   5.233   2.528   5.028  0.0966 -0.2916 -0.2348
   29MOL     C4 5660   5.119   2.594   4.961  0.2687  0.6385  0.2765
   29MOL     H5 5661   5.263   2.617   5.277 -1.1099  1.9931  0.8712
   29MOL     H6 5662   5.090   2.626   5.239  1.3482  1.5935 -1.7665
   29MOL     H7 5663   5.116   2.390   5.118 -0.1099 -1.2696  2.0435
   29MOL     H8 5664   5.052   2.512   4.935  4.8236 -2.4289 -2.5516
   29MOL     H9 5665   5.074   2.667   5.029  0.3721 -0.8619  1.9857
   29MOL    H10 5666   5.170   2.632   4.872  1.3956 -1.8828 -0.1975
   29MOL    H11 5667   5.147   2.501   5.344  1.7700 -1.5803 -0.4301
   29MOL    C12 5668   5.322   2.362   5.178 -0.1985 -0.6131 -0.4760
   29MOL    C13 5669   5.367   2.240   5.091 -0.4636 -0.1715 -0.1033
   29MOL    O14 5670   5.497   2.204   5.148  0.2352  0.2731 -0.2951
   29MOL    C15 5671   5.604   2.269   5.081 -0.5119  0.3425  0.5892
   29MOL    H16 5672   5.304   2.315   5.275  1.1019 -0.2463 -0.0413
   29MOL    H17 5673   5.407   2.430   5.187  0.1410 -1.0353 -0.5104
   29MOL    H18 5674   5.370   2.281   4.991  1.4523 -1.3440 -0.5632
   29MOL    H19 5675   5.594   2.373   5.111 -4.2024 -0.4576  2.3766
   29MOL    H20 5676   5.691   2.213   5.114 -1.3852  0.0541  2.4717
   29MOL    H21 5677   5.592   2.266   4.972  3.1200 -1.8138  0.1664
   29MOL    C22 5678   5.271   2.118   5.086 -0.2227 -0.4492 -0.3331
   29MOL    C23 5679   5.296   2.030   4.965  0.3588  0.0524  0.2498
   29MOL    O24 5680   5.231   1.899   4.982  0.4347  0.4339  0.0673
   29MOL    C25 5681   5.316   1.810   5.054  0.4614  0.2210 -0.2130
   29MOL    H26 5682   5.167   2.150   5.088  0.3373  1.4335 -0.3687
   29MOL    H27 5683   5.283   2.061   5.178 -1.1199 -1.0497 -0.5813
   29MOL    H28 5684   5.404   2.028   4.958  0.4920  1.0151  1.6541
   29MOL    H29 5685   5.413   1.801   5.006  1.1944  1.9351  0.9278
   29MOL    H30 5686   5.321   1.833   5.160  0.2725 -1.3462  0.1546
   29MOL    H31 5687   5.272   1.709   5.053  0.4417  0.2143  0.6846
   29MOL    C32 5688   5.239   2.099   4.837 -0.5875  0.0915  0.0394
   29MOL    C33 5689   5.328   2.089   4.710 -0.8273  0.6546 -0.3309
   29MOL    O34 5690   5.450   2.160   4.728 -0.3286 -0.5258 -0.6074
   29MOL    C35 5691   5.515   2.203   4.621  0.0851 -0.1774  0.6854
   29MOL    H36 5692   5.225   2.203   4.866  1.7361  0.6600 -0.8278
   29MOL    H37 5693   5.143   2.051   4.817 -0.7882  0.0173  1.1799
   29MOL    H38 5694   5.282   2.140   4.625  1.8683  3.3536 -0.2538
   29MOL    H39 5695   5.622   2.220   4.637  0.5975 -1.2804 -1.3926
   29MOL    H40 5696   5.510   2.136   4.535 -1.4144  1.1477 -0.2793
   29MOL    H41 5697   5.463   2.290   4.581  0.6824  0.3208  0.9721
   29MOL    C42 5698   5.362   1.941   4.675 -0.8573  0.2096  0.0212
   29MOL    C43 5699   5.234   1.866   4.619 -0.1387  0.0362 -0.2066
   29MOL    O44 5700   5.165   1.928   4.512 -0.4705 -0.2971  0.0803
   29MOL    C45 5701   5.237   1.924   4.386 -0.9030  0.0032 -0.0485
   29MOL    H46 5702   5.419   1.892   4.754  0.2998  1.3377 -0.0873
   29MOL    H47 5703   5.430   1.953   4.590 -0.5643 -2.4839 -0.1656
   29MOL    H48 5704   5.169   1.859   4.706 -0.3893 -1.7142 -0.5256
   29MOL    H49 5705   5.170   1.969   4.313  1.4915  0.6606 -1.9352
   29MOL    H50 5706   5.336   1.970   4.389 -1.3470  0.8500  2.0444
   29MOL    H51 5707   5.255   1.822   4.350  1.0291  0.5328 -0.6257
   29MOL    C52 5708   5.281   1.723   4.607 -0.1047 -0.1147  0.3796
   29MOL    C53 5709   5.174   1.614   4.570  0.7520  0.1475 -0.1241
   29MOL    O54 5710   5.140   1.637   4.435 -0.1474  0.6568 -0.2173
   29MOL    C55 5711   5.015   1.602   4.385  0.4641  0.4014  0.0683
   29MOL    H56 5712   5.326   1.688   4.700 -3.7715 -1.1057  1.8654
   29MOL    H57 5713   5.358   1.723   4.529 -0.0393 -0.4615  0.4441
   29MOL    H58 5714   5.080   1.622   4.623  0.7470  2.4853 -0.4253
   29MOL    H59 5715   4.983   1.505   4.424  0.6118  0.0997 -0.5486
   29MOL    H60 5716   4.960   1.683   4.432  1.4671  1.7398 -1.0290
   29MOL    H61 5717   5.013   1.597   4.276  3.8062  1.2106 -0.0835
   29MOL    C62 5718   5.222   1.470   4.582 -0.0447 -0.1761  0.1793
   29MOL    C63 5719   5.218   1.397   4.720 -0.3539  1.3975  0.2141
   29MOL    O64 5720   5.286   1.478   4.825  0.2476 -0.1968  0.0150
   29MOL    C65 5721   5.429   1.469   4.825  0.0463 -0.0326  0.7151
   29MOL    H66 5722   5.326   1.476   4.549  0.2860 -0.0756  1.2024
   29MOL    H67 5723   5.180   1.398   4.512  1.1225 -0.3691 -0.3299
   29MOL    H68 5724   5.261   1.297   4.714  1.6019  2.2160 -0.0547
   29MOL    H69 5725   5.467   1.504   4.921  2.8730  0.0356 -0.3791
   29MOL    H70 5726   5.460   1.366   4.806 -2.0566 -0.3654 -1.2060
   29MOL    H71 5727   5.492   1.539   4.770  1.5865 -1.0289  1.1657
   29MOL    C72 5728   5.083   1.357   4.779 -0.4765 -0.1726  0.4689
   29MOL    C73 5729   4.987   1.269   4.694 -0.4824 -0.3519 -0.8217
   29MOL    O74 5730   5.051   1.139   4.709  0.2560 -1.1558 -0.6637
   29MOL    C75 5731   5.034   1.065   4.593 -0.0025 -0.4211 -0.6625
   29MOL    H76 5732   5.029   1.446   4.812  0.5956  1.3412 -1.6807
   29MOL    H77 5733   5.109   1.306   4.871  0.2360 -0.7498 -0.0434
   29MOL    H78 5734   4.967   1.306   4.594  0.2605  1.0151 -0.4749
   29MOL    H79 5735   4.931   1.054   4.559 -0.3562 -1.7942  0.7593
   29MOL    H80 5736   5.088   1.123   4.518  0.1546 -0.7980 -0.8407
   29MOL    H81 5737   5.080   0.967   4.600  0.7103  0.0586  2.3941
   29MOL    C82 5738   4.859   1.248   4.763 -0.3804 -0.0303 -0.6432
   29MOL    C83 5739   4.757   1.360   4.730  0.3906 -0.3550  0.8062
   29MOL    O84 5740   4.736   1.344   4.589  0.4384  0.1178 -0.2988
   29MOL    C85 5741   4.677   1.462   4.531  0.6238 -0.0151 -0.2736
   29MOL    H86 5742   4.875   1.222   4.868 -0.5364  0.5934 -0.4639
   29MOL    H87 5743   4.808   1.158   4.727 -0.1253 -0.8366  0.9632
   29MOL    H88 5744   4.799   1.454   4.765  0.0555  1.0516 -2.4416
   29MOL    H89 5745   4.744   1.547   4.544 -1.0773  1.1765  0.9678
   29MOL    H90 5746   4.673   1.441   4.424  0.3689  0.6267 -0.3905
   29MOL    H91 5747   4.573   1.476   4.560  0.4516  0.3607 -1.0814
   29MOL    C92 5748   4.631   1.333   4.806  0.3042 -0.3029 -0.0576
   29MOL    C93 5749   4.638   1.352   4.961 -0.6753 -0.3019  0.5071
   29MOL    O94 5750   4.587   1.482   5.002  0.1970  0.5244  0.5315
   29MOL    C95 5751   4.652   1.525   5.123 -0.0150 -0.2146  0.1556
   29MOL    H96 5752   4.611   1.227   4.791 -1.9543  0.1574 -0.5216
   29MOL    H97 5753   4.533   1.371   4.775  0.4689  0.6403  0.5619
   29MOL    H98 5754   4.742   1.348   4.993  0.1095  1.7411 -1.6218
   29MOL    H99 5755   4.628   1.459   5.206 -0.8838 -0.3042 -0.1538
   29MOL   H100 5756   4.760   1.529   5.111 -0.1289  0.3716 -0.7328
   29MOL   H101 5757   4.609   1.623   5.147 -1.1297 -0.6125 -0.1650
   29MOL   C102 5758   4.555   1.237   5.031 -0.0381  0.7494  0.1636
   29MOL   C103 5759   4.400   1.243   5.028  0.8928 -0.6328  0.1335
   29MOL   O104 5760   4.341   1.112   4.998 -0.3746 -0.1631  0.0362
   29MOL   C105 5761   4.324   1.088   4.863 -0.0071  0.1653 -0.3923
   29MOL   H106 5762   4.594   1.221   5.131 -0.8494 -0.7744  0.2578
   29MOL   H107 5763   4.588   1.145   4.983  3.4133  0.4340  2.9741
   29MOL   H108 5764   4.379   1.304   4.940 -0.1997  0.7731  1.3474
   29MOL   H109 5765   4.411   1.056   4.805 -1.9954 -1.2294 -2.7236
   29MOL   H110 5766   4.257   1.003   4.851  1.8895 -1.5552  0.7995
   29MOL   H111 5767   4.282   1.173   4.810  0.9064  0.5704 -0.4812
   29MOL   C112 5768   4.339   1.304   5.146 -0.0141  0.0286 -0.5963
   29MOL   C113 5769   4.204   1.382   5.128  0.3311 -0.2810 -0.5350
   29MOL   O114 5770   4.131   1.392   5.252  0.5142  0.1205 -0.4183
   29MOL   C115 5771   4.083   1.269   5.308 -0.2248 -0.4481  0.4387
   29MOL   H116 5772   4.415   1.370   5.189 -0.9347 -0.4578  1.8777
   29MOL   H117 5773   4.339   1.230   5.226  2.2044  1.0368  0.4036
   29MOL   H118 5774   4.139   1.322   5.063  0.3811  0.0437 -0.8881
   29MOL   H119 5775   4.013   1.279   5.391  2.4313  0.8642  2.5883
   29MOL   H120 5776   4.026   1.220   5.229 -1.3677  0.0914  0.9161
   29MOL   H121 5777   4.166   1.207   5.342  1.5486 -0.5190 -3.6808
   29MOL   C122 5778   4.219   1.530   5.091  0.4515 -0.4952  0.1709
   29MOL   C123 5779   4.099   1.619   5.056 -0.5520  0.9237  0.3753
   29MOL   O124 5780   4.165   1.719   4.978 -0.2170  0.2633 -0.4582
   29MOL   C125 5781   4.156   1.846   5.037 -0.0192  0.2657  0.2507
   29MOL   H126 5782   4.290   1.536   5.008  0.8881 -2.7918  0.3266
   29MOL   H127 5783   4.276   1.582   5.167  0.2475 -0.8784  0.5921
   29MOL   H128 5784   4.061   1.669   5.145  0.3206  0.6064  0.9325
   29MOL   H129 5785   4.194   1.834   5.139  0.7292  0.9861  0.0619
   29MOL   H130 5786   4.220   1.916   4.984 -0.4227  0.1907 -0.3438
   29MOL   H131 5787   4.058   1.893   5.050  0.2982  0.8683  0.4762
   29MOL   C132 5788   3.982   1.563   4.968 -0.3116 -0.4877 -0.1706
   29MOL   C133 5789   3.872   1.487   5.043  0.7602  0.0143 -0.2648
   29MOL   O134 5790   3.817   1.584   5.138  0.5928 -0.2485  0.3785
   29MOL   C135 5791   3.754   1.518   5.248 -0.3938 -0.0153  0.1960
   29MOL   H136 5792   4.008   1.491   4.890 -0.3010 -2.1778  1.3476
   29MOL   H137 5793   3.945   1.647   4.911 -0.3294 -1.7401 -2.0468
   29MOL   H138 5794   3.915   1.404   5.100  0.1223  0.1641  0.4452
   29MOL   H139 5795   3.726   1.587   5.327 -2.5205 -0.1205 -0.4365
   29MOL   H140 5796   3.669   1.457   5.219  0.3683 -1.7053  1.3989
   29MOL   H141 5797   3.832   1.451   5.285  0.6964  1.7195  1.1340
   29MOL   C142 5798   3.756   1.439   4.948  0.4480 -0.1186 -0.1813
   29MOL   C143 5799   3.791   1.323   4.848 -0.4607 -0.0757  0.2637
   29MOL   O144 5800   3.794   1.206   4.916 -0.0043  0.4622  0.3892
   29MOL   C145 5801   3.922   1.140   4.905  0.0823 -0.6088 -0.1657
   29MOL   H146 5802   3.701   1.521   4.900  0.2550 -0.0283  0.1929
   29MOL   H147 5803   3.672   1.407   5.010 -0.3140  1.1917 -0.5194
   29MOL   H148 5804   3.876   1.347   4.784 -0.6009 -1.4256 -0.4317
   29MOL   H149 5805   3.942   1.111   4.802 -0.8099 -2.2068  0.0948
   29MOL   H150 5806   4.012   1.197   4.928  1.0487 -1.1583 -2.4934
   29MOL   H151 5807   3.929   1.052   4.969 -1.9963 -0.8582 -0.2490
   29MOL   C152 5808   3.679   1.303   4.748 -0.2260 -0.5592 -0.2725
   29MOL   C153 5809   3.658   1.419   4.640 -0.6543  0.6855  0.2349
   29MOL   O154 5810   3.783   1.468   4.591  0.1497 -0.4887 -0.3907
   29MOL   C155 5811   3.780   1.601   4.551 -0.2813 -0.3610 -0.4561
   29MOL   H156 5812   3.588   1.270   4.798  0.0693  0.9023  1.2562
   29MOL   H157 5813   3.717   1.215   4.696  1.9880 -0.1801  0.6757
   29MOL   H158 5814   3.603   1.495   4.697  0.6662  0.2108  2.2050
   29MOL   H159 5815   3.876   1.652   4.542 -0.4453 -0.2227 -1.4820
   29MOL   H160 5816   3.719   1.612   4.462  0.4704  0.2450 -0.9054
   29MOL   H161 5817   3.719   1.655   4.623 -0.4605 -0.8909 -0.2035
   29MOL   C162 5818   3.568   1.369   4.520 -0.3596 -0.3086 -1.0636
   29MOL   C163 5819   3.631   1.255   4.426  0.4368 -0.2144 -0.1607
   29MOL   O164 5820   3.617   1.133   4.491  0.3285  0.4878  0.2126
   29MOL   C165 5821   3.712   1.036   4.443 -0.6084  0.1400  0.4171
   29MOL   H166 5822   3.541   1.461   4.468 -0.8995  1.4273  2.1342
   29MOL   H167 5823   3.479   1.327   4.566  1.5817 -1.3627  1.9053
   29MOL   H168 5824   3.737   1.275   4.412  0.9823 -1.0416  2.3844
   29MOL   H169 5825   3.799   1.049   4.508 -0.0648 -0.7104 -0.1368
   29MOL   H170 5826   3.664   0.939   4.456 -1.5317  0.9023  3.0023
   29MOL   H171 5827   3.753   1.039   4.342  0.5955  0.9668  0.9132
   29MOL   C172 5828   3.566   1.255   4.290 -0.1658 -0.1241  0.2395
   29MOL   C173 5829   3.640   1.354   4.201  0.7886  0.3841  0.7054
   29MOL   O174 5830   3.765   1.299   4.155 -0.5298  0.4075 -0.3051
   29MOL   C175 5831   3.878   1.386   4.178  0.2955  0.0138 -0.1625
   29MOL   H176 5832   3.463   1.283   4.310 -0.0353  0.1163  0.5854
   29MOL   H177 5833   3.574   1.158   4.240 -1.4805 -0.8533  1.4026
   29MOL   H178 5834   3.645   1.442   4.266 -0.4226  1.0311 -0.0485
   29MOL   H179 5835   3.859   1.484   4.133  1.9756  0.9084  1.0361
   29MOL   H180 5836   3.894   1.403   4.284  0.7015 -1.0192 -0.0601
   29MOL   H181 5837   3.968   1.351   4.127  1.0677  0.9019  0.5798
   29MOL   C182 5838   3.557   1.390   4.078  0.0717  0.2547  0.6285
   29MOL   C183 5839   3.613   1.520   4.005 -0.2237  0.5713 -0.1793
   29MOL   O184 5840   3.524   1.559   3.896 -0.0049  0.0511 -0.7793
   29MOL   C185 5841   3.584   1.520   3.768 -0.4388  0.3145  0.2120
   29MOL   H186 5842   3.453   1.406   4.104 -0.1182  0.1997 -0.0868
   29MOL   H187 5843   3.562   1.308   4.007  1.2506 -1.0407  2.1720
   29MOL   H188 5844   3.714   1.501   3.967 -0.3936 -0.2347 -0.2439
   29MOL   H189 5845   3.664   1.591   3.746  0.0887 -0.9687 -2.1115
   29MOL   H190 5846   3.628   1.421   3.774  1.1483  1.0417  1.0172
   29MOL   H191 5847   3.512   1.531   3.688 -0.8661 -1.7647  0.2982
   29MOL   C192 5848   3.626   1.643   4.098  0.5975 -0.2645  0.1835
   29MOL   C193 5849   3.502   1.698   4.159 -0.5349 -0.1159  0.0012
   29MOL   O194 5850   3.538   1.809   4.241  0.5256 -0.1372 -0.0086
   29MOL   C195 5851   3.423   1.878   4.297  0.0142  0.1375 -0.3548
   29MOL   H196 5852   3.677   1.719   4.040 -1.6345  1.5154  0.4775
   29MOL   H197 5853   3.702   1.627   4.175  1.8613  3.0079 -0.2908
   29MOL   H198 5854   3.453   1.615   4.209  0.0019 -0.5914 -0.2579
   29MOL   H199 5855   3.350   1.806   4.333 -2.1932  2.4956  0.0771
   29MOL   H200 5856   3.446   1.945   4.379  1.0463  0.2970 -0.7629
   29MOL   H201 5857   3.383   1.940   4.216 -1.9742 -1.1543 -0.3844
   29MOL   H202 5858   3.442   1.741   4.078 -0.2998 -0.0806 -0.1544
   30MOL     C1 5859   3.907   7.755   0.925 -0.5342  0.0681  0.5664
   30MOL     C2 5860   3.800   0.060   0.924 -0.5487 -0.8598  0.0439
   30MOL     O3 5861   3.675   7.807   0.934 -0.5208 -0.5113 -0.0128
   30MOL     C4 5862   3.560   0.049   0.877 -0.2276  0.1068  0.1298
   30MOL     H5 5863   3.896   7.702   1.020  0.0584 -2.5100 -0.7464
   30MOL     H6 5864   3.879   7.689   0.844  0.1060  0.6809 -0.1585
   30MOL     H7 5865   3.800   0.102   0.823 -3.7085  0.4978  0.5546
   30MOL     H8 5866   3.576   0.079   0.774  1.2082 -1.3743 -0.0892
   30MOL     H9 5867   3.491   7.776   0.882  0.8562 -0.9255 -1.6349
   30MOL    H10 5868   3.514   0.122   0.944  0.0495  0.1351  0.2917
   30MOL    H11 5869   4.008   7.793   0.911 -0.5162 -1.1045 -2.9448
   30MOL    C12 5870   3.821   0.156   1.039  0.7902 -0.8888 -0.2636
   30MOL    C13 5871   3.944   0.247   1.020  0.0740  0.7141 -0.8236
   30MOL    O14 5872   3.916   0.343   0.921 -0.2216  0.1889  0.6053
   30MOL    C15 5873   4.029   0.386   0.849  0.0331 -0.6633  0.1543
   30MOL    H16 5874   3.831   0.094   1.128 -0.9015 -0.4396  0.2579
   30MOL    H17 5875   3.728   0.212   1.051  1.2822  0.5170 -2.6812
   30MOL    H18 5876   4.029   0.186   0.989  1.5246  3.0694 -1.6360
   30MOL    H19 5877   4.111   0.427   0.908  1.1627 -0.2402 -1.6604
   30MOL    H20 5878   4.074   0.298   0.802 -1.2357 -0.5742 -1.2572
   30MOL    H21 5879   4.000   0.463   0.777 -1.5547 -1.2357  0.1572
   30MOL    C22 5880   3.988   0.325   1.147  0.5155  1.1969 -0.5047
   30MOL    C23 5881   4.017   0.241   1.274  0.9089 -0.7927  0.5640
   30MOL    O24 5882   4.086   0.120   1.220 -0.2184 -0.6449 -0.6807
   30MOL    C25 5883   4.120   0.017   1.313  0.1484 -0.3456  0.9789
   30MOL    H26 5884   3.912   0.404   1.153 -0.0152  0.6829 -0.4346
   30MOL    H27 5885   4.080   0.374   1.116  1.7433 -1.1921 -0.7333
   30MOL    H28 5886   3.928   0.202   1.323 -0.2938 -0.4771 -1.2988
   30MOL    H29 5887   4.035   7.799   1.375 -2.1071 -1.8103 -2.6451
   30MOL    H30 5888   4.154   7.745   1.252 -2.2041 -0.9543  0.4390
   30MOL    H31 5889   4.195   0.054   1.383 -2.1424  1.4529  2.5984
   30MOL    C32 5890   4.086   0.315   1.385  0.0809  0.1564  0.5065
   30MOL    C33 5891   4.022   0.442   1.439 -0.9601  0.0956  0.2124
   30MOL    O34 5892   3.915   0.407   1.534 -0.1164  0.0249 -0.0802
   30MOL    C35 5893   3.782   0.437   1.490  0.2390  0.0026 -0.1048
   30MOL    H36 5894   4.182   0.351   1.348  0.3810 -0.8644  0.2787
   30MOL    H37 5895   4.103   0.263   1.479 -2.8626  0.9051  1.5071
   30MOL    H38 5896   3.981   0.507   1.361 -1.0486 -0.6878 -0.3944
   30MOL    H39 5897   3.707   0.461   1.566 -0.3568  0.6137 -0.8757
   30MOL    H40 5898   3.781   0.539   1.451 -1.4084 -0.1533 -0.5140
   30MOL    H41 5899   3.749   0.365   1.416 -0.9824 -1.2971  1.6419
   30MOL    C42 5900   4.109   0.529   1.527 -0.1869 -0.5731  0.4792
   30MOL    C43 5901   4.192   0.640   1.455 -0.3412  0.1585 -0.3800
   30MOL    O44 5902   4.100   0.717   1.378  0.1277  0.2674  0.3835
   30MOL    C45 5903   4.136   0.754   1.249  0.0044 -0.2301 -0.2775
   30MOL    H46 5904   4.178   0.460   1.578  2.1026  1.4037  0.1497
   30MOL    H47 5905   4.047   0.578   1.601 -0.2619 -1.0691  0.7496
   30MOL    H48 5906   4.268   0.591   1.393 -1.3707 -2.0788  0.0753
   30MOL    H49 5907   4.232   0.806   1.249 -1.1448  1.9844  1.5292
   30MOL    H50 5908   4.132   0.671   1.178 -1.9334 -1.5388  1.3149
   30MOL    H51 5909   4.057   0.824   1.222 -0.2649  0.2838  1.7436
   30MOL    C52 5910   4.270   0.743   1.545 -0.0430  0.2729 -0.0306
   30MOL    C53 5911   4.365   0.679   1.655 -1.1990  0.2580  0.4873
   30MOL    O54 5912   4.443   0.579   1.588  0.3264 -0.1126  0.3768
   30MOL    C55 5913   4.496   0.471   1.666 -0.2227 -0.4306 -0.2079
   30MOL    H56 5914   4.197   0.808   1.593  0.4751  0.9990 -0.2113
   30MOL    H57 5915   4.337   0.789   1.473  1.3581 -1.0013  0.4397
   30MOL    H58 5916   4.296   0.632   1.725 -0.0461 -0.6791  1.0080
   30MOL    H59 5917   4.549   0.520   1.748 -1.6650 -1.2829  1.2869
   30MOL    H60 5918   4.413   0.410   1.702  1.5449 -2.0475  1.2733
   30MOL    H61 5919   4.566   0.415   1.605  1.5995 -0.4058  1.8003
   30MOL    C62 5920   4.461   0.791   1.716 -0.3650 -0.3144  0.3143
   30MOL    C63 5921   4.386   0.908   1.792  0.0140  0.3936  0.3595
   30MOL    O64 5922   4.321   0.852   1.908 -0.5287  0.7380 -0.4510
   30MOL    C65 5923   4.199   0.897   1.942  0.0168 -0.1426 -0.6812
   30MOL    H66 5924   4.523   0.825   1.633 -0.6994  0.2268  0.2784
   30MOL    H67 5925   4.531   0.749   1.788 -0.0116  0.5620  0.4849
   30MOL    H68 5926   4.313   0.952   1.724 -0.3114 -1.0755 -0.2456
   30MOL    H69 5927   4.139   0.871   1.855 -1.5745  2.6323 -0.4635
   30MOL    H70 5928   4.167   0.856   2.038 -0.9623  0.4803 -0.7358
   30MOL    H71 5929   4.193   1.005   1.950  1.7827 -0.0218 -0.8637
   30MOL    C72 5930   4.496   1.000   1.842 -0.7990 -0.4067 -0.0852
   30MOL    C73 5931   4.563   1.103   1.749  0.5063 -0.1685 -0.4196
   30MOL    O74 5932   4.455   1.182   1.703  0.5281  0.0659 -0.0146
   30MOL    C75 5933   4.486   1.247   1.585 -0.1807 -0.0485  0.3447
   30MOL    H76 5934   4.573   0.934   1.882 -1.0528 -0.7599 -0.1756
   30MOL    H77 5935   4.441   1.059   1.915 -2.5282 -1.1828 -0.7414
   30MOL    H78 5936   4.605   1.056   1.660  0.2889  0.8284 -1.0540
   30MOL    H79 5937   4.548   1.335   1.605 -2.4911  0.9956  3.1286
   30MOL    H80 5938   4.523   1.183   1.504 -0.7479  1.6271 -1.2754
   30MOL    H81 5939   4.405   1.310   1.550 -0.7873 -0.7153  0.5488
   30MOL    C82 5940   4.658   1.190   1.828 -0.1658  1.1182  0.0223
   30MOL    C83 5941   4.773   1.119   1.902  0.1880  0.0940  0.4692
   30MOL    O84 5942   4.892   1.195   1.885 -0.2261  0.1938  0.6474
   30MOL    C85 5943   4.969   1.158   1.775 -0.2183  0.6764  0.4299
   30MOL    H86 5944   4.596   1.257   1.889 -1.4614 -1.2472  1.3641
   30MOL    H87 5945   4.700   1.265   1.761 -0.7088  2.2579  0.9428
   30MOL    H88 5946   4.783   1.018   1.862  1.6929  0.0218  1.0172
   30MOL    H89 5947   5.052   1.229   1.768  0.8553 -0.4304  1.6894
   30MOL    H90 5948   5.000   1.054   1.774 -1.9439  0.1271  1.1851
   30MOL    H91 5949   4.913   1.164   1.681  0.4063 -0.3921 -0.0189
   30MOL    C92 5950   4.755   1.109   2.060 -0.0428 -0.2505  0.3234
   30MOL    C93 5951   4.846   0.990   2.110 -1.0722 -0.3653  0.3100
   30MOL    O94 5952   4.880   0.987   2.249  0.7707  0.7181  0.3775
   30MOL    C95 5953   4.983   1.086   2.271  0.4479 -0.4346 -0.1443
   30MOL    H96 5954   4.652   1.088   2.089 -0.1417 -0.0268  0.1382
   30MOL    H97 5955   4.780   1.206   2.102 -0.2075 -0.2482  0.4175
   30MOL    H98 5956   4.939   0.994   2.054 -0.3946  0.5603  1.4928
   30MOL    H99 5957   5.081   1.062   2.230  0.8279 -0.4359  0.7441
   30MOL   H100 5958   4.961   1.186   2.232 -2.8928 -0.3514  1.7957
   30MOL   H101 5959   4.987   1.102   2.379  0.9058  0.0741 -0.2348
   30MOL   C102 5960   4.793   0.849   2.099 -0.3294  0.6149  0.5193
   30MOL   C103 5961   4.888   0.737   2.071 -0.2785  0.1349  0.4212
   30MOL   O104 5962   4.950   0.763   1.941 -0.2332  0.0724  0.0899
   30MOL   C105 5963   4.950   0.670   1.833 -0.4747 -0.0092  0.4368
   30MOL   H106 5964   4.718   0.844   2.020  0.0308  0.0218  0.2150
   30MOL   H107 5965   4.737   0.818   2.187 -1.2367 -0.8099 -0.5290
   30MOL   H108 5966   4.822   0.652   2.057 -1.4323  0.7157  2.2247
   30MOL   H109 5967   5.038   0.608   1.848 -0.3556 -0.7480 -2.9503
   30MOL   H110 5968   4.854   0.617   1.836  0.5164 -2.0913 -2.8571
   30MOL   H111 5969   4.977   0.728   1.745  2.8139 -1.0131  0.7370
   30MOL   C112 5970   4.992   0.694   2.177  0.5804  0.3355  0.3319
   30MOL   C113 5971   4.944   0.669   2.323 -0.5306 -0.0323 -0.3523
   30MOL   O114 5972   4.867   0.549   2.317 -0.1480 -0.8258  0.0158
   30MOL   C115 5973   4.747   0.555   2.396  0.4558  0.1662 -0.2443
   30MOL   H116 5974   5.066   0.773   2.192 -0.7028  1.1969  2.4940
   30MOL   H117 5975   5.039   0.605   2.137 -0.0412  0.4841 -0.7344
   30MOL   H118 5976   4.885   0.760   2.333 -0.5592 -0.1211  0.2959
   30MOL   H119 5977   4.702   0.654   2.393  0.6004  0.2236 -0.5916
   30MOL   H120 5978   4.678   0.478   2.362  1.9940 -0.4251 -2.1749
   30MOL   H121 5979   4.760   0.524   2.499 -2.5845  0.7486  0.3553
   30MOL   C122 5980   5.056   0.649   2.437  0.3479 -0.0796 -0.4728
   30MOL   C123 5981   4.995   0.670   2.579  0.0999 -0.4919  0.1597
   30MOL   O124 5982   5.088   0.643   2.679 -0.1138  0.3959  0.4193
   30MOL   C125 5983   5.081   0.510   2.731 -0.3973 -0.7248 -0.3743
   30MOL   H126 5984   5.138   0.717   2.417  0.4125 -0.0527 -0.1247
   30MOL   H127 5985   5.092   0.546   2.427 -0.3538 -0.4641  0.8094
   30MOL   H128 5986   4.911   0.601   2.591  1.7399 -2.1450  2.3184
   30MOL   H129 5987   5.120   0.432   2.666  1.1148 -0.5015  0.2246
   30MOL   H130 5988   5.140   0.516   2.823 -0.1011  4.8789 -0.7437
   30MOL   H131 5989   4.982   0.482   2.767 -0.8211  0.7166 -0.3790
   30MOL   C132 5990   4.947   0.814   2.596  0.4991  0.1442 -0.8079
   30MOL   C133 5991   4.880   0.847   2.733 -0.5277 -0.3990  0.1550
   30MOL   O134 5992   4.909   0.979   2.760  0.3872  0.8228  0.3682
   30MOL   C135 5993   4.862   1.075   2.669  0.0935  0.1892  0.0869
   30MOL   H136 5994   4.875   0.847   2.521  0.4957 -0.1699 -0.9411
   30MOL   H137 5995   5.033   0.877   2.573 -0.3249  0.3072 -3.6259
   30MOL   H138 5996   4.926   0.790   2.813  1.5488 -1.7676 -1.9468
   30MOL   H139 5997   4.919   1.160   2.704  2.1852 -0.8509 -0.6781
   30MOL   H140 5998   4.904   1.055   2.570 -0.4365 -0.7974  0.0482
   30MOL   H141 5999   4.754   1.085   2.676 -0.0084 -0.7679 -0.0312
   30MOL   C142 6000   4.733   0.821   2.726 -0.2375  0.0232  0.4434
   30MOL   C143 6001   4.646   0.878   2.837 -0.0236 -0.4412  0.0829
   30MOL   O144 6002   4.518   0.877   2.780  0.0952 -0.7769 -0.4374
   30MOL   C145 6003   4.476   0.994   2.706  0.0244  0.3039 -0.2084
   30MOL   H146 6004   4.717   0.713   2.725  0.6505 -0.1063  0.4462
   30MOL   H147 6005   4.693   0.861   2.632 -0.1334  0.3461  0.5355
   30MOL   H148 6006   4.675   0.979   2.867 -2.6876 -0.0227  1.4045
   30MOL   H149 6007   4.472   1.079   2.774  0.4050  1.8504 -2.0754
   30MOL   H150 6008   4.548   1.028   2.632 -1.2043  3.3390 -0.0709
   30MOL   H151 6009   4.380   0.970   2.660 -0.1826  0.9538 -0.1170
   30MOL   C152 6010   4.635   0.790   2.966  0.0491 -0.5828 -0.4151
   30MOL   C153 6011   4.765   0.771   3.056  0.7936 -0.2564  0.7118
   30MOL   O154 6012   4.809   0.902   3.093 -0.4242 -0.1897  0.4149
   30MOL   C155 6013   4.945   0.926   3.094  0.2086  0.6198 -0.4987
   30MOL   H156 6014   4.593   0.692   2.942 -0.8963 -0.9419  2.4201
   30MOL   H157 6015   4.564   0.836   3.035  0.1589 -0.2616 -0.5167
   30MOL   H158 6016   4.844   0.714   3.008  0.3650  1.3530 -1.9811
   30MOL   H159 6017   4.968   1.026   3.131  1.8143 -0.0845  0.4832
   30MOL   H160 6018   5.008   0.855   3.148  0.6111  3.0570  2.3621
   30MOL   H161 6019   4.985   0.917   2.993  0.7480 -2.5313 -0.0411
   30MOL   C162 6020   4.718   0.704   3.187 -0.3893 -0.3418 -0.0476
   30MOL   C163 6021   4.695   0.555   3.180 -0.1882 -0.4563  0.1306
   30MOL   O164 6022   4.820   0.484   3.192  0.3857 -0.1474  0.0898
   30MOL   C165 6023   4.869   0.438   3.074 -0.3108 -0.8351  0.1891
   30MOL   H166 6024   4.637   0.758   3.237  1.0904  1.8441  0.0618
   30MOL   H167 6025   4.784   0.718   3.273 -0.4177  0.8805 -0.2204
   30MOL   H168 6026   4.659   0.535   3.079  3.7554 -0.3159 -1.3545
   30MOL   H169 6027   4.974   0.418   3.094  1.1338  4.7020 -1.1664
   30MOL   H170 6028   4.816   0.345   3.054  0.8623 -1.3217 -0.6828
   30MOL   H171 6029   4.853   0.504   2.989 -1.5691 -1.7336 -0.2937
   30MOL   C172 6030   4.601   0.505   3.293  0.3336 -0.1182 -0.6989
   30MOL   C173 6031   4.531   0.369   3.268  0.1588 -0.1458  0.3313
   30MOL   O174 6032   4.462   0.324   3.386  0.0922  0.2442 -0.4767
   30MOL   C175 6033   4.549   0.299   3.502  0.2508 -0.0737 -0.3325
   30MOL   H176 6034   4.518   0.574   3.303  1.0070  0.3080  2.4010
   30MOL   H177 6035   4.655   0.513   3.387  0.6351  1.2639 -0.9864
   30MOL   H178 6036   4.608   0.294   3.247 -0.2543 -0.5444  0.2476
   30MOL   H179 6037   4.588   0.390   3.547 -2.5531  1.1505 -0.2518
   30MOL   H180 6038   4.485   0.246   3.574  1.1863  0.1341  0.6665
   30MOL   H181 6039   4.627   0.225   3.484  0.3742  0.2134 -0.9540
   30MOL   C182 6040   4.419   0.373   3.160  0.5375 -0.2748  0.4439
   30MOL   C183 6041   4.376   0.236   3.104 -0.2246  0.6335 -0.5652
   30MOL   O184 6042   4.243   0.246   3.049  0.6042 -0.4335  0.5387
   30MOL   C185 6043   4.137   0.257   3.137 -0.0238  0.1845  0.8342
   30MOL   H186 6044   4.449   0.431   3.073 -2.7679 -0.1803 -0.7128
   30MOL   H187 6045   4.336   0.418   3.215  0.6075 -1.5957  1.6626
   30MOL   H188 6046   4.366   0.161   3.182  0.2065 -1.3762 -2.4017
   30MOL   H189 6047   4.148   0.190   3.223 -1.1718 -1.8577 -0.5821
   30MOL   H190 6048   4.118   0.357   3.176 -2.8177  0.2074 -0.4208
   30MOL   H191 6049   4.042   0.228   3.092  0.1158  0.3868  0.4098
   30MOL   C192 6050   4.469   0.189   2.990  0.2514 -0.8292 -0.2514
   30MOL   C193 6051   4.460   0.045   2.941 -0.1200 -0.3832  0.4800
   30MOL   O194 6052   4.523   0.026   2.811  0.4397  0.2360  0.2804
   30MOL   C195 6053   4.567   7.704   2.791 -0.1977 -0.1307  0.4475
   30MOL   H196 6054   4.566   0.185   3.040 -0.3169  0.6228  1.0125
   30MOL   H197 6055   4.462   0.266   2.914  2.1132  1.2143  1.5673
   30MOL   H198 6056   4.357   0.013   2.929 -0.2153 -0.4733  1.4728
   30MOL   H199 6057   4.609   7.715   2.691  0.2258  0.6321  0.7082
   30MOL   H200 6058   4.658   7.678   2.844 -0.2745 -2.0335 -0.3042
   30MOL   H201 6059   4.487   7.630   2.789  0.7121 -1.1453  0.7668
   30MOL   H202 6060   4.502   7.794   3.021  0.7658 -0.0244  0.2939
   31MOL     C1 6061   1.445   4.943   1.986 -0.2289 -0.6121  0.9577
   31MOL     C2 6062   1.490   4.824   2.069 -0.0938 -0.0208 -0.6808
   31MOL     O3 6063   1.509   4.720   1.974  0.5468  0.0088  1.7939
   31MOL     C4 6064   1.397   4.628   1.972 -0.0799  0.1546 -0.1612
   31MOL     H5 6065   1.338   4.945   1.967  0.0163  0.9839 -0.4433
   31MOL     H6 6066   1.464   5.040   2.033  3.2764 -0.2315 -1.0568
   31MOL     H7 6067   1.422   4.785   2.144  0.5067 -1.6861 -0.9547
   31MOL     H8 6068   1.401   4.563   1.884 -0.4581 -1.0477  0.6969
   31MOL     H9 6069   1.387   4.567   2.061 -1.1612  2.8712  1.6354
   31MOL    H10 6070   1.299   4.669   1.948 -1.0893 -1.8737  0.3578
   31MOL    H11 6071   1.511   4.959   1.901  0.6322 -0.4403  1.6445
   31MOL    C12 6072   1.641   4.855   2.125  0.9541 -0.0165 -0.1411
   31MOL    C13 6073   1.677   4.749   2.231  0.1017 -0.2156 -0.3380
   31MOL    O14 6074   1.821   4.733   2.222  0.7412 -0.0237  0.1705
   31MOL    C15 6075   1.861   4.628   2.139 -0.3070 -0.4078 -0.7207
   31MOL    H16 6076   1.638   4.955   2.169 -1.0549  1.3320 -3.2089
   31MOL    H17 6077   1.716   4.864   2.047  2.1830  1.2237  1.1344
   31MOL    H18 6078   1.618   4.660   2.212  1.0482 -0.6781 -1.1268
   31MOL    H19 6079   1.879   4.543   2.205 -1.8997  1.5356  2.3145
   31MOL    H20 6080   1.797   4.597   2.056 -0.9308  0.3507 -0.5256
   31MOL    H21 6081   1.963   4.642   2.105  0.4383 -2.3457  0.6246
   31MOL    C22 6082   1.648   4.811   2.373 -0.5752 -0.9565 -0.4475
   31MOL    C23 6083   1.651   4.711   2.497 -0.2014 -0.7499 -0.0820
   31MOL    O24 6084   1.642   4.786   2.621 -0.1760 -0.4056  0.4541
   31MOL    C25 6085   1.765   4.833   2.665 -0.4221 -0.1265  0.6293
   31MOL    H26 6086   1.550   4.860   2.368 -0.2131  0.0056  1.2821
   31MOL    H27 6087   1.723   4.889   2.386  1.1612 -2.8783  1.2985
   31MOL    H28 6088   1.740   4.649   2.487  1.2193  1.1326  0.5690
   31MOL    H29 6089   1.827   4.744   2.664 -0.9939 -0.5222  0.2848
   31MOL    H30 6090   1.812   4.918   2.615  2.6226 -1.8835  0.3868
   31MOL    H31 6091   1.767   4.853   2.772 -0.5709  0.3807  0.5422
   31MOL    C32 6092   1.530   4.618   2.500 -0.0055 -0.9601  0.1372
   31MOL    C33 6093   1.546   4.509   2.608  0.3636  0.1649 -0.0778
   31MOL    O34 6094   1.423   4.444   2.648  0.2278 -0.3365 -0.2035
   31MOL    C35 6095   1.370   4.509   2.758 -0.7189 -0.3367 -0.4612
   31MOL    H36 6096   1.528   4.566   2.404  0.3279  0.6616 -0.7753
   31MOL    H37 6097   1.430   4.661   2.504 -0.1558 -1.3992  1.2388
   31MOL    H38 6098   1.595   4.566   2.687 -0.8363  0.3262  0.5504
   31MOL    H39 6099   1.354   4.617   2.758  1.8220  0.1107  2.0231
   31MOL    H40 6100   1.274   4.463   2.777  0.0490 -1.2439  1.3638
   31MOL    H41 6101   1.441   4.493   2.840 -1.8624  1.1088  0.8486
   31MOL    C42 6102   1.646   4.396   2.562  0.2667  0.4889 -0.3530
   31MOL    C43 6103   1.742   4.353   2.678  0.3930  0.2285  0.1927
   31MOL    O44 6104   1.819   4.460   2.730  0.6601  0.3298 -0.1828
   31MOL    C45 6105   1.951   4.472   2.668 -0.0090  0.2055  0.2761
   31MOL    H46 6106   1.710   4.429   2.480 -0.7922  0.5100 -1.1748
   31MOL    H47 6107   1.601   4.308   2.516  1.3298 -0.2055 -0.1010
   31MOL    H48 6108   1.808   4.287   2.623  1.1079 -0.5089  1.9063
   31MOL    H49 6109   2.019   4.546   2.709  0.3568  1.0318 -1.7583
   31MOL    H50 6110   2.007   4.379   2.678  0.4489  0.1748 -2.1696
   31MOL    H51 6111   1.936   4.502   2.564 -0.6286  0.4361  0.4284
   31MOL    C52 6112   1.698   4.271   2.798  0.5404 -0.1483  0.4790
   31MOL    C53 6113   1.624   4.139   2.776  0.0165 -0.0150 -0.1862
   31MOL    O54 6114   1.708   4.045   2.700  0.0364  0.3173 -0.3327
   31MOL    C55 6115   1.635   3.952   2.620  0.0548  0.8323  0.0621
   31MOL    H56 6116   1.636   4.332   2.864 -0.5896 -2.5955  1.7551
   31MOL    H57 6117   1.785   4.243   2.857  0.1254 -1.7469  0.3463
   31MOL    H58 6118   1.540   4.158   2.709  0.0986 -1.1349 -0.6203
   31MOL    H59 6119   1.585   3.871   2.673  2.2928 -1.0921 -0.7025
   31MOL    H60 6120   1.563   3.997   2.551  1.3240 -0.3612 -2.0840
   31MOL    H61 6121   1.707   3.897   2.561  1.7650  0.6027  2.2864
   31MOL    C62 6122   1.575   4.080   2.907  0.1326 -0.8683  0.0586
   31MOL    C63 6123   1.450   4.148   2.965 -0.1528 -0.3097 -0.9193
   31MOL    O64 6124   1.324   4.086   2.927  0.3304 -0.3341 -0.3729
   31MOL    C65 6125   1.217   4.173   2.884  0.7335  0.9222 -0.0299
   31MOL    H66 6126   1.661   4.092   2.973  0.3767  2.3282 -0.7353
   31MOL    H67 6127   1.552   3.975   2.893 -0.9401 -0.7592  0.9166
   31MOL    H68 6128   1.453   4.254   2.941  0.9246  0.4981  2.4414
   31MOL    H69 6129   1.243   4.224   2.791 -2.6390 -0.9800 -2.1261
   31MOL    H70 6130   1.128   4.111   2.869 -0.2126  1.4916  2.8657
   31MOL    H71 6131   1.207   4.249   2.961 -2.2847  0.3830  0.1853
   31MOL    C72 6132   1.444   4.132   3.119 -0.3621  0.2176 -0.4259
   31MOL    C73 6133   1.542   4.216   3.206 -0.0603 -0.2629  0.4818
   31MOL    O74 6134   1.543   4.351   3.162 -0.1702 -0.1491  0.1355
   31MOL    C75 6135   1.667   4.417   3.155 -0.4377  0.0608  0.0400
   31MOL    H76 6136   1.456   4.026   3.140 -0.5777  0.8566  3.2763
   31MOL    H77 6137   1.348   4.163   3.160 -0.0095  0.3146  0.3381
   31MOL    H78 6138   1.645   4.180   3.206 -0.4095 -1.5714 -4.4087
   31MOL    H79 6139   1.719   4.404   3.250 -0.1944 -0.4737 -0.1636
   31MOL    H80 6140   1.731   4.374   3.078  0.2414  1.0235  0.0489
   31MOL    H81 6141   1.660   4.525   3.143  0.8272  0.1929  0.3261
   31MOL    C82 6142   1.507   4.212   3.362 -0.5999  0.1683 -0.2970
   31MOL    C83 6143   1.544   4.075   3.437  0.3104  0.8680  0.1477
   31MOL    O84 6144   1.556   4.116   3.567 -0.6562 -0.7550  0.1450
   31MOL    C85 6145   1.689   4.149   3.603  0.4153 -0.2723 -0.2947
   31MOL    H86 6146   1.402   4.240   3.372 -1.2723 -2.5369  0.4363
   31MOL    H87 6147   1.577   4.281   3.409 -0.9003 -0.4350  1.0459
   31MOL    H88 6148   1.638   4.035   3.401  1.1264  1.8137  1.2059
   31MOL    H89 6149   1.692   4.241   3.660  3.0050 -0.8874  0.6549
   31MOL    H90 6150   1.736   4.063   3.651  0.5375 -0.6883 -1.1378
   31MOL    H91 6151   1.756   4.173   3.520  0.0851  4.1387  0.6114
   31MOL    C92 6152   1.451   3.950   3.413 -0.3819 -0.0257 -0.2649
   31MOL    C93 6153   1.301   3.976   3.424 -0.6244  0.6423 -0.0998
   31MOL    O94 6154   1.223   3.865   3.382  0.5222 -0.1332  0.1719
   31MOL    C95 6155   1.182   3.881   3.243  0.0227  0.3815 -0.0073
   31MOL    H96 6156   1.473   3.872   3.486  0.1292  1.8912  1.6568
   31MOL    H97 6157   1.471   3.903   3.316  0.2002 -0.6099  0.1335
   31MOL    H98 6158   1.277   4.063   3.363  0.9460  0.7152 -0.6393
   31MOL    H99 6159   1.125   3.795   3.208  1.8718 -1.4163  1.2726
   31MOL   H100 6160   1.117   3.968   3.236  0.0447  0.4501  0.5835
   31MOL   H101 6161   1.259   3.886   3.166 -0.8143  1.2985 -0.7883
   31MOL   C102 6162   1.261   4.015   3.567 -0.1573  0.2165 -0.1872
   31MOL   C103 6163   1.109   4.022   3.607  0.2492 -0.3110 -0.0655
   31MOL   O104 6164   1.109   4.061   3.746  0.4295  0.9125 -0.0522
   31MOL   C105 6165   1.137   3.948   3.830  0.2267  0.0698  0.2709
   31MOL   H106 6166   1.318   4.105   3.593 -1.3944  0.8645  0.3185
   31MOL   H107 6167   1.311   3.941   3.630 -0.2150 -0.2845 -0.7281
   31MOL   H108 6168   1.057   3.927   3.596 -0.2644  0.0221 -0.4987
   31MOL   H109 6169   1.058   3.918   3.899 -0.6662 -0.3196 -0.9024
   31MOL   H110 6170   1.140   3.857   3.770 -2.1267  0.6791 -0.8364
   31MOL   H111 6171   1.231   3.955   3.885 -0.3018  1.9586  0.9622
   31MOL   C112 6172   1.035   4.134   3.535 -0.0525  0.1934  0.4679
   31MOL   C113 6173   0.882   4.131   3.572 -0.2721 -0.2310  0.0367
   31MOL   O114 6174   0.838   4.260   3.541 -0.0699  0.1143  0.5142
   31MOL   C115 6175   0.722   4.296   3.602  0.4149 -0.1380  0.0710
   31MOL   H116 6176   1.045   4.131   3.426 -0.4730  1.3157  0.3884
   31MOL   H117 6177   1.086   4.230   3.549  2.0874 -1.1606  2.1619
   31MOL   H118 6178   0.873   4.107   3.678 -0.6586  0.7918  0.2495
   31MOL   H119 6179   0.634   4.239   3.569  1.8464 -2.2191 -0.2344
   31MOL   H120 6180   0.740   4.281   3.708  0.4916 -1.5692 -0.1352
   31MOL   H121 6181   0.698   4.401   3.585 -2.3883 -0.5992  0.7705
   31MOL   C122 6182   0.806   4.016   3.499 -0.0555 -0.4378  0.3347
   31MOL   C123 6183   0.764   4.030   3.354  0.1980  0.4530 -0.4793
   31MOL   O124 6184   0.882   4.032   3.269  0.3274 -0.2517  0.1767
   31MOL   C125 6185   0.855   4.072   3.136  0.4263  0.1620 -0.0241
   31MOL   H126 6186   0.713   4.022   3.556  1.0794  3.0451  1.9150
   31MOL   H127 6187   0.848   3.918   3.518  2.2789 -0.1854 -3.0914
   31MOL   H128 6188   0.724   4.131   3.347  0.4555  0.5052 -1.2121
   31MOL   H129 6189   0.792   4.158   3.116  0.3029 -0.0695 -0.6586
   31MOL   H130 6190   0.955   4.092   3.098  0.6903  0.7881  0.9868
   31MOL   H131 6191   0.810   3.993   3.075  1.2459 -0.8518  0.6628
   31MOL   C132 6192   0.655   3.929   3.312 -0.3443 -0.2312  0.9363
   31MOL   C133 6193   0.704   3.785   3.297  0.0613  0.1689  1.2131
   31MOL   O134 6194   0.741   3.734   3.425 -0.5543  0.5852  0.0692
   31MOL   C135 6195   0.837   3.631   3.435  0.6548 -0.2956  0.2252
   31MOL   H136 6196   0.623   3.959   3.212  2.0885  0.0257  0.1972
   31MOL   H137 6197   0.577   3.942   3.387 -0.7060 -0.3527  0.5897
   31MOL   H138 6198   0.787   3.777   3.227 -0.2362  1.3676  0.7171
   31MOL   H139 6199   0.878   3.610   3.534  2.3709  2.2636  0.1245
   31MOL   H140 6200   0.775   3.544   3.419  0.9284  0.1660 -3.8365
   31MOL   H141 6201   0.928   3.657   3.380  0.0146  0.7199 -0.3688
   31MOL   C142 6202   0.603   3.680   3.245  0.3721 -0.3506 -0.0358
   31MOL   C143 6203   0.574   3.698   3.095 -0.6509 -0.3597  0.1930
   31MOL   O144 6204   0.698   3.704   3.025 -0.4511 -0.3765 -0.5743
   31MOL   C145 6205   0.700   3.750   2.896  0.8223 -0.3437  0.0858
   31MOL   H146 6206   0.513   3.696   3.304 -1.9335  0.2479 -3.5154
   31MOL   H147 6207   0.633   3.579   3.272  0.6583 -0.2386  0.0686
   31MOL   H148 6208   0.517   3.789   3.080  1.4051  0.8141 -0.7077
   31MOL   H149 6209   0.799   3.742   2.851  1.7293  0.0387  1.9881
   31MOL   H150 6210   0.629   3.702   2.828  0.6071  2.0544 -1.4454
   31MOL   H151 6211   0.663   3.853   2.891 -1.9582 -1.3529 -1.5355
   31MOL   C152 6212   0.500   3.570   3.041  0.1597  0.0316  0.1581
   31MOL   C153 6213   0.369   3.525   3.101  0.0900 -0.4552  0.2753
   31MOL   O154 6214   0.265   3.590   3.020  0.7515 -0.0381 -0.0232
   31MOL   C155 6215   0.220   3.717   3.047  0.1302 -0.3537  0.7624
   31MOL   H156 6216   0.574   3.491   3.029  0.3433  0.4991 -1.8677
   31MOL   H157 6217   0.482   3.587   2.935 -1.8736 -0.2412  0.4386
   31MOL   H158 6218   0.357   3.562   3.203 -2.7140  0.3267 -0.2941
   31MOL   H159 6219   0.293   3.795   3.024  0.5846 -0.1147  2.9471
   31MOL   H160 6220   0.120   3.736   3.006  0.6730 -0.4492 -0.6311
   31MOL   H161 6221   0.202   3.723   3.154 -2.7766 -1.1097  0.3663
   31MOL   C162 6222   0.348   3.371   3.093  0.0266  0.9144  0.9247
   31MOL   C163 6223   0.353   3.294   3.222  0.6651  0.1225 -0.2776
   31MOL   O164 6224   0.308   3.168   3.191 -0.3709  0.4813 -0.4827
   31MOL   C165 6225   0.259   3.090   3.299  0.5323  0.1983 -0.7353
   31MOL   H166 6226   0.412   3.333   3.013 -2.5918 -1.0567 -0.3090
   31MOL   H167 6227   0.248   3.365   3.051  1.1887  3.8762 -2.5021
   31MOL   H168 6228   0.288   3.342   3.295  0.2628  1.8661 -1.7505
   31MOL   H169 6229   0.335   3.079   3.377 -0.9237 -0.2743  0.6376
   31MOL   H170 6230   0.165   3.137   3.329 -0.5673 -1.1277 -2.0720
   31MOL   H171 6231   0.235   2.990   3.262  1.8486 -0.5608  0.4241
   31MOL   C172 6232   0.499   3.294   3.278 -0.4318  0.1475 -0.1951
   31MOL   C173 6233   0.604   3.197   3.217  0.3844 -0.0234  0.1459
   31MOL   O174 6234   0.631   3.227   3.087  0.0844  0.2176 -0.0283
   31MOL   C175 6235   0.580   3.133   2.991  0.0740  0.0026 -0.4129
   31MOL   H176 6236   0.504   3.293   3.387  1.6440 -0.0980 -0.2768
   31MOL   H177 6237   0.555   3.386   3.269  0.0937 -0.1987 -0.4418
   31MOL   H178 6238   0.552   3.102   3.226  0.1346  0.0455 -0.5121
   31MOL   H179 6239   0.593   3.170   2.889 -3.3109 -1.0268 -1.2703
   31MOL   H180 6240   0.653   3.053   3.003  1.4353  1.3958  0.8056
   31MOL   H181 6241   0.475   3.103   2.998 -0.0622 -0.0341 -2.1992
   31MOL   C182 6242   0.736   3.195   3.295 -0.5644  0.5687 -0.3878
   31MOL   C183 6243   0.726   3.158   3.446 -0.7735 -0.5358  1.2061
   31MOL   O184 6244   0.670   3.027   3.460  0.4413 -0.7664 -0.2036
   31MOL   C185 6245   0.610   3.017   3.587 -0.1769  0.2066  1.2168
   31MOL   H186 6246   0.779   3.295   3.289  1.0148 -0.0296  0.4661
   31MOL   H187 6247   0.809   3.131   3.247  0.3493  2.0599 -1.0249
   31MOL   H188 6248   0.671   3.234   3.502  0.3758 -0.0986  1.7512
   31MOL   H189 6249   0.675   3.026   3.673  1.5346  1.2581 -0.1430
   31MOL   H190 6250   0.527   3.087   3.600  0.3193  1.1002 -0.3288
   31MOL   H191 6251   0.558   2.921   3.584 -1.2401  0.7997 -0.4473
   31MOL   C192 6252   0.866   3.148   3.500  0.5860 -0.0254  0.2543
   31MOL   C193 6253   0.931   3.280   3.529 -0.1293 -0.1239  0.3726
   31MOL   O194 6254   1.064   3.267   3.585  0.4061 -0.4127 -0.8406
   31MOL   C195 6255   1.169   3.254   3.489 -0.0140 -0.0216 -0.0562
   31MOL   H196 6256   0.926   3.084   3.435  0.8699 -1.7273  2.1764
   31MOL   H197 6257   0.874   3.087   3.590  1.4663 -1.0977 -0.5294
   31MOL   H198 6258   0.863   3.335   3.594 -0.3286  2.0914 -1.6126
   31MOL   H199 6259   1.171   3.340   3.422  0.4216  1.1835  1.4710
   31MOL   H200 6260   1.260   3.251   3.549  1.2775  0.3645 -1.9212
   31MOL   H201 6261   1.161   3.159   3.436 -2.9558  0.9969 -1.5264
   31MOL   H202 6262   0.932   3.339   3.437  0.9489  0.5669  0.8125
   32MOL     C1 6263   2.471   4.174   4.306  0.2780  0.1828 -0.2374
   32MOL     C2 6264   2.509   4.200   4.162 -0.2427  0.4089 -0.3482
   32MOL     O3 6265   2.641   4.231   4.164 -0.5665 -0.2639 -0.4385
   32MOL     C4 6266   2.681   4.368   4.163 -0.1317 -0.1954 -0.5774
   32MOL     H5 6267   2.499   4.252   4.377 -0.2526  1.2408 -1.1835
   32MOL     H6 6268   2.364   4.172   4.321  0.6154  2.6976  2.8401
   32MOL     H7 6269   2.446   4.273   4.111  0.7871  0.1517 -2.0124
   32MOL     H8 6270   2.615   4.434   4.106 -1.0501  0.0167  0.7123
   32MOL     H9 6271   2.670   4.401   4.266 -1.1261 -2.5505  0.0945
   32MOL    H10 6272   2.785   4.377   4.131 -0.7374  1.1611 -2.2688
   32MOL    H11 6273   2.504   4.072   4.322  0.0083  0.2806  0.9250
   32MOL    C12 6274   2.488   4.078   4.072  0.4970 -0.3565 -0.9677
   32MOL    C13 6275   2.535   4.077   3.928 -0.2233  0.3670  0.4729
   32MOL    O14 6276   2.487   3.961   3.860  0.6112 -0.3658 -0.0040
   32MOL    C15 6277   2.569   3.840   3.866 -1.1191 -0.7750 -0.2143
   32MOL    H16 6278   2.383   4.048   4.076  0.5615 -0.5849 -0.9651
   32MOL    H17 6279   2.541   3.990   4.110 -3.8624 -2.7703 -0.1794
   32MOL    H18 6280   2.644   4.078   3.923 -0.2226 -0.4655  0.2776
   32MOL    H19 6281   2.541   3.747   3.817 -0.5404 -0.5777 -0.9281
   32MOL    H20 6282   2.670   3.852   3.826 -1.9857  3.1933 -1.4097
   32MOL    H21 6283   2.575   3.822   3.974 -1.3121  0.4492  0.0071
   32MOL    C22 6284   2.484   4.195   3.844  0.0274  0.1213 -0.4510
   32MOL    C23 6285   2.551   4.217   3.703  0.2060 -0.3150 -0.3009
   32MOL    O24 6286   2.480   4.335   3.649  0.5083 -0.3256  0.2124
   32MOL    C25 6287   2.362   4.309   3.570 -0.4046 -0.4448 -0.0861
   32MOL    H26 6288   2.502   4.287   3.898  0.1512  0.8503 -1.7222
   32MOL    H27 6289   2.379   4.182   3.819 -0.4624  2.1659  0.4471
   32MOL    H28 6290   2.533   4.131   3.639 -0.3171  0.1174 -0.7350
   32MOL    H29 6291   2.309   4.401   3.546 -0.3681 -0.6870 -1.1125
   32MOL    H30 6292   2.374   4.267   3.470  0.1815 -1.0052  0.2174
   32MOL    H31 6293   2.296   4.239   3.622  1.3412 -2.6152 -0.6878
   32MOL    C32 6294   2.700   4.244   3.696 -0.1405  0.2330 -0.6649
   32MOL    C33 6295   2.751   4.248   3.549 -0.7707  0.1709  0.1098
   32MOL    O34 6296   2.881   4.300   3.546  0.0905  0.4531 -0.3378
   32MOL    C35 6297   2.881   4.443   3.546 -0.4312  0.4489 -0.3850
   32MOL    H36 6298   2.762   4.179   3.756  2.2157  0.3372 -2.8896
   32MOL    H37 6299   2.705   4.338   3.751 -2.1499 -0.3676  0.5989
   32MOL    H38 6300   2.684   4.309   3.488  0.3174  0.2500 -1.0360
   32MOL    H39 6301   2.822   4.472   3.633 -2.2065 -0.1146 -1.3643
   32MOL    H40 6302   2.975   4.496   3.544 -0.3818  0.4270  1.1242
   32MOL    H41 6303   2.818   4.473   3.462 -2.0083  1.5283  1.1613
   32MOL    C42 6304   2.755   4.106   3.484  0.3094 -0.0411  0.2170
   32MOL    C43 6305   2.706   4.094   3.337  0.5104 -0.1294 -0.5474
   32MOL    O44 6306   2.571   4.126   3.336 -0.0937 -0.0069 -0.0517
   32MOL    C45 6307   2.488   4.013   3.354  0.2754  0.0285  0.1660
   32MOL    H46 6308   2.698   4.035   3.543 -1.1228  0.4815 -0.5286
   32MOL    H47 6309   2.856   4.065   3.491 -0.1233 -0.8588  1.8966
   32MOL    H48 6310   2.727   3.995   3.297  0.3877  0.4549 -2.0846
   32MOL    H49 6311   2.386   4.050   3.357  0.2680  0.3146 -2.3739
   32MOL    H50 6312   2.492   3.933   3.280  0.2490  0.1410  0.0429
   32MOL    H51 6313   2.491   3.962   3.451  1.1213 -0.0417  0.1123
   32MOL    C52 6314   2.765   4.195   3.230 -0.2530  0.1747  0.3378
   32MOL    C53 6315   2.914   4.180   3.207 -0.4723 -0.1577  0.3473
   32MOL    O54 6316   2.936   4.111   3.081 -0.0201 -0.1735  0.0838
   32MOL    C55 6317   2.973   3.971   3.087  0.1645  0.5004 -0.3789
   32MOL    H56 6318   2.748   4.300   3.255  0.6839  0.3253  0.3526
   32MOL    H57 6319   2.711   4.181   3.136  1.7967 -0.3453 -0.7721
   32MOL    H58 6320   2.952   4.113   3.285  1.9296  0.5216 -0.2001
   32MOL    H59 6321   2.888   3.911   3.121 -0.2659  1.0648 -0.4452
   32MOL    H60 6322   3.004   3.932   2.991  0.7190 -0.0620  0.0215
   32MOL    H61 6323   3.052   3.956   3.161 -0.3522  2.4181  0.6080
   32MOL    C62 6324   2.996   4.309   3.218  0.1809 -0.0960 -0.4323
   32MOL    C63 6325   3.151   4.298   3.178 -0.0192  0.9970 -0.2283
   32MOL    O64 6326   3.173   4.253   3.042 -0.0455  0.1252  0.2328
   32MOL    C65 6327   3.112   4.330   2.938  0.6730  0.0785 -0.2672
   32MOL    H66 6328   2.998   4.344   3.321 -0.3267  2.5241 -1.2751
   32MOL    H67 6329   2.943   4.394   3.177 -0.5697 -0.0278  0.6648
   32MOL    H68 6330   3.193   4.217   3.236 -1.1593  0.1722 -0.5274
   32MOL    H69 6331   3.184   4.376   2.870  0.1519 -0.1353 -0.9757
   32MOL    H70 6332   3.037   4.281   2.876 -1.5484  2.2627  0.6241
   32MOL    H71 6333   3.056   4.413   2.979 -1.7854 -0.6628 -1.9845
   32MOL    C72 6334   3.236   4.420   3.203 -0.0713 -0.0722  0.3071
   32MOL    C73 6335   3.254   4.465   3.350 -0.1917  0.4653  0.3429
   32MOL    O74 6336   3.347   4.381   3.413  0.1622  0.0060 -0.5457
   32MOL    C75 6337   3.329   4.369   3.547 -0.6015 -0.1191  0.3916
   32MOL    H76 6338   3.189   4.500   3.145  0.7049 -1.2375 -1.9663
   32MOL    H77 6339   3.339   4.417   3.169  0.3453 -0.0659  1.5594
   32MOL    H78 6340   3.158   4.471   3.401 -0.5912  2.4760 -0.6008
   32MOL    H79 6341   3.386   4.449   3.595  0.1073 -1.4267  1.8054
   32MOL    H80 6342   3.223   4.380   3.568 -0.4444  1.4348  0.4397
   32MOL    H81 6343   3.369   4.273   3.581 -0.5503 -0.0991  0.3879
   32MOL    C82 6344   3.315   4.606   3.365 -0.1296  0.2020  0.2019
   32MOL    C83 6345   3.216   4.718   3.369 -0.0957  0.6427  0.0639
   32MOL    O84 6346   3.145   4.701   3.487  1.0071  0.2369  0.4878
   32MOL    C85 6347   3.024   4.772   3.503  0.2269 -0.6817 -0.7726
   32MOL    H86 6348   3.375   4.605   3.273  4.0286 -0.4195  2.7899
   32MOL    H87 6349   3.368   4.613   3.460 -1.4653  2.1625  0.8494
   32MOL    H88 6350   3.151   4.696   3.284 -0.6570 -3.1857  1.3906
   32MOL    H89 6351   2.977   4.744   3.597 -0.9260  2.0772 -0.4445
   32MOL    H90 6352   3.041   4.879   3.514  1.8508 -0.8462 -1.6154
   32MOL    H91 6353   2.948   4.751   3.428  0.6508 -0.2161 -1.3414
   32MOL    C92 6354   3.278   4.860   3.348 -0.3131 -0.0353  0.4168
   32MOL    C93 6355   3.374   4.921   3.452 -0.9811 -0.1923 -0.2743
   32MOL    O94 6356   3.405   5.055   3.412 -0.3073 -0.3421  0.1625
   32MOL    C95 6357   3.522   5.060   3.323  0.5744 -0.3597  0.2424
   32MOL    H96 6358   3.193   4.925   3.328 -0.6031 -1.3008 -2.6768
   32MOL    H97 6359   3.333   4.858   3.254 -0.1482  2.0443  0.4576
   32MOL    H98 6360   3.466   4.863   3.461  0.3756  1.8087 -0.9935
   32MOL    H99 6361   3.537   5.168   3.318 -1.2293 -0.0966  0.3122
   32MOL   H100 6362   3.607   5.005   3.364  0.8217 -0.7467 -0.7708
   32MOL   H101 6363   3.491   5.019   3.227  0.2796 -1.1723  0.6788
   32MOL   C102 6364   3.307   4.932   3.592 -0.5031  0.5567  0.2760
   32MOL   C103 6365   3.380   4.999   3.709 -0.5301 -1.0343 -0.0213
   32MOL   O104 6366   3.307   4.983   3.830 -0.1445  0.2741 -0.6451
   32MOL   C105 6367   3.191   5.059   3.842 -0.1135  0.4500  0.1248
   32MOL   H106 6368   3.274   4.835   3.629 -1.0110  0.0189 -1.5362
   32MOL   H107 6369   3.211   4.983   3.586 -0.1717  1.1318 -0.1865
   32MOL   H108 6370   3.398   5.103   3.683 -0.3114 -1.2150 -0.6222
   32MOL   H109 6371   3.109   5.012   3.786  1.9222 -0.6235 -2.0518
   32MOL   H110 6372   3.165   5.072   3.947 -0.6761 -1.2891  0.2243
   32MOL   H111 6373   3.210   5.149   3.785  2.7728  0.2893  0.7683
   32MOL   C112 6374   3.520   4.939   3.742 -0.1346 -0.1061 -0.7740
   32MOL   C113 6375   3.601   4.985   3.864  0.1633 -0.4828  0.3038
   32MOL   O114 6376   3.645   4.869   3.933 -0.3613  0.2425 -0.2716
   32MOL   C115 6377   3.560   4.820   4.031 -0.1177 -0.3399  1.0495
   32MOL   H116 6378   3.589   4.924   3.659 -1.0481  0.6382 -1.6664
   32MOL   H117 6379   3.490   4.835   3.759 -1.5575  0.0111 -2.4703
   32MOL   H118 6380   3.539   5.034   3.938  1.9169  0.9658  0.8679
   32MOL   H119 6381   3.527   4.884   4.113 -1.3055 -0.5555  0.7518
   32MOL   H120 6382   3.467   4.782   3.988  0.5268 -1.8775  0.9840
   32MOL   H121 6383   3.624   4.748   4.081  0.5717 -1.2153 -1.0472
   32MOL   C122 6384   3.733   5.062   3.835 -0.2329 -0.2579 -0.7301
   32MOL   C123 6385   3.724   5.206   3.778 -0.3467  0.3155  0.1156
   32MOL   O124 6386   3.788   5.307   3.852 -0.3276  0.5728  0.2905
   32MOL   C125 6387   3.699   5.374   3.941  0.6012 -0.4953  0.3093
   32MOL   H126 6388   3.799   5.001   3.774  3.2999  3.5317 -0.8699
   32MOL   H127 6389   3.787   5.066   3.930  0.2611  3.2270 -1.1131
   32MOL   H128 6390   3.616   5.215   3.771 -0.5150 -1.8379 -0.5551
   32MOL   H129 6391   3.743   5.437   4.018  1.6929 -0.3186 -0.4536
   32MOL   H130 6392   3.626   5.438   3.892  0.2540 -1.8681 -1.0050
   32MOL   H131 6393   3.639   5.296   3.988 -2.8894  1.7230 -0.2617
   32MOL   C132 6394   3.793   5.215   3.645 -0.3773 -0.2253  0.0866
   32MOL   C133 6395   3.777   5.357   3.574 -0.0317  0.3070 -0.0333
   32MOL   O134 6396   3.805   5.345   3.436  0.1658  0.2395  0.3112
   32MOL   C135 6397   3.948   5.326   3.405 -0.2825  0.1638  0.8989
   32MOL   H136 6398   3.756   5.135   3.581 -0.0641 -0.7039  0.5099
   32MOL   H137 6399   3.894   5.175   3.658 -1.2970 -2.0306  2.0247
   32MOL   H138 6400   3.846   5.428   3.619  2.8596 -1.3346 -1.7260
   32MOL   H139 6401   3.964   5.290   3.304  3.2224 -1.0716  1.8063
   32MOL   H140 6402   3.998   5.423   3.394  2.3820 -1.3130 -0.4240
   32MOL   H141 6403   3.998   5.263   3.478  0.4483  1.3552  1.4593
   32MOL   C142 6404   3.635   5.399   3.568 -0.1656  0.2736 -0.1444
   32MOL   C143 6405   3.607   5.538   3.508 -0.0790 -0.3583 -0.9712
   32MOL   O144 6406   3.483   5.541   3.446 -0.3295  0.5528  0.2401
   32MOL   C145 6407   3.478   5.509   3.303  1.1196 -0.6050 -0.1822
   32MOL   H146 6408   3.590   5.406   3.667 -1.8037  0.2585 -0.8718
   32MOL   H147 6409   3.575   5.327   3.512 -1.5087  0.5290  0.9145
   32MOL   H148 6410   3.684   5.564   3.435  1.2914 -1.4640  0.0698
   32MOL   H149 6411   3.546   5.573   3.248 -1.5407  2.5044  0.0323
   32MOL   H150 6412   3.520   5.409   3.296  1.9175 -0.1639 -1.7738
   32MOL   H151 6413   3.380   5.535   3.263  0.7090  0.4480  1.4405
   32MOL   C152 6414   3.600   5.644   3.622 -0.1112  0.0265  0.0167
   32MOL   C153 6415   3.569   5.793   3.578 -0.2367  0.0443 -0.6336
   32MOL   O154 6416   3.579   5.877   3.691 -1.0499  0.2716  0.2689
   32MOL   C155 6417   3.520   6.010   3.677  0.1777 -0.4454  0.5534
   32MOL   H156 6418   3.701   5.646   3.663 -0.9526 -1.7842  2.2845
   32MOL   H157 6419   3.534   5.626   3.707 -0.1521  0.6631  0.1190
   32MOL   H158 6420   3.465   5.805   3.546 -0.3646 -1.8169 -0.9864
   32MOL   H159 6421   3.564   6.069   3.596 -0.4689 -0.4790  0.1705
   32MOL   H160 6422   3.413   6.001   3.655  0.4094 -1.5729 -0.1386
   32MOL   H161 6423   3.509   6.070   3.768 -2.5216 -0.4537  0.2887
   32MOL   C162 6424   3.661   5.848   3.466  0.2097  0.0547  0.6402
   32MOL   C163 6425   3.810   5.857   3.491  0.2365  0.9606  1.2139
   32MOL   O164 6426   3.875   5.870   3.369  0.6225 -0.4029 -0.2882
   32MOL   C165 6427   3.925   5.749   3.324 -0.0331 -0.1629 -0.4389
   32MOL   H166 6428   3.623   5.946   3.439  0.2523 -0.6140 -2.0108
   32MOL   H167 6429   3.640   5.781   3.383  0.4894  1.0491 -0.2366
   32MOL   H168 6430   3.838   5.768   3.549 -2.5451 -2.0123 -1.8266
   32MOL   H169 6431   3.847   5.674   3.312 -0.0697  0.2005 -2.6985
   32MOL   H170 6432   3.980   5.756   3.230  1.5034  0.2033  0.4782
   32MOL   H171 6433   3.998   5.705   3.392  0.7241  0.3608 -0.9097
   32MOL   C172 6434   3.841   5.989   3.582 -0.5564 -0.5808 -0.4472
   32MOL   C173 6435   3.989   6.015   3.633 -0.4804  0.1814 -0.3209
   32MOL   O174 6436   4.030   5.895   3.701  0.0775  0.0003 -0.3309
   32MOL   C175 6437   4.094   5.914   3.823  0.8580  0.5795 -0.1667
   32MOL   H176 6438   3.779   5.990   3.672  0.1371 -0.9316  0.0402
   32MOL   H177 6439   3.803   6.076   3.528  0.2040  1.3754  2.0416
   32MOL   H178 6440   3.979   6.104   3.696 -0.7945  0.0505 -0.1822
   32MOL   H179 6441   4.171   5.989   3.805  2.4934 -0.9897  0.1481
   32MOL   H180 6442   4.022   5.953   3.895 -1.6271 -0.7292 -1.8636
   32MOL   H181 6443   4.135   5.821   3.862 -0.6946 -0.7310 -1.6068
   32MOL   C182 6444   4.087   6.048   3.530 -0.1270 -0.0714 -0.1106
   32MOL   C183 6445   4.065   6.177   3.442 -0.2395  0.2642 -0.0476
   32MOL   O184 6446   4.091   6.294   3.520  0.3433  0.2371 -0.2174
   32MOL   C185 6447   3.974   6.375   3.555  0.0653  0.1768 -0.5033
   32MOL   H186 6448   4.102   5.960   3.467 -0.6283 -0.3834  0.2021
   32MOL   H187 6449   4.183   6.055   3.581 -1.0807 -1.9803  2.0421
   32MOL   H188 6450   3.961   6.185   3.408  0.3652  1.9966 -1.5475
   32MOL   H189 6451   4.012   6.468   3.597  0.0023 -0.5041  1.0901
   32MOL   H190 6452   3.914   6.402   3.468 -1.7789  1.7110  1.2156
   32MOL   H191 6453   3.898   6.333   3.621  1.0343  2.4280  2.1278
   32MOL   C192 6454   4.140   6.184   3.315  0.4739  0.1636  0.4462
   32MOL   C193 6455   4.118   6.313   3.235 -0.4620 -0.1592 -0.5276
   32MOL   O194 6456   4.172   6.298   3.106 -0.3794  0.0496  0.2990
   32MOL   C195 6457   4.149   6.416   3.035 -0.2279 -0.3282 -0.3592
   32MOL   H196 6458   4.116   6.097   3.254  2.2686 -2.3481  3.1470
   32MOL   H197 6459   4.248   6.178   3.331  0.6541  0.8230 -0.4875
   32MOL   H198 6460   4.164   6.404   3.275 -0.2343  0.9822 -3.2766
   32MOL   H199 6461   4.048   6.456   3.046 -0.0769 -0.6988  2.8591
   32MOL   H200 6462   4.217   6.487   3.082  1.8631 -0.2149 -3.4326
   32MOL   H201 6463   4.163   6.403   2.928 -0.9305 -0.6514 -0.4161
   32MOL   H202 6464   4.013   6.332   3.216 -0.7377  0.4662  1.5122
   33MOL     C1 6465   1.749   7.017   6.495 -0.5282 -0.2521 -0.4722
   33MOL     C2 6466   1.849   6.908   6.460 -0.1155  0.3709  0.3970
   33MOL     O3 6467   1.807   6.832   6.351  0.6444 -0.2389  0.1452
   33MOL     C4 6468   1.722   6.731   6.387  0.3098 -0.0480  0.0340
   33MOL     H5 6469   1.657   6.985   6.543 -0.6815 -2.3807 -2.1185
   33MOL     H6 6470   1.795   7.096   6.554 -1.0598  0.5505 -1.1201
   33MOL     H7 6471   1.848   6.844   6.548  2.1706  0.0982  0.2533
   33MOL     H8 6472   1.619   6.756   6.414  0.3466  1.9465 -1.5125
   33MOL     H9 6473   1.714   6.664   6.301  1.9506 -1.5040  0.9817
   33MOL    H10 6474   1.758   6.664   6.464 -0.9155  1.0204  1.5666
   33MOL    H11 6475   1.720   7.064   6.401 -2.2850 -1.8401 -0.7375
   33MOL    C12 6476   1.985   6.972   6.437  0.3426 -0.0348 -0.0492
   33MOL    C13 6477   2.098   6.871   6.417  0.1842 -0.0046  0.3985
   33MOL    O14 6478   2.212   6.942   6.389  0.0736 -0.4886  0.4843
   33MOL    C15 6479   2.256   6.939   6.256  0.1660 -0.1297  0.1331
   33MOL    H16 6480   2.017   7.033   6.522  2.4561  1.4269 -1.8350
   33MOL    H17 6481   1.975   7.054   6.366 -0.0557  0.0261  0.0801
   33MOL    H18 6482   2.081   6.800   6.336 -0.7053  1.9690 -1.1749
   33MOL    H19 6483   2.198   6.995   6.182  0.0018 -1.5460 -0.8414
   33MOL    H20 6484   2.346   6.999   6.242 -0.7268  1.1269 -0.2899
   33MOL    H21 6485   2.278   6.837   6.224  1.6822  0.9978 -2.5588
   33MOL    C22 6486   2.131   6.791   6.550  0.0495 -0.9128  0.0547
   33MOL    C23 6487   2.255   6.691   6.550 -0.8987  0.8608 -0.2576
   33MOL    O24 6488   2.250   6.593   6.447  0.2151  0.2198 -0.1261
   33MOL    C25 6489   2.289   6.455   6.469  0.3357 -0.5877  0.2105
   33MOL    H26 6490   2.049   6.720   6.561  0.5627 -1.1925  2.5206
   33MOL    H27 6491   2.126   6.855   6.638 -1.4536 -1.2965  0.2641
   33MOL    H28 6492   2.232   6.637   6.642  0.0336 -1.9195 -1.6069
   33MOL    H29 6493   2.224   6.401   6.540 -0.6641 -0.4687 -0.5981
   33MOL    H30 6494   2.286   6.406   6.372  1.1782 -0.3429  0.0610
   33MOL    H31 6495   2.394   6.453   6.497  0.0198  0.2858  1.5368
   33MOL    C32 6496   2.397   6.746   6.557 -0.5953 -0.9427 -0.5155
   33MOL    C33 6497   2.411   6.865   6.660 -0.2405 -0.3720  0.8300
   33MOL    O34 6498   2.367   6.819   6.787 -0.0653  0.4859  0.2047
   33MOL    C35 6499   2.311   6.915   6.875  0.1477  0.0956 -0.0089
   33MOL    H36 6500   2.412   6.780   6.454 -0.8898  3.2274  0.7197
   33MOL    H37 6501   2.465   6.663   6.577 -0.3901 -0.3740  1.2359
   33MOL    H38 6502   2.340   6.937   6.622  0.5758  0.1916  0.3602
   33MOL    H39 6503   2.373   7.004   6.876  2.3561 -1.3892  0.0012
   33MOL    H40 6504   2.214   6.946   6.836  0.0393 -1.0039 -0.6518
   33MOL    H41 6505   2.302   6.878   6.977 -1.1771 -0.3093 -0.2620
   33MOL    C42 6506   2.551   6.925   6.675  0.3575 -0.1005  0.4767
   33MOL    C43 6507   2.593   7.026   6.560 -0.3409  0.0295  1.0037
   33MOL    O44 6508   2.519   7.136   6.599 -0.1927  0.1368 -0.4921
   33MOL    C45 6509   2.492   7.229   6.498 -0.9880 -0.3075  0.6160
   33MOL    H46 6510   2.613   6.836   6.671 -1.1379 -1.0895 -1.7890
   33MOL    H47 6511   2.560   6.972   6.772  0.6131  1.3516 -0.2300
   33MOL    H48 6512   2.563   6.978   6.466  3.4146 -0.4596 -0.0588
   33MOL    H49 6513   2.573   7.236   6.425 -0.7951 -2.1847  0.6248
   33MOL    H50 6514   2.396   7.194   6.460 -0.2211  0.4174 -2.1310
   33MOL    H51 6515   2.475   7.324   6.548  0.2740  0.8741 -1.1050
   33MOL    C52 6516   2.744   7.048   6.558 -0.0726 -0.0439  0.1953
   33MOL    C53 6517   2.831   6.948   6.485 -0.4645  0.1530 -0.0818
   33MOL    O54 6518   2.822   6.973   6.342 -0.3820 -0.5523  0.1370
   33MOL    C55 6519   2.792   6.859   6.253 -0.4602 -0.0111  0.0611
   33MOL    H56 6520   2.775   7.062   6.661  2.0677 -0.8501 -0.3054
   33MOL    H57 6521   2.778   7.148   6.529  1.3883 -0.2975  1.0062
   33MOL    H58 6522   2.783   6.853   6.507  1.1875 -0.5600  0.5401
   33MOL    H59 6523   2.693   6.824   6.281 -0.4576  0.6493  0.9125
   33MOL    H60 6524   2.782   6.886   6.148 -0.3141 -3.7990 -0.9909
   33MOL    H61 6525   2.869   6.785   6.274  0.1080  0.8780  1.1745
   33MOL    C62 6526   2.977   6.952   6.539 -0.8183  1.1224 -0.1805
   33MOL    C63 6527   3.002   6.878   6.671 -0.0389  0.3492  0.1779
   33MOL    O64 6528   3.057   6.747   6.649  0.6510  0.3914 -0.4625
   33MOL    C65 6529   2.975   6.655   6.577 -0.4438 -0.4424 -0.1671
   33MOL    H66 6530   2.998   7.059   6.543  1.9567  0.6195 -0.3140
   33MOL    H67 6531   3.038   6.910   6.459  1.2714  1.8425  0.9896
   33MOL    H68 6532   2.912   6.866   6.731  0.5094  0.4348  1.0328
   33MOL    H69 6533   3.007   6.551   6.582  0.1502 -0.3121 -1.1731
   33MOL    H70 6534   2.870   6.642   6.606 -1.3557  0.2111 -3.0297
   33MOL    H71 6535   2.985   6.680   6.472 -0.4255 -3.6646 -0.9935
   33MOL    C72 6536   3.111   6.940   6.761 -0.2939  0.1987  0.3590
   33MOL    C73 6537   3.107   6.882   6.902  0.2828 -0.2520 -0.3187
   33MOL    O74 6538   3.232   6.891   6.972  0.9548 -0.6872  0.1138
   33MOL    C75 6539   3.333   6.804   6.930 -0.1472  0.4212  0.1388
   33MOL    H76 6540   3.099   7.048   6.759  1.4700  0.3931 -0.8244
   33MOL    H77 6541   3.204   6.920   6.709  0.5770 -1.0718  2.3247
   33MOL    H78 6542   3.079   6.777   6.905  2.6508 -0.8889  0.5127
   33MOL    H79 6543   3.302   6.701   6.949 -0.4588  0.5032  0.0718
   33MOL    H80 6544   3.357   6.809   6.824 -0.2697  0.4232  0.1118
   33MOL    H81 6545   3.417   6.825   6.997  1.0254  0.6846 -1.3998
   33MOL    C82 6546   2.992   6.953   6.981 -0.1975  0.2052 -0.3142
   33MOL    C83 6547   2.954   6.905   7.125  0.2716 -0.1128  0.4824
   33MOL    O84 6548   2.868   6.997   7.185  0.2850  0.0512 -0.1149
   33MOL    C85 6549   2.928   7.114   7.241 -0.7731 -0.9199 -0.4005
   33MOL    H86 6550   2.903   6.940   6.919 -0.1725 -1.8902  0.0469
   33MOL    H87 6551   3.019   7.059   6.983  0.0490  0.1204  3.6355
   33MOL    H88 6552   3.039   6.899   7.193  0.1565  1.1442  0.7640
   33MOL    H89 6553   2.842   7.176   7.265 -1.9086 -2.4624 -0.3850
   33MOL    H90 6554   2.970   7.094   7.340 -0.5190  2.4468  0.2121
   33MOL    H91 6555   2.992   7.160   7.166 -2.5652  3.0381  0.3657
   33MOL    C92 6556   2.885   6.777   7.122 -0.0466  0.5363  0.7074
   33MOL    C93 6557   2.833   6.735   7.263 -0.5513 -0.0009 -0.4465
   33MOL    O94 6558   2.755   6.620   7.236 -0.0911  0.1520  0.2552
   33MOL    C95 6559   2.620   6.633   7.263  0.1477 -0.3558  0.7037
   33MOL    H96 6560   2.944   6.697   7.076 -0.6428 -0.7518  2.1066
   33MOL    H97 6561   2.793   6.779   7.063  1.5169  1.6582 -1.7464
   33MOL    H98 6562   2.770   6.807   7.314  1.4151  1.4336  0.0003
   33MOL    H99 6563   2.585   6.698   7.182  0.1256 -2.0427 -0.6793
   33MOL   H100 6564   2.578   6.533   7.259 -2.0380  0.4963  1.3926
   33MOL   H101 6565   2.587   6.674   7.358  0.4405  2.3188 -0.3080
   33MOL   C102 6566   2.948   6.676   7.354  0.7712 -0.6624 -0.3111
   33MOL   C103 6567   3.013   6.776   7.448 -0.5315  0.0988 -0.7164
   33MOL   O104 6568   2.908   6.791   7.547 -0.1637  0.5236  0.2500
   33MOL   C105 6569   2.889   6.923   7.584  0.4097 -0.2046 -0.5201
   33MOL   H106 6570   3.027   6.637   7.290  0.3187 -1.4539 -0.3943
   33MOL   H107 6571   2.909   6.586   7.403 -1.2913  0.2039 -0.3053
   33MOL   H108 6572   3.043   6.869   7.400 -0.4271 -0.5421 -1.9220
   33MOL   H109 6573   2.872   6.994   7.503  0.6642  1.6558  1.0229
   33MOL   H110 6574   2.805   6.943   7.652  1.7919  1.1898  0.8159
   33MOL   H111 6575   2.976   6.957   7.640  1.2217  0.9378 -2.4497
   33MOL   C112 6576   3.143   6.719   7.521  0.3621  0.9009 -0.5524
   33MOL   C113 6577   3.271   6.738   7.433 -0.4427  0.6825 -0.2050
   33MOL   O114 6578   3.317   6.872   7.445 -0.0760  0.6096  0.0611
   33MOL   C115 6579   3.376   6.924   7.559  0.1731 -0.2835 -0.6981
   33MOL   H116 6580   3.131   6.611   7.534  2.3170  0.8662  1.1226
   33MOL   H117 6581   3.164   6.766   7.617 -0.2595 -1.6580  0.8872
   33MOL   H118 6582   3.248   6.723   7.328 -0.8044  0.4049 -0.0853
   33MOL   H119 6583   3.463   6.863   7.583  0.2714  0.4330  0.8150
   33MOL   H120 6584   3.399   7.029   7.546 -1.4782 -0.2240 -3.6369
   33MOL   H121 6585   3.312   6.904   7.646  0.3324 -1.6223 -0.8807
   33MOL   C122 6586   3.390   6.643   7.462 -0.1296 -0.1416 -0.0680
   33MOL   C123 6587   3.516   6.653   7.369  0.8546 -0.4581 -0.3431
   33MOL   O124 6588   3.625   6.570   7.412  0.5392  0.3297 -0.4429
   33MOL   C125 6589   3.723   6.640   7.486 -0.3057 -0.2362 -0.5783
   33MOL   H126 6590   3.351   6.541   7.464 -0.0102 -0.2298 -1.8243
   33MOL   H127 6591   3.429   6.649   7.564  1.5759  3.5251 -0.8840
   33MOL   H128 6592   3.536   6.760   7.376 -1.2890 -0.0257 -0.4704
   33MOL   H129 6593   3.758   6.738   7.452  1.3438 -0.3330  0.7405
   33MOL   H130 6594   3.695   6.650   7.591  1.8243 -3.4417  0.3742
   33MOL   H131 6595   3.811   6.576   7.493  2.3601  3.4684  1.6741
   33MOL   C132 6596   3.487   6.597   7.227  0.2271  0.2479 -0.9261
   33MOL   C133 6597   3.603   6.596   7.129 -0.0775  0.2121  0.2595
   33MOL   O134 6598   3.533   6.574   7.008  0.2607  0.7679 -0.7365
   33MOL   C135 6599   3.510   6.429   6.983 -0.4109 -0.5673 -0.0932
   33MOL   H136 6600   3.414   6.660   7.176 -0.9835 -0.0138  0.4708
   33MOL   H137 6601   3.456   6.493   7.233  2.0561 -0.2225  0.8467
   33MOL   H138 6602   3.672   6.516   7.154 -0.5930  0.3018  2.0654
   33MOL   H139 6603   3.606   6.407   6.936  2.1266  1.6674  3.7395
   33MOL   H140 6604   3.503   6.383   7.081 -0.0652  2.1778  1.2838
   33MOL   H141 6605   3.431   6.390   6.919 -3.3780  2.2206  1.6650
   33MOL   C142 6606   3.678   6.728   7.114  0.1407 -0.4167  0.2358
   33MOL   C143 6607   3.812   6.716   7.039  0.2406 -0.3248  0.2784
   33MOL   O144 6608   3.837   6.856   7.004 -0.2627  0.2703 -0.4257
   33MOL   C145 6609   3.801   6.894   6.867 -0.4470  0.3916 -0.0396
   33MOL   H146 6610   3.708   6.775   7.208  1.6603 -1.4789  0.3000
   33MOL   H147 6611   3.620   6.800   7.056  2.7006  0.5668 -1.1943
   33MOL   H148 6612   3.798   6.657   6.948  1.0440  0.6315 -0.4816
   33MOL   H149 6613   3.803   6.813   6.794 -1.7768  0.8290 -0.5758
   33MOL   H150 6614   3.698   6.927   6.874 -1.0033 -1.1434 -0.6806
   33MOL   H151 6615   3.870   6.971   6.834 -0.9286  0.9834  0.3281
   33MOL   C152 6616   3.930   6.659   7.117  0.2135 -0.6201 -0.2694
   33MOL   C153 6617   4.063   6.662   7.049  0.5297 -1.0752  0.0260
   33MOL   O154 6618   4.142   6.621   7.163  0.2345  0.5516  0.2715
   33MOL   C155 6619   4.285   6.633   7.150  0.2420 -0.0386 -0.2351
   33MOL   H156 6620   3.902   6.557   7.141 -1.6170 -0.4663 -1.6395
   33MOL   H157 6621   3.942   6.718   7.208  0.7653 -0.0864 -0.6784
   33MOL   H158 6622   4.094   6.765   7.035  2.3762 -1.7487 -0.9262
   33MOL   H159 6623   4.290   6.741   7.138 -1.2164  0.4591  3.1335
   33MOL   H160 6624   4.320   6.589   7.244 -1.9728  0.8631  1.0497
   33MOL   H161 6625   4.316   6.574   7.064  0.7306  1.1575 -0.8889
   33MOL   C162 6626   4.075   6.562   6.930 -0.2387  0.5483  0.5835
   33MOL   C163 6627   4.132   6.622   6.800 -0.4148  0.2217 -0.2760
   33MOL   O164 6628   4.268   6.657   6.825  0.1977  0.3692  0.3878
   33MOL   C165 6629   4.332   6.751   6.733 -0.5131 -0.3382 -0.4062
   33MOL   H166 6630   3.974   6.536   6.899 -0.1731  1.3357 -0.3079
   33MOL   H167 6631   4.126   6.468   6.953 -1.3053 -0.0960  0.3715
   33MOL   H168 6632   4.090   6.719   6.774 -1.3122  0.4064  1.8221
   33MOL   H169 6633   4.263   6.835   6.730  0.7049  0.6266 -2.3961
   33MOL   H170 6634   4.425   6.778   6.783 -1.0513  3.2126 -1.1891
   33MOL   H171 6635   4.364   6.703   6.641 -2.2580  0.2199 -1.3127
   33MOL   C172 6636   4.130   6.520   6.683  0.0098 -0.9676  0.2418
   33MOL   C173 6637   3.998   6.452   6.649  0.2764  0.0950 -0.7408
   33MOL   O174 6638   3.899   6.560   6.635 -0.1091 -0.2744 -0.1392
   33MOL   C175 6639   3.770   6.529   6.660  0.2259  0.1960 -0.3642
   33MOL   H176 6640   4.201   6.441   6.707 -1.8294 -3.2451 -1.5864
   33MOL   H177 6641   4.160   6.588   6.603 -0.5797  1.1886  1.8038
   33MOL   H178 6642   3.963   6.381   6.725 -0.6281  0.7386 -0.5502
   33MOL   H179 6643   3.747   6.497   6.761  0.6426 -0.3991 -0.4572
   33MOL   H180 6644   3.706   6.614   6.635 -0.0842 -0.3677 -1.5341
   33MOL   H181 6645   3.741   6.445   6.597 -4.0649  1.9358 -0.9076
   33MOL   C182 6646   3.990   6.373   6.522 -0.1869 -0.3518 -0.1346
   33MOL   C183 6647   4.077   6.246   6.497 -0.1197  0.2003  0.8596
   33MOL   O184 6648   4.217   6.276   6.500 -0.3078 -0.0175  0.0910
   33MOL   C185 6649   4.253   6.359   6.393  0.0208  0.1778  0.1179
   33MOL   H186 6650   3.990   6.450   6.445  1.3375  0.1211  0.3165
   33MOL   H187 6651   3.890   6.332   6.514 -0.5772  0.2961  1.3306
   33MOL   H188 6652   4.058   6.225   6.391  1.8478  5.9234 -0.8280
   33MOL   H189 6653   4.205   6.457   6.390 -1.0796 -0.4005 -1.8233
   33MOL   H190 6654   4.361   6.375   6.396  0.3160 -1.5920 -0.7051
   33MOL   H191 6655   4.227   6.313   6.298  0.4780  0.9230 -0.3745
   33MOL   C192 6656   4.039   6.126   6.589 -0.0091 -0.8007 -0.1812
   33MOL   C193 6657   4.131   6.002   6.566 -0.4171 -0.0233 -0.3568
   33MOL   O194 6658   4.071   5.902   6.651  0.2799 -0.9608 -0.8640
   33MOL   C195 6659   4.150   5.785   6.652 -0.2744  0.0732  0.3865
   33MOL   H196 6660   3.938   6.095   6.560  0.0189  0.7449 -1.9669
   33MOL   H197 6661   4.046   6.149   6.696  0.2180 -1.5218 -0.0422
   33MOL   H198 6662   4.233   6.027   6.597 -0.8425  0.2367  0.8617
   33MOL   H199 6663   4.249   5.810   6.690  0.4446 -0.2695 -1.2072
   33MOL   H200 6664   4.106   5.728   6.734  1.4821 -0.0093  1.2872
   33MOL   H201 6665   4.148   5.722   6.563  0.1315 -0.4377  0.7355
   33MOL   H202 6666   4.127   5.968   6.463 -2.1264 -2.3401  0.4393
   34MOL     C1 6667   0.872   1.768   4.432 -0.2831  0.2403 -0.0233
   34MOL     C2 6668   0.784   1.833   4.331  0.3778  0.6079  0.0659
   34MOL     O3 6669   0.867   1.921   4.258  0.0912 -0.0876  0.5336
   34MOL     C4 6670   0.809   2.038   4.206  0.1187  0.3193  0.4384
   34MOL     H5 6671   0.819   1.694   4.493 -0.9746  0.4610 -0.3458
   34MOL     H6 6672   0.964   1.726   4.391 -1.2102 -2.5421  0.5862
   34MOL     H7 6673   0.699   1.878   4.382  0.5656 -0.1234  1.0505
   34MOL     H8 6674   0.718   2.009   4.152  0.1516 -1.1990  1.1667
   34MOL     H9 6675   0.779   2.108   4.284 -0.9173  0.4432 -0.0629
   34MOL    H10 6676   0.871   2.084   4.130 -1.4932  0.1128 -1.0397
   34MOL    H11 6677   0.901   1.838   4.510 -1.6615  0.6211  0.1691
   34MOL    C12 6678   0.725   1.721   4.230 -0.2509 -0.7369  0.5900
   34MOL    C13 6679   0.622   1.622   4.300  0.0289  0.2918 -0.2133
   34MOL    O14 6680   0.518   1.709   4.355  0.0442 -0.2194 -0.8938
   34MOL    C15 6681   0.461   1.645   4.473  0.0990  0.4471  0.0197
   34MOL    H16 6682   0.812   1.672   4.186  0.1121  1.9877 -1.8635
   34MOL    H17 6683   0.681   1.769   4.143  1.6619 -0.8836 -0.4930
   34MOL    H18 6684   0.676   1.572   4.381  0.9876  0.0047 -1.0104
   34MOL    H19 6685   0.407   1.551   4.462  1.4281 -0.1516 -1.7638
   34MOL    H20 6686   0.538   1.626   4.548 -1.1571 -1.4174  0.8817
   34MOL    H21 6687   0.385   1.708   4.517 -0.5655  0.5345 -1.2324
   34MOL    C22 6688   0.561   1.528   4.203  0.1979  0.2838  0.1390
   34MOL    C23 6689   0.646   1.391   4.195  0.1162  0.3366  0.7796
   34MOL    O24 6690   0.597   1.314   4.084  0.1053  0.0604 -0.1399
   34MOL    C25 6691   0.480   1.243   4.114 -0.6539 -0.1539 -0.3124
   34MOL    H26 6692   0.542   1.574   4.106  3.6933  3.6856  0.9590
   34MOL    H27 6693   0.463   1.498   4.241 -0.1186  0.5700 -0.4530
   34MOL    H28 6694   0.638   1.338   4.290  0.0642 -1.1669 -0.0486
   34MOL    H29 6695   0.392   1.299   4.146 -1.3611 -0.6840 -1.3168
   34MOL    H30 6696   0.436   1.191   4.029  0.5275 -0.8980 -0.4852
   34MOL    H31 6697   0.498   1.167   4.190 -1.4609 -0.9997 -0.9602
   34MOL    C32 6698   0.797   1.403   4.159  0.3271 -0.1677  0.2110
   34MOL    C33 6699   0.866   1.265   4.135  0.6533 -0.6910  0.6372
   34MOL    O34 6700   1.013   1.271   4.126  0.0575 -0.1340  0.4561
   34MOL    C35 6701   1.070   1.220   4.013  0.5066  0.4795 -0.0695
   34MOL    H36 6702   0.840   1.467   4.236 -0.7621  0.6214  0.1773
   34MOL    H37 6703   0.803   1.467   4.072 -2.0020 -0.7880 -0.4463
   34MOL    H38 6704   0.827   1.231   4.039  1.2641 -0.2840  0.2386
   34MOL    H39 6705   1.063   1.111   4.013 -2.4181  0.6256 -0.6378
   34MOL    H40 6706   1.038   1.266   3.920 -0.8268 -0.4211 -0.0755
   34MOL    H41 6707   1.175   1.240   4.030  0.3987  1.4354 -0.4910
   34MOL    C42 6708   0.834   1.154   4.232  0.5896  0.0544  0.5783
   34MOL    C43 6709   0.881   1.166   4.378 -0.1948 -0.5910 -0.2030
   34MOL    O44 6710   0.829   1.280   4.444 -0.1539  0.2050 -0.2084
   34MOL    C45 6711   0.909   1.331   4.549 -0.3325 -0.3649 -0.1925
   34MOL    H46 6712   0.879   1.066   4.187  0.7611  1.1154 -1.4071
   34MOL    H47 6713   0.726   1.141   4.236  0.8757 -2.4296  1.0002
   34MOL    H48 6714   0.990   1.172   4.383 -0.0883 -2.8165  0.7705
   34MOL    H49 6715   0.943   1.256   4.620  0.7003  0.5483  0.2916
   34MOL    H50 6716   1.002   1.361   4.499 -0.8836  0.0490 -0.9784
   34MOL    H51 6717   0.878   1.423   4.598 -1.3412  0.3236 -2.0620
   34MOL    C52 6718   0.853   1.041   4.462 -0.0937 -0.0091 -0.4960
   34MOL    C53 6719   0.906   0.906   4.403 -0.1311  0.0051 -0.1205
   34MOL    O54 6720   1.045   0.932   4.384 -0.3664 -0.8981 -0.5280
   34MOL    C55 6721   1.098   0.854   4.278  0.2214 -0.7340  0.6567
   34MOL    H56 6722   0.745   1.046   4.477 -0.2121 -0.3288 -1.1952
   34MOL    H57 6723   0.889   1.055   4.564 -2.8243  1.0236  0.3567
   34MOL    H58 6724   0.850   0.879   4.313 -0.1612  0.7945 -0.3467
   34MOL    H59 6725   1.171   0.777   4.304 -0.1891 -1.2565  0.2985
   34MOL    H60 6726   1.014   0.802   4.230  0.3232 -0.0695 -0.2561
   34MOL    H61 6727   1.149   0.921   4.209 -0.6657 -0.0154  0.6886
   34MOL    C62 6728   0.900   0.788   4.502 -0.3225  0.3169 -0.5664
   34MOL    C63 6729   0.756   0.732   4.525 -0.5313 -0.2229 -0.1021
   34MOL    O64 6730   0.669   0.703   4.415  0.1789  0.5341 -0.3925
   34MOL    C65 6731   0.736   0.607   4.325 -0.5572 -0.5267  0.2089
   34MOL    H66 6732   0.952   0.809   4.596 -0.4554 -0.4123 -0.3245
   34MOL    H67 6733   0.955   0.703   4.463  0.6809 -0.4730  2.4321
   34MOL    H68 6734   0.702   0.821   4.558  0.2220 -0.5439  2.0698
   34MOL    H69 6735   0.765   0.519   4.383  1.2527 -0.0257  0.0878
   34MOL    H70 6736   0.657   0.578   4.256  0.5908 -0.9267 -0.9808
   34MOL    H71 6737   0.815   0.653   4.265 -2.5163  1.5439 -0.8638
   34MOL    C72 6738   0.730   0.629   4.634 -0.4610  0.1460 -0.4392
   34MOL    C73 6739   0.790   0.646   4.775  0.0374 -0.8036 -0.1647
   34MOL    O74 6740   0.700   0.736   4.855 -0.1900  0.3353 -0.0946
   34MOL    C75 6741   0.767   0.824   4.950  0.4721  0.7277 -0.4884
   34MOL    H76 6742   0.778   0.540   4.593 -0.7512 -0.7006  1.0295
   34MOL    H77 6743   0.622   0.623   4.632 -0.6843  3.0021  0.8135
   34MOL    H78 6744   0.886   0.696   4.761 -1.2145  1.8611  0.3944
   34MOL    H79 6745   0.843   0.769   5.006  1.6918  2.4393 -0.4210
   34MOL    H80 6746   0.816   0.909   4.902  3.0774 -0.3190  0.2353
   34MOL    H81 6747   0.688   0.864   5.014 -0.7681 -0.6894 -1.0896
   34MOL    C82 6748   0.813   0.510   4.841  0.0080 -0.0597 -0.0209
   34MOL    C83 6749   0.702   0.404   4.829 -0.2649 -0.0329  0.1951
   34MOL    O84 6750   0.737   0.282   4.902  0.1828 -0.3717  0.4798
   34MOL    C85 6751   0.830   0.197   4.831 -0.5911 -0.3448 -0.3474
   34MOL    H86 6752   0.849   0.537   4.940 -1.9891 -2.4005  1.4157
   34MOL    H87 6753   0.894   0.464   4.785  1.2915  4.3692 -1.9562
   34MOL    H88 6754   0.689   0.385   4.723  1.4163 -0.7653  0.1003
   34MOL    H89 6755   0.926   0.249   4.831 -1.6749  1.7140  0.4783
   34MOL    H90 6756   0.825   0.103   4.886  0.3340 -0.1745  0.0432
   34MOL    H91 6757   0.798   0.186   4.728  4.1265 -0.9951 -1.8692
   34MOL    C92 6758   0.560   0.439   4.886 -0.3307 -0.7772 -0.7614
   34MOL    C93 6759   0.441   0.341   4.870  0.1622 -0.6027 -0.1649
   34MOL    O94 6760   0.360   0.342   4.979  0.7800  0.0180 -0.2491
   34MOL    C95 6761   0.298   0.227   5.016  0.2099 -0.2728 -0.7182
   34MOL    H96 6762   0.540   0.536   4.841 -0.2712 -0.7101 -0.6442
   34MOL    H97 6763   0.571   0.454   4.994  2.7443 -4.1079 -0.5353
   34MOL    H98 6764   0.476   0.240   4.852  1.7557 -0.1440  0.3120
   34MOL    H99 6765   0.370   0.153   5.049  0.6175  1.1088  1.6090
   34MOL   H100 6766   0.229   0.243   5.099  1.8262 -0.0151  0.5967
   34MOL   H101 6767   0.249   0.185   4.929  0.7478 -0.7679 -0.7888
   34MOL   C102 6768   0.339   0.371   4.748  1.2655  0.2243 -0.1625
   34MOL   C103 6769   0.408   0.369   4.612  0.5190 -0.1300  0.4038
   34MOL   O104 6770   0.447   0.235   4.578 -0.2234  0.0578  0.0006
   34MOL   C105 6771   0.570   0.241   4.498  0.5667  0.3140 -0.1579
   34MOL   H106 6772   0.306   0.470   4.777  1.0654  0.1606 -0.1711
   34MOL   H107 6773   0.258   0.298   4.739  2.6773 -1.4039 -0.0277
   34MOL   H108 6774   0.494   0.436   4.617  0.1927  0.4705 -1.7063
   34MOL   H109 6775   0.611   0.140   4.506 -0.6864 -0.1636  0.4135
   34MOL   H110 6776   0.554   0.253   4.391  1.5774 -2.3038 -0.6345
   34MOL   H111 6777   0.648   0.312   4.524  1.1941 -0.8275  1.1914
   34MOL   C112 6778   0.311   0.413   4.497 -0.0221 -0.2445 -0.1433
   34MOL   C113 6779   0.273   0.567   4.490  0.5716 -0.0223  0.5854
   34MOL   O114 6780   0.251   0.611   4.358 -0.2426  0.0902 -0.2810
   34MOL   C115 6781   0.367   0.624   4.275 -0.6549 -0.4279  0.5267
   34MOL   H116 6782   0.217   0.356   4.500 -0.6424  0.7897  0.1521
   34MOL   H117 6783   0.353   0.395   4.398  0.1671  2.5993 -0.6222
   34MOL   H118 6784   0.356   0.624   4.532  1.6729 -0.6403 -0.7217
   34MOL   H119 6785   0.445   0.681   4.324 -0.2846  2.8086 -3.5383
   34MOL   H120 6786   0.408   0.533   4.232 -1.3213 -0.2468 -0.5264
   34MOL   H121 6787   0.350   0.699   4.198  1.5700  0.3062  0.7156
   34MOL   C122 6788   0.154   0.603   4.578 -0.0184 -0.2439  0.5609
   34MOL   C123 6789   0.142   0.755   4.633 -0.7565  0.0924 -0.5142
   34MOL   O124 6790   0.007   0.789   4.664 -0.6372  0.2656  0.5195
   34MOL   C125 6791   7.740   0.838   4.554 -0.1769 -0.0806  0.1662
   34MOL   H126 6792   0.134   0.532   4.658 -0.2661 -1.1518 -0.2941
   34MOL   H127 6793   0.074   0.580   4.508  1.1868 -1.3556 -0.4734
   34MOL   H128 6794   0.183   0.825   4.561 -1.5365  0.1584 -0.9073
   34MOL   H129 6795   7.640   0.868   4.584 -0.5500 -0.0170 -1.0978
   34MOL   H130 6796   7.789   0.923   4.506  2.7937 -1.6562  0.2903
   34MOL   H131 6797   7.731   0.767   4.472 -1.8880 -1.1464  1.2381
   34MOL   C132 6798   0.213   0.767   4.765 -0.1960 -0.9017 -0.5497
   34MOL   C133 6799   0.251   0.916   4.806  0.3366 -0.1242 -0.6983
   34MOL   O134 6800   0.322   0.973   4.697 -0.4363  0.2047 -0.1110
   34MOL   C135 6801   0.462   0.948   4.688  0.1920  0.8939  0.1486
   34MOL   H136 6802   0.302   0.704   4.764 -0.6701 -1.5929 -0.4260
   34MOL   H137 6803   0.159   0.720   4.847  2.0807 -1.2450  0.7935
   34MOL   H138 6804   0.307   0.910   4.900  0.4104  2.6738 -0.5221
   34MOL   H139 6805   0.470   0.839   4.688 -1.5670  0.7440  1.5184
   34MOL   H140 6806   0.496   0.994   4.595  0.2319 -0.4041 -0.4971
   34MOL   H141 6807   0.511   0.992   4.775 -2.8482  5.0651 -0.1302
   34MOL   C142 6808   0.141   1.016   4.832  0.3753 -0.6097 -0.2824
   34MOL   C143 6809   0.046   0.984   4.950 -0.1613 -0.1170  0.2279
   34MOL   O144 6810   0.053   1.073   5.059  0.4668  0.4446 -0.0895
   34MOL   C145 6811   0.171   1.053   5.142 -0.3661 -1.3481  0.0935
   34MOL   H146 6812   0.075   1.023   4.745 -0.2529 -1.5638  0.0964
   34MOL   H147 6813   0.194   1.111   4.833 -1.2260  0.2925  0.8720
   34MOL   H148 6814   0.064   0.885   4.993  0.8218  0.4622  1.1769
   34MOL   H149 6815   0.193   0.963   5.200  2.1493 -0.5116  0.4908
   34MOL   H150 6816   0.258   1.074   5.080 -0.2719  0.7691  0.9004
   34MOL   H151 6817   0.164   1.135   5.213  1.6685 -0.6239 -0.5363
   34MOL   C152 6818   7.710   0.989   4.907  0.4160 -0.0238  0.7628
   34MOL   C153 6819   7.605   0.950   5.013 -0.0146  0.3454 -0.0573
   34MOL   O154 6820   7.469   0.953   4.956 -0.1799 -0.0538 -0.1520
   34MOL   C155 6821   7.413   1.070   4.917  0.5185 -0.8091  0.2484
   34MOL   H156 6822   7.694   0.917   4.827  1.4548 -1.1398  1.5298
   34MOL   H157 6823   7.684   1.085   4.864 -1.1637  0.4339  2.6956
   34MOL   H158 6824   7.597   1.037   5.079  2.2854  2.6878 -2.7395
   34MOL   H159 6825   7.312   1.059   4.878  0.6262  1.6885 -0.8337
   34MOL   H160 6826   7.430   1.128   5.008  0.7024 -1.0089  0.3421
   34MOL   H161 6827   7.471   1.127   4.844  0.1664  1.6491  1.8133
   34MOL   C162 6828   7.630   0.823   5.088  0.5260  0.9519 -0.3422
   34MOL   C163 6829   7.663   0.699   5.000  0.7735 -0.1339  0.3314
   34MOL   O164 6830   7.687   0.591   5.092  0.2387 -0.0622  0.2456
   34MOL   C165 6831   0.002   0.538   5.080 -0.2520 -0.3935  0.1495
   34MOL   H166 6832   7.540   0.799   5.145  0.7316 -0.5108 -0.6106
   34MOL   H167 6833   7.705   0.842   5.165  0.3206 -1.6234  0.5166
   34MOL   H168 6834   7.755   0.726   4.948  0.6862  2.6018  1.5338
   34MOL   H169 6835   0.010   0.444   5.133  1.2070 -0.0646  0.5262
   34MOL   H170 6836   0.030   0.526   4.975  0.6463 -0.0252  0.3476
   34MOL   H171 6837   0.070   0.605   5.133 -0.7846 -0.3703  0.8164
   34MOL   C172 6838   7.552   0.669   4.903  0.1847 -0.5005 -0.6830
   34MOL   C173 6839   7.554   0.525   4.857 -0.5222 -0.2976 -0.2332
   34MOL   O174 6840   7.438   0.487   4.789  0.1022 -0.1058 -0.2730
   34MOL   C175 6841   7.342   0.427   4.875  0.0206  0.2678  0.3927
   34MOL   H176 6842   7.556   0.731   4.813  0.9228  0.1544 -0.2006
   34MOL   H177 6843   7.459   0.701   4.949  0.2091  0.4808 -1.2979
   34MOL   H178 6844   7.565   0.467   4.949 -0.9637 -0.3725 -0.2263
   34MOL   H179 6845   7.297   0.484   4.957 -0.2395 -2.0382  1.8948
   34MOL   H180 6846   7.267   0.408   4.799  0.7312 -0.1957 -0.1921
   34MOL   H181 6847   7.377   0.333   4.917 -0.8482 -0.2667 -0.0653
   34MOL   C182 6848   7.659   0.498   4.756 -0.8834 -0.2126  0.6141
   34MOL   C183 6849   7.685   0.348   4.740 -0.4379  0.0024  0.5610
   34MOL   O184 6850   7.766   0.332   4.625 -0.0320  0.4656 -0.4307
   34MOL   C185 6851   7.709   0.327   4.494  0.2410  0.7263 -0.6869
   34MOL   H186 6852   7.754   0.548   4.777  0.6439 -2.0618 -1.7236
   34MOL   H187 6853   7.622   0.551   4.669  2.3662  1.5640  0.2005
   34MOL   H188 6854   7.590   0.299   4.717  0.7504 -1.1513 -2.0692
   34MOL   H189 6855   7.662   0.229   4.488  0.7084  0.2292  2.6328
   34MOL   H190 6856   7.648   0.416   4.473  0.6233  1.5843  1.6906
   34MOL   H191 6857   7.789   0.317   4.422 -2.3952 -0.5750 -3.5513
   34MOL   C192 6858   7.766   0.281   4.854  0.3471 -0.0069 -0.0655
   34MOL   C193 6859   7.799   0.132   4.825  0.5061  0.2659 -0.0944
   34MOL   O194 6860   0.013   0.072   4.953 -0.3551  0.6715 -0.2989
   34MOL   C195 6861   0.035   7.741   4.940 -0.5295  0.3320  0.2041
   34MOL   H196 6862   7.711   0.298   4.946  0.0395 -0.1228 -0.2288
   34MOL   H197 6863   0.045   0.344   4.865 -0.7986  1.4015  1.4060
   34MOL   H198 6864   0.080   0.134   4.765  1.4269 -1.5759  1.2010
   34MOL   H199 6865   0.070   7.690   5.029 -1.1867  0.2833  0.4349
   34MOL   H200 6866   7.747   7.698   4.922  0.3567 -1.1549 -1.3079
   34MOL   H201 6867   0.102   7.715   4.858 -1.0151 -1.8163  0.4767
   34MOL   H202 6868   7.717   0.081   4.776  0.5008 -0.4279  0.6200
   35MOL     C1 6869   3.156   1.234   2.605 -0.2215  0.6146  0.1072
   35MOL     C2 6870   3.205   1.185   2.740  0.3301 -0.2674  0.1119
   35MOL     O3 6871   3.138   1.071   2.782 -0.4236 -0.0281  0.1037
   35MOL     C4 6872   3.009   1.076   2.845 -0.2957 -0.0033 -0.5541
   35MOL     H5 6873   3.051   1.263   2.605 -0.8107 -1.3415 -2.0885
   35MOL     H6 6874   3.225   1.317   2.588  1.4389 -0.4904  1.2888
   35MOL     H7 6875   3.188   1.272   2.803 -2.0280  1.1116 -2.3072
   35MOL     H8 6876   3.007   1.132   2.938  0.4040 -2.4605  0.9845
   35MOL     H9 6877   2.930   1.124   2.786 -0.5828  0.8397  0.5068
   35MOL    H10 6878   2.965   0.976   2.853  1.7107 -0.9424 -1.0187
   35MOL    H11 6879   3.183   1.164   2.526 -0.0379  0.2753  0.4667
   35MOL    C12 6880   3.353   1.156   2.744 -0.2389  0.5178 -0.3446
   35MOL    C13 6881   3.454   1.284   2.736  1.1577  0.4688 -0.3571
   35MOL    O14 6882   3.461   1.324   2.869 -0.1423  0.1815 -0.3027
   35MOL    C15 6883   3.497   1.462   2.886  0.1554  0.2408  0.4285
   35MOL    H16 6884   3.375   1.089   2.660  0.6709 -2.6467  2.2972
   35MOL    H17 6885   3.365   1.097   2.834 -2.4241 -0.5217 -0.7006
   35MOL    H18 6886   3.426   1.370   2.676 -0.2995  0.1560 -0.1378
   35MOL    H19 6887   3.413   1.526   2.856 -0.4859 -0.4875  0.6482
   35MOL    H20 6888   3.517   1.478   2.992  2.0401 -1.0985  0.2865
   35MOL    H21 6889   3.589   1.481   2.830  0.8005  0.6146  1.6043
   35MOL    C22 6890   3.589   1.232   2.686  0.0687 -0.4076 -0.1763
   35MOL    C23 6891   3.599   1.182   2.541  0.5700  0.0720  0.3951
   35MOL    O24 6892   3.550   1.293   2.470  1.0566 -0.0500  0.0116
   35MOL    C25 6893   3.498   1.276   2.337 -0.3439  0.5811 -0.1696
   35MOL    H26 6894   3.632   1.157   2.753 -0.4862  0.7498  1.5026
   35MOL    H27 6895   3.664   1.311   2.695 -0.4665  0.0652  0.1760
   35MOL    H28 6896   3.528   1.100   2.524 -0.8875  0.6293  3.3314
   35MOL    H29 6897   3.421   1.198   2.339 -1.4153  1.5924 -1.3642
   35MOL    H30 6898   3.464   1.369   2.293  1.4806  0.7182 -1.3251
   35MOL    H31 6899   3.575   1.241   2.269 -0.0220  1.3311 -0.1875
   35MOL    C32 6900   3.739   1.149   2.489  0.2219 -0.6146 -0.6285
   35MOL    C33 6901   3.804   1.018   2.547 -0.3097 -0.5015 -0.3563
   35MOL    O34 6902   3.712   0.914   2.526 -0.6053 -0.0962  0.8416
   35MOL    C35 6903   3.718   0.814   2.625  0.0249 -0.0038 -0.0538
   35MOL    H36 6904   3.809   1.230   2.514 -0.1453 -0.3312 -0.5027
   35MOL    H37 6905   3.733   1.145   2.381 -1.9945 -0.0518 -0.5457
   35MOL    H38 6906   3.812   1.026   2.656  0.6548 -0.1831 -0.4461
   35MOL    H39 6907   3.716   0.847   2.729 -2.8795 -2.1183  0.6062
   35MOL    H40 6908   3.621   0.765   2.614 -0.3484  0.2924  1.8747
   35MOL    H41 6909   3.787   0.736   2.592  0.2329  0.3699 -0.5091
   35MOL    C42 6910   3.935   0.984   2.472 -0.6110  0.0665  0.1571
   35MOL    C43 6911   4.067   1.061   2.464  0.4344 -0.0705 -0.5031
   35MOL    O44 6912   4.143   1.059   2.580 -0.1041  0.4822  0.2932
   35MOL    C45 6913   4.104   1.142   2.690 -0.0192  0.5153  0.1463
   35MOL    H46 6914   3.906   0.961   2.369  1.0832  1.2393 -0.6082
   35MOL    H47 6915   3.968   0.883   2.498 -0.8744  0.2673  1.2895
   35MOL    H48 6916   4.047   1.167   2.444  0.7490  0.0748 -0.0681
   35MOL    H49 6917   4.147   1.242   2.684  0.0176  0.5020  0.1938
   35MOL    H50 6918   3.999   1.145   2.719 -1.0260  0.3851 -3.1843
   35MOL    H51 6919   4.144   1.100   2.782 -0.8803  1.0634  0.7745
   35MOL    C52 6920   4.155   1.000   2.345 -0.1861  0.4747  0.1946
   35MOL    C53 6921   4.271   1.091   2.292  0.5475 -0.1989 -0.2311
   35MOL    O54 6922   4.347   1.016   2.202 -0.7739  0.0602  0.1913
   35MOL    C55 6923   4.471   0.961   2.255  0.1375 -0.4556  0.1709
   35MOL    H56 6924   4.102   0.950   2.264 -0.2056 -1.0841  1.1644
   35MOL    H57 6925   4.200   0.908   2.382 -1.8184  0.0382  1.1750
   35MOL    H58 6926   4.336   1.116   2.376 -2.2208 -1.1209  2.2890
   35MOL    H59 6927   4.533   1.036   2.305  0.9786 -1.4688  0.6662
   35MOL    H60 6928   4.445   0.876   2.318 -0.5051  0.1056  0.6752
   35MOL    H61 6929   4.524   0.907   2.177  1.0377  1.6467 -0.7135
   35MOL    C62 6930   4.236   1.230   2.234 -0.0237 -0.1792  0.4432
   35MOL    C63 6931   4.361   1.317   2.190 -1.0183 -0.0984  0.5097
   35MOL    O64 6932   4.297   1.418   2.107 -0.2828  0.1358  0.2670
   35MOL    C65 6933   4.378   1.478   2.003  0.2146 -0.2535  0.5889
   35MOL    H66 6934   4.168   1.278   2.305 -0.7484 -0.2341 -0.1979
   35MOL    H67 6935   4.182   1.213   2.140  0.8479  1.4691 -0.3789
   35MOL    H68 6936   4.427   1.258   2.127 -2.0500 -0.8136  0.0723
   35MOL    H69 6937   4.395   1.396   1.934  0.5960  0.0219  0.3513
   35MOL    H70 6938   4.333   1.557   1.943  2.8862 -0.2750 -1.5480
   35MOL    H71 6939   4.476   1.510   2.038  0.7581 -1.2071 -0.0423
   35MOL    C72 6940   4.444   1.372   2.305  0.6428  0.0319 -0.5759
   35MOL    C73 6941   4.364   1.444   2.417 -0.3367  0.5054 -0.0319
   35MOL    O74 6942   4.462   1.475   2.514 -0.1778  1.1793  0.2603
   35MOL    C75 6943   4.463   1.403   2.641  0.4620 -0.1113 -0.1493
   35MOL    H76 6944   4.512   1.441   2.255 -0.1753  0.3884 -1.2174
   35MOL    H77 6945   4.502   1.292   2.349 -0.6159  0.7474  2.5410
   35MOL    H78 6946   4.288   1.379   2.460 -1.5002  0.7608 -1.6925
   35MOL    H79 6947   4.483   1.296   2.632  3.6029  0.3063  0.9427
   35MOL    H80 6948   4.532   1.444   2.715 -1.0512 -0.1450  1.3057
   35MOL    H81 6949   4.362   1.401   2.681 -0.2209 -0.2997 -1.8420
   35MOL    C82 6950   4.292   1.574   2.384  0.0636 -0.8796 -0.2891
   35MOL    C83 6951   4.199   1.629   2.503  0.0412 -0.3373  0.6496
   35MOL    O84 6952   4.174   1.768   2.469 -0.2528  0.6174 -0.2985
   35MOL    C85 6953   4.274   1.867   2.507  0.1924  0.2429 -0.0680
   35MOL    H86 6954   4.234   1.560   2.293  0.4450  1.0173 -0.8551
   35MOL    H87 6955   4.374   1.645   2.369  0.5161 -1.3940 -0.2654
   35MOL    H88 6956   4.253   1.634   2.597  0.5536  0.6633  0.3174
   35MOL    H89 6957   4.217   1.959   2.513 -2.0351 -1.0489 -0.5631
   35MOL    H90 6958   4.307   1.850   2.609 -0.0728 -1.5794 -0.2663
   35MOL    H91 6959   4.368   1.868   2.452  0.8159  1.0700  1.0141
   35MOL    C92 6960   4.067   1.551   2.526  0.0196  0.5964 -0.8334
   35MOL    C93 6961   4.000   1.581   2.661  0.5000 -0.3601  0.0183
   35MOL    O94 6962   3.876   1.508   2.640  0.5932  0.6271  0.2139
   35MOL    C95 6963   3.760   1.578   2.604 -0.2790 -0.5063  0.0563
   35MOL    H96 6964   4.093   1.449   2.501 -1.8381  0.0747 -0.6511
   35MOL    H97 6965   4.000   1.576   2.444 -0.4379 -0.7369 -0.8729
   35MOL    H98 6966   3.971   1.686   2.671 -1.1787 -0.8756  0.7128
   35MOL    H99 6967   3.769   1.646   2.519  0.0378  0.0931  0.5734
   35MOL   H100 6968   3.680   1.509   2.577 -0.2947 -0.7445  0.7171
   35MOL   H101 6969   3.709   1.627   2.686  1.3383  0.0241  0.7586
   35MOL   C102 6970   4.074   1.542   2.788 -0.1408 -0.0165  0.7617
   35MOL   C103 6971   4.000   1.591   2.916 -0.0072 -0.9293 -0.1204
   35MOL   O104 6972   4.016   1.490   3.010 -0.1404 -0.0204 -0.4642
   35MOL   C105 6973   3.912   1.395   3.009  0.0848 -0.4353  0.5475
   35MOL   H106 6974   4.175   1.581   2.779 -0.2237  0.0875  0.2026
   35MOL   H107 6975   4.085   1.434   2.788 -1.7088 -0.2013  0.2676
   35MOL   H108 6976   3.893   1.600   2.894  0.3186  1.4272 -0.8632
   35MOL   H109 6977   3.817   1.446   3.022  0.6697  1.5813 -2.5378
   35MOL   H110 6978   3.901   1.335   2.919 -1.6385 -1.3664  1.3357
   35MOL   H111 6979   3.925   1.331   3.097 -1.0284  1.2639  1.9713
   35MOL   C112 6980   4.047   1.735   2.966  0.3497  0.5388 -0.3496
   35MOL   C113 6981   3.973   1.789   3.091 -0.2150 -0.1855  0.4129
   35MOL   O114 6982   3.836   1.806   3.065 -0.3731 -0.3422 -0.6207
   35MOL   C115 6983   3.796   1.921   2.992 -0.1100 -0.1653 -0.2208
   35MOL   H116 6984   4.017   1.809   2.891  0.0587  1.3415  0.5512
   35MOL   H117 6985   4.152   1.735   2.993 -0.3211 -0.1904  2.4466
   35MOL   H118 6986   4.012   1.889   3.112 -0.3700 -0.3521  1.4907
   35MOL   H119 6987   3.818   1.897   2.888  1.5514 -3.4250  0.7889
   35MOL   H120 6988   3.692   1.954   2.997 -1.2283 -3.6574  1.7766
   35MOL   H121 6989   3.859   2.003   3.025  2.1976 -1.5324 -1.1117
   35MOL   C122 6990   4.001   1.706   3.216 -0.2846  0.0438 -0.3270
   35MOL   C123 6991   3.961   1.757   3.352  0.0113  0.5801 -0.2755
   35MOL   O124 6992   4.034   1.879   3.366 -0.3996 -0.3321 -0.5221
   35MOL   C125 6993   4.132   1.883   3.469 -0.3584 -0.0984  0.7798
   35MOL   H126 6994   4.107   1.681   3.221  0.1524  1.8711 -0.1522
   35MOL   H127 6995   3.942   1.615   3.210  1.6064 -1.1945 -0.6005
   35MOL   H128 6996   3.991   1.680   3.423  0.7368 -1.9454 -3.1952
   35MOL   H129 6997   4.209   1.809   3.448 -2.0866 -0.9888 -3.0002
   35MOL   H130 6998   4.184   1.978   3.479  4.2094 -2.4421  0.6384
   35MOL   H131 6999   4.094   1.848   3.565 -0.2310 -0.1290  0.8187
   35MOL   C132 7000   3.807   1.791   3.362  0.0465 -0.3323 -0.1936
   35MOL   C133 7001   3.717   1.670   3.362  0.1551  0.4038 -0.4034
   35MOL   O134 7002   3.755   1.561   3.444  0.0951  0.2644  0.3642
   35MOL   C135 7003   3.707   1.433   3.406  0.1355 -0.9083 -0.2922
   35MOL   H136 7004   3.782   1.868   3.289  0.6139 -0.4287 -0.4970
   35MOL   H137 7005   3.795   1.844   3.457 -0.8190 -0.6331 -0.1303
   35MOL   H138 7006   3.709   1.622   3.265  0.1489  1.6080 -0.9982
   35MOL   H139 7007   3.760   1.392   3.320  1.0412 -0.9293  0.2695
   35MOL   H140 7008   3.724   1.362   3.487  2.3863 -1.2785 -1.0430
   35MOL   H141 7009   3.601   1.417   3.387  0.2827  0.1823 -2.1672
   35MOL   C142 7010   3.572   1.719   3.391  0.0448 -0.0090  0.2146
   35MOL   C143 7011   3.505   1.805   3.282  1.0217  0.3339 -0.1259
   35MOL   O144 7012   3.410   1.721   3.209 -0.2681  0.5660 -0.0608
   35MOL   C145 7013   3.385   1.763   3.076 -0.4347  0.8518 -0.6007
   35MOL   H146 7014   3.575   1.776   3.484 -2.8588  0.5143  0.0447
   35MOL   H147 7015   3.513   1.629   3.408  0.0193  0.5466  3.5470
   35MOL   H148 7016   3.577   1.847   3.211 -0.5991  0.8216 -1.5394
   35MOL   H149 7017   3.478   1.776   3.021 -0.7000  1.0713 -1.0028
   35MOL   H150 7018   3.328   1.694   3.014  1.6866 -1.9085  0.4470
   35MOL   H151 7019   3.328   1.856   3.069 -3.4172 -0.7815  0.7156
   35MOL   C152 7020   3.435   1.935   3.327 -0.2965  0.6146 -0.1199
   35MOL   C153 7021   3.534   2.036   3.394 -0.0718 -0.3902  0.1573
   35MOL   O154 7022   3.629   2.055   3.289 -0.1898  0.0786  0.7349
   35MOL   C155 7023   3.738   2.134   3.335  0.6259 -0.3916 -0.6074
   35MOL   H156 7024   3.362   1.907   3.403 -1.1452  0.4056 -1.0005
   35MOL   H157 7025   3.393   1.992   3.244  0.4409  1.2122 -0.0903
   35MOL   H158 7026   3.570   1.986   3.484 -1.3634  1.9680  2.0425
   35MOL   H159 7027   3.806   2.158   3.254 -1.1428  0.4958 -1.8599
   35MOL   H160 7028   3.709   2.235   3.364  0.3938 -1.2664  2.3394
   35MOL   H161 7029   3.790   2.079   3.413  0.8677  2.1478  1.0596
   35MOL   C162 7030   3.460   2.163   3.427  0.3242  0.3642  0.0592
   35MOL   C163 7031   3.493   2.235   3.564  0.6689  0.2850  0.0616
   35MOL   O164 7032   3.445   2.362   3.525  0.3545 -0.2872  0.3724
   35MOL   C165 7033   3.525   2.481   3.552  0.1788  0.8216 -0.0191
   35MOL   H166 7034   3.352   2.144   3.426  0.3626  0.1789 -0.4342
   35MOL   H167 7035   3.469   2.230   3.342  1.5483  0.0013 -0.1071
   35MOL   H168 7036   3.598   2.220   3.588  0.1681 -1.9152  0.9914
   35MOL   H169 7037   3.455   2.564   3.542 -1.2414 -0.5077 -1.4920
   35MOL   H170 7038   3.557   2.476   3.656  2.6382 -0.5754 -0.8195
   35MOL   H171 7039   3.613   2.497   3.490  0.5637 -1.4005 -0.0881
   35MOL   C172 7040   3.405   2.192   3.685 -0.3630  0.1673 -0.1526
   35MOL   C173 7041   3.450   2.054   3.753  0.7519 -0.0969 -0.0868
   35MOL   O174 7042   3.587   2.059   3.782  0.6575 -0.8691 -0.1972
   35MOL   C175 7043   3.654   1.934   3.813  0.0224 -0.3299  0.3424
   35MOL   H176 7044   3.302   2.185   3.649 -0.3540  0.5420 -0.2487
   35MOL   H177 7045   3.412   2.265   3.765 -2.0351 -1.6529  1.7253
   35MOL   H178 7046   3.436   1.969   3.687 -0.4742  0.0037  0.0316
   35MOL   H179 7047   3.656   1.865   3.728 -2.2544  0.3088 -0.2581
   35MOL   H180 7048   3.758   1.941   3.845  0.0868  0.4142 -0.0076
   35MOL   H181 7049   3.609   1.874   3.891 -1.5269  1.3974  0.8122
   35MOL   C182 7050   3.379   2.026   3.893  0.2236  0.2257  0.1749
   35MOL   C183 7051   3.225   2.022   3.880  0.5540  0.0863 -0.5819
   35MOL   O184 7052   3.190   1.919   3.788 -0.5084 -0.1558  0.5132
   35MOL   C185 7053   3.067   1.935   3.710  0.1837  0.1379 -0.1364
   35MOL   H186 7054   3.413   2.109   3.954 -0.4425 -0.7012  1.8411
   35MOL   H187 7055   3.424   1.937   3.936  2.2360  0.8866 -0.5205
   35MOL   H188 7056   3.183   2.118   3.852 -0.2316 -0.5783 -1.7092
   35MOL   H189 7057   2.980   1.920   3.774  0.3788  1.9608  0.6106
   35MOL   H190 7058   3.073   2.028   3.653  1.3361 -0.8303 -1.6154
   35MOL   H191 7059   3.055   1.860   3.632  1.1121 -0.3764  0.2059
   35MOL   C192 7060   3.161   1.980   4.016  0.0968  0.1875 -0.0377
   35MOL   C193 7061   3.160   2.089   4.122 -0.5398 -0.3194 -0.4686
   35MOL   O194 7062   3.145   2.016   4.241  0.1894  0.7759  0.1604
   35MOL   C195 7063   3.135   2.111   4.349  0.3838  0.0670 -0.1932
   35MOL   H196 7064   3.218   1.889   4.035 -0.0821  0.4079  1.6178
   35MOL   H197 7065   3.059   1.951   3.992  0.1012  1.8696 -2.2044
   35MOL   H198 7066   3.070   2.148   4.106 -0.7988 -0.9746 -1.5125
   35MOL   H199 7067   3.033   2.147   4.367  0.5281  0.0866  0.5916
   35MOL   H200 7068   3.157   2.053   4.438 -1.5461 -3.5436 -1.9327
   35MOL   H201 7069   3.199   2.198   4.336 -0.5197  0.4039 -2.8414
   35MOL   H202 7070   3.252   2.148   4.125 -0.7930 -0.0182  2.4978
   36MOL     C1 7071   3.591   0.434   1.012 -0.0871 -0.0736  0.4173
   36MOL     C2 7072   3.457   0.482   1.059 -0.4377  0.6063 -0.3080
   36MOL     O3 7073   3.387   0.494   0.932  0.1914  0.5018 -0.3934
   36MOL     C4 7074   3.256   0.548   0.945 -0.2306 -0.1102 -0.3026
   36MOL     H5 7075   3.637   0.503   0.941  0.3867 -2.3599 -1.5368
   36MOL     H6 7076   3.648   0.435   1.105  0.5152 -0.6072  0.0636
   36MOL     H7 7077   3.475   0.578   1.106  1.6368  0.1112 -0.0460
   36MOL     H8 7078   3.260   0.645   0.996 -1.5540 -1.0245  1.6092
   36MOL     H9 7079   3.202   0.566   0.852 -0.3355  1.4962  0.0537
   36MOL    H10 7080   3.187   0.490   1.005  1.3715  0.3905  2.1330
   36MOL    H11 7081   3.582   0.347   0.947  1.8389  0.1446 -0.1707
   36MOL    C12 7082   3.384   0.374   1.150  0.0351  0.4933  0.3520
   36MOL    C13 7083   3.440   0.334   1.284 -0.1287 -0.3791  0.6079
   36MOL    O14 7084   3.559   0.258   1.281  0.3243  0.5569  0.7944
   36MOL    C15 7085   3.533   0.117   1.277 -0.1446 -0.1608 -0.3721
   36MOL    H16 7086   3.379   0.283   1.091  0.2638  0.3851  0.4985
   36MOL    H17 7087   3.283   0.407   1.174 -0.7048 -1.8296  0.4684
   36MOL    H18 7088   3.366   0.280   1.343 -1.0629  1.6137  1.2928
   36MOL    H19 7089   3.637   0.087   1.282  0.5175  1.9898 -0.7767
   36MOL    H20 7090   3.466   0.077   1.354  0.1282 -2.6963 -1.3809
   36MOL    H21 7091   3.498   0.080   1.181  2.4888 -0.2022 -1.3295
   36MOL    C22 7092   3.471   0.449   1.378  0.1465  0.3798 -0.1975
   36MOL    C23 7093   3.360   0.548   1.404 -0.2700  0.6500 -0.8530
   36MOL    O24 7094   3.267   0.457   1.473  0.0101  0.4580 -0.5202
   36MOL    C25 7095   3.133   0.487   1.443 -0.3441  0.7397  0.0379
   36MOL    H26 7096   3.553   0.506   1.334  1.4197  0.3474  2.0738
   36MOL    H27 7097   3.503   0.401   1.471 -0.2481  3.9628  1.8755
   36MOL    H28 7098   3.316   0.601   1.319  0.7567  2.8367 -0.0486
   36MOL    H29 7099   3.107   0.586   1.479 -1.8336  0.0799  0.8012
   36MOL    H30 7100   3.104   0.492   1.338  0.1023 -0.5614 -0.1662
   36MOL    H31 7101   3.073   0.416   1.500  2.6127 -1.6294  0.3763
   36MOL    C32 7102   3.404   0.660   1.503  0.0478 -0.0477  0.2694
   36MOL    C33 7103   3.471   0.782   1.432 -0.2057 -0.2724 -0.9433
   36MOL    O34 7104   3.384   0.821   1.326 -0.4634 -0.7262 -0.7983
   36MOL    C35 7105   3.445   0.871   1.212  0.1665  0.3076  0.0346
   36MOL    H36 7106   3.467   0.615   1.579  1.6277  0.6175 -0.6189
   36MOL    H37 7107   3.311   0.697   1.547  0.0142  0.4533 -0.2171
   36MOL    H38 7108   3.563   0.748   1.383  0.3334  2.2998 -1.7818
   36MOL    H39 7109   3.503   0.963   1.225  0.2363 -0.0635  2.8382
   36MOL    H40 7110   3.503   0.784   1.182  0.1918  1.0300 -2.0782
   36MOL    H41 7111   3.371   0.893   1.136 -0.4900 -0.1126  0.5474
   36MOL    C42 7112   3.510   0.893   1.524 -0.5195 -0.1003  0.6572
   36MOL    C43 7113   3.637   0.864   1.611 -0.3619  0.1862 -0.0704
   36MOL    O44 7114   3.751   0.934   1.561 -0.8484  0.5138 -0.2812
   36MOL    C45 7115   3.843   0.862   1.486 -0.7338  0.1282 -0.9194
   36MOL    H46 7116   3.435   0.917   1.599  0.6954 -2.2003  2.6426
   36MOL    H47 7117   3.540   0.979   1.464  1.3002 -1.2863 -0.1685
   36MOL    H48 7118   3.669   0.760   1.610  1.7297  0.7899 -2.6271
   36MOL    H49 7119   3.788   0.810   1.407 -1.6380 -0.9757  0.4059
   36MOL    H50 7120   3.911   0.927   1.431 -0.6726  2.2756  1.5958
   36MOL    H51 7121   3.897   0.783   1.539 -0.8396 -1.3099 -2.8850
   36MOL    C52 7122   3.613   0.891   1.764  0.4926 -0.3206 -0.4311
   36MOL    C53 7123   3.734   0.877   1.858  0.0383 -0.1970  0.6236
   36MOL    O54 7124   3.695   0.949   1.969  0.0420  0.2364  0.1849
   36MOL    C55 7125   3.793   0.995   2.060 -0.1841 -0.1391  0.2155
   36MOL    H56 7126   3.533   0.830   1.805 -0.8416  1.9627  0.4635
   36MOL    H57 7127   3.568   0.989   1.781  0.0516 -0.3512 -1.3762
   36MOL    H58 7128   3.819   0.931   1.816  0.1701 -0.9740 -0.1313
   36MOL    H59 7129   3.875   1.056   2.023  1.0377 -1.0972  1.3235
   36MOL    H60 7130   3.733   1.059   2.124  1.1975  1.4613 -0.0448
   36MOL    H61 7131   3.839   0.920   2.124  1.3178 -0.6469 -1.4237
   36MOL    C62 7132   3.797   0.739   1.896  0.1112  0.4546 -0.0811
   36MOL    C63 7133   3.693   0.632   1.949  0.6143  0.9293  0.3399
   36MOL    O64 7134   3.751   0.506   1.966  0.1053 -0.2725 -0.1907
   36MOL    C65 7135   3.738   0.424   1.857  0.0196  0.7976 -0.5606
   36MOL    H66 7136   3.880   0.751   1.966  0.7461 -0.6366 -0.6389
   36MOL    H67 7137   3.836   0.696   1.804  0.0712  0.3154 -0.0342
   36MOL    H68 7138   3.619   0.631   1.868  1.5908 -0.3212 -0.5580
   36MOL    H69 7139   3.787   0.458   1.766  1.7888  0.5240  0.2617
   36MOL    H70 7140   3.782   0.326   1.876  0.5749  1.2536  0.6018
   36MOL    H71 7141   3.634   0.409   1.831 -0.4909  1.1170  1.2648
   36MOL    C72 7142   3.627   0.663   2.085 -0.4200 -0.4616 -0.3000
   36MOL    C73 7143   3.499   0.582   2.112 -0.4929 -0.1114 -0.3651
   36MOL    O74 7144   3.478   0.562   2.254  0.6460  0.2428 -0.4570
   36MOL    C75 7145   3.529   0.444   2.306 -0.7529  0.0372 -0.1943
   36MOL    H76 7146   3.612   0.769   2.101 -1.4120 -0.7102  0.4194
   36MOL    H77 7147   3.703   0.649   2.162 -0.3221 -2.8897 -0.7858
   36MOL    H78 7148   3.504   0.489   2.057 -0.1006 -0.0353 -0.4617
   36MOL    H79 7149   3.472   0.373   2.246 -1.2861  0.7439 -0.5315
   36MOL    H80 7150   3.632   0.430   2.274 -0.7110  2.2691 -1.1383
   36MOL    H81 7151   3.506   0.432   2.412 -1.1852  0.8260 -0.1948
   36MOL    C82 7152   3.374   0.643   2.049  0.0184 -0.2625 -0.2240
   36MOL    C83 7153   3.245   0.550   2.059 -0.2854  0.5417  0.3859
   36MOL    O84 7154   3.132   0.640   2.026 -0.5221  0.0685 -0.3773
   36MOL    C85 7155   3.079   0.716   2.136 -0.8111 -0.0427  0.1826
   36MOL    H86 7156   3.401   0.672   1.947 -0.2848  1.9534  0.2886
   36MOL    H87 7157   3.353   0.740   2.094  0.2978  0.0117 -0.6773
   36MOL    H88 7158   3.236   0.516   2.162  1.4429 -1.4222 -0.0608
   36MOL    H89 7159   3.016   0.650   2.196 -0.7746 -0.0482  0.2142
   36MOL    H90 7160   3.154   0.761   2.200 -2.8587  0.7909  2.0500
   36MOL    H91 7161   3.010   0.787   2.089 -2.3753 -2.0595 -0.6694
   36MOL    C92 7162   3.240   0.424   1.972 -0.1131  0.4002  0.5780
   36MOL    C93 7163   3.120   0.334   1.979 -0.6865 -0.2571 -0.2887
   36MOL    O94 7164   3.134   0.222   1.896 -0.0155  0.2818  0.5306
   36MOL    C95 7165   3.105   0.246   1.765  0.4233 -0.6093 -0.0063
   36MOL    H96 7166   3.327   0.361   1.991  0.8959  2.0165  1.4477
   36MOL    H97 7167   3.253   0.461   1.871 -0.8134  0.6256  0.5692
   36MOL    H98 7168   3.032   0.391   1.950 -1.1830 -0.7458  0.2420
   36MOL    H99 7169   3.107   0.152   1.711 -0.6848 -1.1960  0.9403
   36MOL   H100 7170   3.003   0.284   1.759 -0.0384 -1.4703  1.8761
   36MOL   H101 7171   3.167   0.323   1.719 -0.8137  0.7574  0.5421
   36MOL   C102 7172   3.094   0.280   2.128  0.0971  0.0050  0.4766
   36MOL   C103 7173   3.203   0.194   2.196 -0.1467 -0.4792  0.3596
   36MOL   O104 7174   3.159   0.182   2.334  0.0303  0.5476 -0.5950
   36MOL   C105 7175   3.235   0.260   2.426  0.9328  0.5133  0.5014
   36MOL   H106 7176   3.005   0.218   2.119 -0.6445  0.6688  2.8661
   36MOL   H107 7177   3.078   0.363   2.197  0.1137  0.4127 -0.0020
   36MOL   H108 7178   3.294   0.252   2.182 -0.5934 -0.3701 -2.3868
   36MOL   H109 7179   3.167   0.264   2.512  0.9289 -1.2142  0.5925
   36MOL   H110 7180   3.323   0.203   2.457 -0.1792 -2.5738 -1.7791
   36MOL   H111 7181   3.266   0.355   2.383  2.2722 -1.3112 -2.6794
   36MOL   C112 7182   3.224   0.056   2.129  0.0175  0.3290  0.2087
   36MOL   C113 7183   3.335   7.789   2.198  0.2983  1.2660  0.3073
   36MOL   O114 7184   3.331   7.659   2.131  0.2594  0.3741 -0.0402
   36MOL   C115 7185   3.399   7.552   2.207 -0.5791 -0.6885 -0.0420
   36MOL   H116 7186   3.245   0.069   2.023 -1.0662  1.9499  0.1780
   36MOL   H117 7187   3.128   0.006   2.142 -0.0572  0.4093 -0.0461
   36MOL   H118 7188   3.305   7.779   2.303 -0.8300  0.6130 -0.0670
   36MOL   H119 7189   3.484   7.590   2.264 -1.6239 -0.0876  1.1347
   36MOL   H120 7190   3.313   7.520   2.265 -1.5074  0.9559 -0.4743
   36MOL   H121 7191   3.440   7.486   2.130 -0.2557 -1.0024  0.3932
   36MOL   C122 7192   3.475   0.046   2.192 -0.1510 -0.1925  0.0026
   36MOL   C123 7193   3.552   0.047   2.057  0.5125 -0.0175 -0.0986
   36MOL   O124 7194   3.496   0.151   1.981  0.3168  0.0194 -0.1516
   36MOL   C125 7195   3.517   0.152   1.838  0.2676  0.8717 -0.1305
   36MOL   H126 7196   3.544   7.800   2.254 -1.5116 -0.2736  1.4772
   36MOL   H127 7197   3.467   0.146   2.236 -2.9669 -0.6527  0.6676
   36MOL   H128 7198   3.552   7.761   2.006 -0.5275 -0.5116  0.8086
   36MOL   H129 7199   3.463   0.064   1.804  1.7678 -0.7960  1.6459
   36MOL   H130 7200   3.479   0.235   1.780  0.6419 -0.1136 -1.8360
   36MOL   H131 7201   3.623   0.130   1.821 -0.0993 -0.7953 -0.3995
   36MOL   C132 7202   3.701   0.082   2.083 -0.2353 -0.4849 -0.3560
   36MOL   C133 7203   3.789   7.768   2.083  0.1462  0.6854  0.0012
   36MOL   O134 7204   3.802   7.700   1.963 -0.9399  0.3907  0.2966
   36MOL   C135 7205   3.799   7.555   1.975 -0.2178  0.2371  0.0946
   36MOL   H136 7206   3.718   0.148   2.168 -2.2854 -2.6308  1.8132
   36MOL   H137 7207   3.742   0.139   2.000 -2.4600  0.5679 -0.7586
   36MOL   H138 7208   3.766   7.696   2.162  0.0758 -0.0712 -0.7102
   36MOL   H139 7209   3.703   7.518   2.009 -1.6004  2.7344 -0.9539
   36MOL   H140 7210   3.814   7.517   1.874  1.7446 -1.8284  1.1055
   36MOL   H141 7211   3.883   7.533   2.042  0.0854  1.9911  0.3215
   36MOL   C142 7212   3.939   7.809   2.108  0.2405  0.3526 -0.1555
   36MOL   C143 7213   3.969   0.071   2.241 -0.4274  0.2168 -0.5963
   36MOL   O144 7214   3.951   7.780   2.342 -0.5511  0.4402  0.0427
   36MOL   C145 7215   3.835   7.789   2.420 -0.0879  0.5718 -0.0866
   36MOL   H146 7216   3.976   0.059   2.025 -0.6636  1.8792  0.5421
   36MOL   H147 7217   4.002   7.721   2.122 -0.6279 -0.1130  0.9344
   36MOL   H148 7218   3.899   0.153   2.257 -1.5045  0.2727 -5.0535
   36MOL   H149 7219   3.831   7.704   2.489 -1.5163  1.3756  0.8429
   36MOL   H150 7220   3.846   0.070   2.478  0.4821  1.1103 -1.0434
   36MOL   H151 7221   3.741   7.785   2.365  0.5231 -1.8624 -1.0088
   36MOL   C152 7222   4.112   0.118   2.246  0.1152 -0.5211 -0.4672
   36MOL   C153 7223   4.144   0.261   2.189  0.0067  0.3945  0.0352
   36MOL   O154 7224   4.063   0.353   2.242  0.6372  0.2744 -0.2127
   36MOL   C155 7225   4.039   0.471   2.160  0.1895  0.1590  0.4527
   36MOL   H156 7226   4.175   0.045   2.194 -3.8289 -2.5765 -2.5755
   36MOL   H157 7227   4.145   0.107   2.350 -0.1434 -0.9441 -0.4275
   36MOL   H158 7228   4.125   0.243   2.083  2.0329  0.5962 -0.3809
   36MOL   H159 7229   4.126   0.537   2.163  1.1740 -1.1347  1.4952
   36MOL   H160 7230   4.021   0.443   2.056  1.3877 -0.4634  0.3983
   36MOL   H161 7231   3.950   0.523   2.195  0.3658  1.5258 -1.0594
   36MOL   C162 7232   4.293   0.305   2.207 -0.2791 -0.3646 -0.0930
   36MOL   C163 7233   4.364   0.359   2.084  0.2403  0.4867  0.7203
   36MOL   O164 7234   4.482   0.422   2.134  0.0345  0.3597  0.1364
   36MOL   C165 7235   4.481   0.566   2.126  0.1732 -0.1641  0.3351
   36MOL   H166 7236   4.348   0.212   2.222  0.3898  0.1616  0.7430
   36MOL   H167 7237   4.317   0.380   2.282  2.4181  0.4436 -1.7027
   36MOL   H168 7238   4.297   0.436   2.045 -0.5394 -0.4835  0.1492
   36MOL   H169 7239   4.385   0.608   2.156  0.1586  0.6273 -0.8045
   36MOL   H170 7240   4.558   0.610   2.190  1.0589  0.7895 -1.3473
   36MOL   H171 7241   4.494   0.600   2.024 -0.2279 -1.0203 -0.0050
   36MOL   C172 7242   4.420   0.255   1.979 -0.1670  0.1233  0.0026
   36MOL   C173 7243   4.312   0.168   1.912 -0.8358 -0.4711  0.1571
   36MOL   O174 7244   4.230   0.250   1.836  0.1336 -0.3208 -0.3660
   36MOL   C175 7245   4.116   0.193   1.782 -0.6252  0.2141  0.1475
   36MOL   H176 7246   4.486   0.188   2.034 -0.4208  0.1199  0.3067
   36MOL   H177 7247   4.481   0.307   1.906 -0.4785  1.8762  0.9674
   36MOL   H178 7248   4.244   0.119   1.982 -0.9509  0.3082  0.5869
   36MOL   H179 7249   4.053   0.280   1.761  0.7892  1.4444  0.8524
   36MOL   H180 7250   4.136   0.156   1.682 -3.3998 -1.3317  0.1113
   36MOL   H181 7251   4.061   0.124   1.845  1.4370 -1.9005 -0.3091
   36MOL   C182 7252   4.364   0.053   1.822  0.1035 -0.5699 -0.5343
   36MOL   C183 7253   4.440   7.749   1.903 -0.1961 -0.4275 -0.0841
   36MOL   O184 7254   4.348   7.695   2.002 -0.0887 -0.0810 -0.3112
   36MOL   C185 7255   4.386   7.710   2.134  0.0900 -0.8385 -0.0671
   36MOL   H186 7256   4.433   0.092   1.748  0.3683 -0.9502 -0.4943
   36MOL   H187 7257   4.283   0.008   1.764  0.1835  1.0045 -1.8891
   36MOL   H188 7258   4.532   7.791   1.943  0.8884 -1.5174 -1.3597
   36MOL   H189 7259   4.322   7.640   2.188 -0.3282 -1.9534 -1.9525
   36MOL   H190 7260   4.489   7.675   2.137  0.3062 -0.6101 -3.2338
   36MOL   H191 7261   4.366   7.803   2.187 -0.7511 -0.0877 -1.6657
   36MOL   C192 7262   4.500   7.628   1.830  0.4945  0.0846 -0.0409
   36MOL   C193 7263   4.575   7.532   1.916 -0.4577  0.0146 -0.3418
   36MOL   O194 7264   4.641   7.444   1.827 -0.5190  0.3136  0.1527
   36MOL   C195 7265   4.725   7.361   1.895 -0.7325 -0.2811 -0.3522
   36MOL   H196 7266   4.568   7.668   1.754  0.0098  2.6783  0.8225
   36MOL   H197 7267   4.425   7.572   1.774  0.0581  0.3759  0.2488
   36MOL   H198 7268   4.518   7.478   1.991  0.6574 -0.7823 -0.0456
   36MOL   H199 7269   4.667   7.284   1.946  0.3370 -0.2544  0.9201
   36MOL   H200 7270   4.801   7.324   1.827  0.4255  2.5752 -0.7150
   36MOL   H201 7271   4.788   7.411   1.969 -1.2686  0.3601 -0.3203
   36MOL   H202 7272   4.659   7.586   1.961  0.7257 -0.8780 -1.4317
   37MOL     C1 7273   0.517   6.041   3.540 -0.1503  0.0893  0.8765
   37MOL     C2 7274   0.657   6.086   3.579 -0.0928 -0.0880  0.4762
   37MOL     O3 7275   0.749   6.084   3.460 -0.3477 -0.6205 -0.1728
   37MOL     C4 7276   0.804   5.959   3.433  0.0418  0.2644 -0.0711
   37MOL     H5 7277   0.520   5.933   3.533 -0.2379  0.1264  0.2570
   37MOL     H6 7278   0.435   6.057   3.610 -0.8412 -1.0407  0.3416
   37MOL     H7 7279   0.694   6.024   3.660 -1.8383 -2.0437 -0.1766
   37MOL     H8 7280   0.841   5.923   3.528  1.1348  0.6505 -0.3412
   37MOL     H9 7281   0.731   5.891   3.390  1.1747 -1.7605  1.0976
   37MOL    H10 7282   0.890   5.964   3.366  0.3163 -0.5390  0.2096
   37MOL    H11 7283   0.484   6.080   3.443 -1.8000  0.4195  1.5482
   37MOL    C12 7284   0.645   6.236   3.620 -0.2962  0.2070  0.4732
   37MOL    C13 7285   0.758   6.292   3.699 -0.0057 -0.9963  0.1396
   37MOL    O14 7286   0.766   6.436   3.686  0.5131 -0.2228 -0.1645
   37MOL    C15 7287   0.846   6.488   3.580 -0.8104  0.4498 -0.3457
   37MOL    H16 7288   0.555   6.262   3.676 -0.6125  2.6265 -1.1034
   37MOL    H17 7289   0.634   6.297   3.530  0.7337 -0.7650 -0.3308
   37MOL    H18 7290   0.851   6.243   3.670  1.1621 -0.8142  3.3625
   37MOL    H19 7291   0.950   6.462   3.603 -1.2484 -2.5926 -1.5837
   37MOL    H20 7292   0.831   6.449   3.480 -1.7146  0.5629 -0.2617
   37MOL    H21 7293   0.826   6.595   3.574  0.5624  0.6846 -0.8300
   37MOL    C22 7294   0.733   6.268   3.851 -0.3896  0.1098  0.5090
   37MOL    C23 7295   0.851   6.284   3.952  0.5093  0.1634 -0.1118
   37MOL    O24 7296   0.799   6.328   4.077  0.1020 -0.5987 -0.0656
   37MOL    C25 7297   0.779   6.470   4.090 -0.7808 -0.0159 -0.1763
   37MOL    H26 7298   0.691   6.170   3.871  5.3073 -2.6343 -0.1671
   37MOL    H27 7299   0.652   6.337   3.875  0.4783  1.5152 -0.4584
   37MOL    H28 7300   0.914   6.361   3.907  2.5555 -1.7194 -0.5435
   37MOL    H29 7301   0.876   6.517   4.106 -1.0998  0.6461 -0.1617
   37MOL    H30 7302   0.740   6.506   3.995 -2.4365 -0.8260  0.1740
   37MOL    H31 7303   0.709   6.489   4.172 -0.7994 -0.2324 -0.1430
   37MOL    C32 7304   0.933   6.159   3.970  0.0913 -0.0446  0.8210
   37MOL    C33 7305   1.078   6.170   4.026 -0.4895 -0.7037  0.0460
   37MOL    O34 7306   1.150   6.249   3.935 -0.6351  0.6226  0.5887
   37MOL    C35 7307   1.217   6.173   3.834  0.0715  0.3818  0.1773
   37MOL    H36 7308   0.928   6.118   3.869 -0.2723 -0.1181  0.8688
   37MOL    H37 7309   0.868   6.094   4.028 -1.5555 -0.5456 -1.4947
   37MOL    H38 7310   1.128   6.076   4.046  2.5889  0.5866 -1.2592
   37MOL    H39 7311   1.278   6.089   3.867 -3.8358 -1.9562  1.7719
   37MOL    H40 7312   1.138   6.143   3.766 -0.0955 -0.0409  0.5607
   37MOL    H41 7313   1.283   6.246   3.785 -1.6440  1.4015 -0.6555
   37MOL    C42 7314   1.091   6.240   4.165  0.6837 -0.4861 -0.3256
   37MOL    C43 7315   1.238   6.236   4.219 -0.8490 -0.2101 -0.1343
   37MOL    O44 7316   1.253   6.339   4.315  0.0782  0.1461  0.7089
   37MOL    C45 7317   1.290   6.466   4.254  0.0597  0.4222 -0.0995
   37MOL    H46 7318   1.038   6.179   4.238  0.4877  0.6249  0.4817
   37MOL    H47 7319   1.051   6.341   4.155 -1.3518 -0.9818  2.1753
   37MOL    H48 7320   1.314   6.249   4.142 -2.0599  0.8494 -1.1787
   37MOL    H49 7321   1.195   6.503   4.213 -0.0490  0.3691  0.1062
   37MOL    H50 7322   1.329   6.536   4.327  2.9672 -2.2261  0.9707
   37MOL    H51 7323   1.370   6.467   4.180  1.5328  2.7021  1.4957
   37MOL    C52 7324   1.259   6.117   4.318  0.3953  0.0353 -0.5754
   37MOL    C53 7325   1.391   6.119   4.398 -0.4558  0.0377 -0.3409
   37MOL    O54 7326   1.360   6.079   4.526  0.0465  0.2423 -0.1492
   37MOL    C55 7327   1.415   6.156   4.632  0.0008 -0.0008  0.6119
   37MOL    H56 7328   1.250   6.019   4.272  0.1213 -0.7204  1.0780
   37MOL    H57 7329   1.176   6.122   4.387  0.4044 -1.1679 -0.4693
   37MOL    H58 7330   1.438   6.217   4.408  1.6355 -1.0662  1.0174
   37MOL    H59 7331   1.372   6.256   4.632 -1.2104 -0.5087  0.8601
   37MOL    H60 7332   1.409   6.108   4.730 -1.8071  0.0789  0.5473
   37MOL    H61 7333   1.523   6.163   4.616 -0.4263  1.2180 -2.0148
   37MOL    C62 7334   1.493   6.010   4.350 -0.0086 -0.3633 -0.5403
   37MOL    C63 7335   1.558   6.031   4.208  0.5150  0.1527  0.6278
   37MOL    O64 7336   1.463   6.027   4.103  0.4426  0.4651  0.4905
   37MOL    C65 7337   1.528   5.992   3.976  0.1447  0.3724 -0.4703
   37MOL    H66 7338   1.461   5.906   4.352 -0.2395 -0.3124 -1.5071
   37MOL    H67 7339   1.576   5.998   4.420 -0.6599  2.1851  0.7207
   37MOL    H68 7340   1.628   5.950   4.189 -0.3930 -0.5624  0.3133
   37MOL    H69 7341   1.618   5.932   3.984 -0.7031 -0.8668 -0.0216
   37MOL    H70 7342   1.454   5.945   3.912 -1.6797  2.4465  0.0445
   37MOL    H71 7343   1.559   6.083   3.925 -1.5600  1.3885  0.2302
   37MOL    C72 7344   1.626   6.169   4.195  0.7752  0.1818 -0.0459
   37MOL    C73 7345   1.729   6.227   4.290 -0.0659  0.4289  0.4301
   37MOL    O74 7346   1.834   6.133   4.287 -0.0050  0.4788 -0.7182
   37MOL    C75 7347   1.897   6.102   4.416  0.5010 -0.6530  0.9429
   37MOL    H76 7348   1.551   6.247   4.181  0.8901  0.4664  0.8920
   37MOL    H77 7349   1.686   6.177   4.105 -0.7741  2.2866 -0.9355
   37MOL    H78 7350   1.687   6.233   4.391  0.0875  1.0810  0.4571
   37MOL    H79 7351   1.828   6.093   4.500 -0.0148 -0.7418  0.5084
   37MOL    H80 7352   1.956   6.013   4.398 -0.4391 -1.2475  0.7550
   37MOL    H81 7353   1.948   6.196   4.439  0.9990 -0.6272 -0.2558
   37MOL    C82 7354   1.782   6.361   4.254  0.1111  0.0743  0.3316
   37MOL    C83 7355   1.702   6.482   4.301  0.1369 -0.0360 -0.1737
   37MOL    O84 7356   1.707   6.485   4.444  0.1904 -0.1715 -0.6983
   37MOL    C85 7357   1.580   6.528   4.502  0.2054  0.1625  0.4728
   37MOL    H86 7358   1.791   6.359   4.146  0.3888  0.0817  0.3522
   37MOL    H87 7359   1.882   6.381   4.293  0.6066  0.6109 -1.1987
   37MOL    H88 7360   1.598   6.488   4.269  0.0370  3.7286  0.6172
   37MOL    H89 7361   1.538   6.615   4.452 -1.7660  0.6405  2.8779
   37MOL    H90 7362   1.514   6.441   4.505 -0.1644  0.3654 -1.2790
   37MOL    H91 7363   1.599   6.554   4.606  5.0445  0.4356 -0.3574
   37MOL    C92 7364   1.771   6.617   4.254 -0.0325 -0.1694 -0.5785
   37MOL    C93 7365   1.684   6.693   4.151  0.1388 -0.8890 -0.0426
   37MOL    O94 7366   1.735   6.826   4.142  0.1941  0.3042 -0.5551
   37MOL    C95 7367   1.662   6.910   4.234 -0.1792  0.2425  0.7423
   37MOL    H96 7368   1.877   6.612   4.227  0.3795 -0.9315  1.1174
   37MOL    H97 7369   1.790   6.680   4.341  0.6288 -0.6620 -0.3573
   37MOL    H98 7370   1.581   6.693   4.186 -0.2509  0.8280 -1.1084
   37MOL    H99 7371   1.705   7.009   4.252 -0.8467  0.8974 -1.1748
   37MOL   H100 7372   1.558   6.927   4.207 -0.5067 -0.9547  1.1998
   37MOL   H101 7373   1.655   6.866   4.334 -2.7914  0.3119  0.6208
   37MOL   C102 7374   1.706   6.633   4.002 -0.0381  0.2498 -0.1392
   37MOL   C103 7375   1.599   6.687   3.902 -0.3082  0.1349 -0.9836
   37MOL   O104 7376   1.618   6.631   3.780 -0.4831  0.0875 -0.0534
   37MOL   C105 7377   1.667   6.716   3.680 -0.1398  0.3485  0.1766
   37MOL   H106 7378   1.696   6.524   4.006 -0.8205  0.4040  2.4246
   37MOL   H107 7379   1.805   6.656   3.962  0.4976 -0.9529  0.4445
   37MOL   H108 7380   1.591   6.795   3.905  0.3614  0.1540  1.6175
   37MOL   H109 7381   1.662   6.662   3.586 -0.7175  0.2781  0.2490
   37MOL   H110 7382   1.617   6.813   3.682  0.3211  0.6458 -1.8039
   37MOL   H111 7383   1.772   6.740   3.695 -0.5347  0.3095  3.2924
   37MOL   C112 7384   1.457   6.641   3.949 -0.2313  0.0884 -0.2423
   37MOL   C113 7385   1.342   6.671   3.847  0.5722 -0.1834  0.0510
   37MOL   O114 7386   1.352   6.552   3.766  0.0836 -0.2404 -0.3361
   37MOL   C115 7387   1.307   6.578   3.632  0.1614  0.3765  0.0966
   37MOL   H116 7388   1.422   6.694   4.037  0.0635 -0.2773  0.0989
   37MOL   H117 7389   1.451   6.535   3.973  1.1104  0.0526 -0.0109
   37MOL   H118 7390   1.368   6.765   3.797 -1.4480  0.6754  0.5560
   37MOL   H119 7391   1.203   6.612   3.629 -0.3520 -1.2663 -1.8356
   37MOL   H120 7392   1.365   6.655   3.581  0.3461 -0.7838 -1.4754
   37MOL   H121 7393   1.314   6.485   3.575 -0.3280  0.5485 -0.2551
   37MOL   C122 7394   1.196   6.682   3.903 -0.7438  0.5744 -0.6499
   37MOL   C123 7395   1.163   6.818   3.956 -0.1047  0.2161 -0.5617
   37MOL   O124 7396   1.159   6.898   3.844 -0.7058 -0.2969  0.8720
   37MOL   C125 7397   1.238   7.017   3.843 -0.8093  1.0659  0.4683
   37MOL   H126 7398   1.174   6.601   3.972 -2.3383  2.1257  0.7177
   37MOL   H127 7399   1.128   6.654   3.823 -0.3116  1.8076 -1.4740
   37MOL   H128 7400   1.238   6.845   4.029 -1.1346  1.2522  0.1215
   37MOL   H129 7401   1.190   7.106   3.883  0.4050  1.5489  0.9010
   37MOL   H130 7402   1.333   7.012   3.897 -1.6037  0.7248  1.8541
   37MOL   H131 7403   1.264   7.050   3.743 -0.0903  0.3432  0.4088
   37MOL   C132 7404   1.020   6.811   4.015 -0.2026 -0.5712 -0.3380
   37MOL   C133 7405   0.973   6.948   4.057  0.6712  0.2495 -0.7771
   37MOL   O134 7406   0.835   6.944   4.102  0.3566 -0.2843 -0.1080
   37MOL   C135 7407   0.734   6.965   4.006  0.2281 -0.8170 -0.2776
   37MOL   H136 7408   1.016   6.749   4.104  0.3781  1.2357  0.9629
   37MOL   H137 7409   0.949   6.760   3.949 -0.3677 -0.0471 -0.5641
   37MOL   H138 7410   0.977   7.023   3.979 -1.5891  0.3614 -0.8376
   37MOL   H139 7411   0.739   7.055   3.945  0.1484 -1.5917 -1.4432
   37MOL   H140 7412   0.724   6.877   3.942 -0.1684 -0.1871 -1.0909
   37MOL   H141 7413   0.636   6.964   4.054 -0.0784 -0.0764 -0.8795
   37MOL   C142 7414   1.059   7.003   4.180 -0.2374  0.7442  0.2519
   37MOL   C143 7415   1.027   7.122   4.267  0.1038 -0.0049  0.3392
   37MOL   O144 7416   1.086   7.114   4.391 -0.3099  0.0919 -0.8482
   37MOL   C145 7417   0.999   7.076   4.496  0.6360 -0.9137 -0.2293
   37MOL   H146 7418   1.158   7.029   4.144  0.3420 -0.2394  1.1038
   37MOL   H147 7419   1.075   6.911   4.237  0.5099 -0.2430 -1.5069
   37MOL   H148 7420   0.919   7.118   4.273  0.0349  2.0023  0.6871
   37MOL   H149 7421   0.974   7.158   4.563 -0.8783 -0.4585 -1.3137
   37MOL   H150 7422   0.904   7.035   4.463 -0.3713  2.9258 -2.3165
   37MOL   H151 7423   1.051   7.004   4.560  0.2005 -0.8924  0.1556
   37MOL   C152 7424   1.080   7.251   4.208 -0.0215 -0.1520 -0.0726
   37MOL   C153 7425   1.037   7.376   4.290 -1.1132  0.2382 -0.3787
   37MOL   O154 7426   1.134   7.480   4.277  0.2714 -0.2864 -0.3879
   37MOL   C155 7427   1.254   7.473   4.354 -0.1039  0.1454  0.1382
   37MOL   H156 7428   1.050   7.268   4.104  1.3421  0.7414 -0.3284
   37MOL   H157 7429   1.188   7.242   4.202  0.1722  0.7372  1.7002
   37MOL   H158 7430   1.030   7.351   4.395  0.1003 -1.9404 -0.7781
   37MOL   H159 7431   1.231   7.444   4.456  1.6351  3.0493  1.3964
   37MOL   H160 7432   1.331   7.407   4.315 -0.8061  0.7338 -2.3373
   37MOL   H161 7433   1.301   7.571   4.365 -0.3919  0.2744  0.2221
   37MOL   C162 7434   0.899   7.428   4.255  0.5106  0.4891 -0.3625
   37MOL   C163 7435   0.801   7.461   4.365  0.0487 -0.3678 -0.6543
   37MOL   O164 7436   0.788   7.340   4.441  0.8818 -0.0385 -0.0122
   37MOL   C165 7437   0.692   7.249   4.392 -0.0826 -0.0129 -0.2669
   37MOL   H166 7438   0.854   7.369   4.175 -0.3482 -0.5732  0.8815
   37MOL   H167 7439   0.925   7.522   4.208 -0.6049  2.2221  2.3405
   37MOL   H168 7440   0.706   7.485   4.317  0.0681 -1.9043 -1.4968
   37MOL   H169 7441   0.700   7.222   4.287 -2.8359 -0.9456 -0.2626
   37MOL   H170 7442   0.713   7.157   4.446  0.0745 -1.1851 -2.2684
   37MOL   H171 7443   0.588   7.273   4.414  0.3035  2.0629 -0.5683
   37MOL   C172 7444   0.844   7.579   4.460  0.1392 -0.5221 -0.2393
   37MOL   C173 7445   0.781   7.577   4.602  0.8338 -0.2707 -0.2190
   37MOL   O174 7446   0.829   7.696   4.666  0.9547  0.0367 -0.0979
   37MOL   C175 7447   0.922   7.663   4.769 -0.1874  0.7260 -0.4284
   37MOL   H176 7448   0.807   7.667   4.408 -0.5364 -1.8484 -2.0595
   37MOL   H177 7449   0.953   7.575   4.470  0.1887  1.8674  0.4534
   37MOL   H178 7450   0.808   7.488   4.659  0.2735  0.1262  0.6823
   37MOL   H179 7451   0.863   7.619   4.849  0.2900 -1.7686 -1.3993
   37MOL   H180 7452   1.001   7.592   4.742 -0.6897 -0.5932  1.5003
   37MOL   H181 7453   0.970   7.756   4.800  2.1064 -0.6397  0.2413
   37MOL   C182 7454   0.629   7.594   4.595 -0.1941 -0.4747  1.0321
   37MOL   C183 7455   0.559   7.589   4.729 -0.2388  0.2778  0.0503
   37MOL   O184 7456   0.430   7.650   4.714  0.4549  0.5427 -0.3540
   37MOL   C185 7457   0.419   7.784   4.737 -0.4071 -0.3076 -0.6215
   37MOL   H186 7458   0.579   7.521   4.531  1.7691 -1.0504  0.0998
   37MOL   H187 7459   0.605   7.692   4.553  0.7557 -1.1485 -1.1715
   37MOL   H188 7460   0.607   7.639   4.813 -0.1430  1.6059 -0.7656
   37MOL   H189 7461   0.499   0.024   4.683 -0.0276 -0.0180  0.1985
   37MOL   H190 7462   0.325   0.011   4.697  0.0534  2.0873  0.4426
   37MOL   H191 7463   0.423   7.807   4.843 -2.9816  0.6557 -0.6837
   37MOL   C192 7464   0.528   7.450   4.771  0.7638 -0.6821  0.4593
   37MOL   C193 7465   0.479   7.459   4.919 -0.4687  0.7202  0.2632
   37MOL   O194 7466   0.448   7.337   4.963  0.7419 -0.4088  0.0105
   37MOL   C195 7467   0.366   7.350   5.080  0.0969 -0.5300 -0.0142
   37MOL   H196 7468   0.617   7.391   4.749 -0.6954 -2.8925  0.2990
   37MOL   H197 7469   0.453   7.408   4.704 -1.3198  1.2435  1.5293
   37MOL   H198 7470   0.397   7.528   4.937 -1.0906 -0.0612  0.4911
   37MOL   H199 7471   0.273   7.398   5.047 -1.4638 -1.3819  2.9954
   37MOL   H200 7472   0.343   7.248   5.111 -0.0756 -0.9372 -1.4324
   37MOL   H201 7473   0.422   7.391   5.163  0.5937  0.5421 -0.8633
   37MOL   H202 7474   0.562   7.499   4.976  1.2443  3.0396 -3.6517
   38MOL     C1 7475   1.435   6.820   6.674  0.4880  0.2215 -0.1334
   38MOL     C2 7476   1.466   6.683   6.728  0.4543  0.3160 -0.2415
   38MOL     O3 7477   1.606   6.684   6.757 -0.1508  0.2383 -0.4160
   38MOL     C4 7478   1.663   6.559   6.737 -0.4414  0.1217  0.2152
   38MOL     H5 7479   1.453   6.825   6.566  0.5710  0.6773 -0.0999
   38MOL     H6 7480   1.329   6.846   6.669 -0.1170 -2.1753 -0.3153
   38MOL     H7 7481   1.448   6.616   6.643  1.8813  2.2409 -2.1233
   38MOL     H8 7482   1.636   6.526   6.637  0.1994 -0.2768  0.1736
   38MOL     H9 7483   1.770   6.572   6.726 -0.6066  1.6831  0.2929
   38MOL    H10 7484   1.638   6.483   6.811 -0.5402 -0.2204 -0.1667
   38MOL    H11 7485   1.484   6.893   6.739 -1.5459 -0.1985  1.9015
   38MOL    C12 7486   1.375   6.636   6.848  0.2699  0.3774  0.1279
   38MOL    C13 7487   1.322   6.496   6.843  0.1232 -0.5418  0.3064
   38MOL    O14 7488   1.290   6.442   6.966  0.4953 -0.1132  0.8510
   38MOL    C15 7489   1.395   6.372   7.028 -0.2708  0.4316  0.0393
   38MOL    H16 7490   1.295   6.708   6.862 -0.4109 -0.3457 -0.0388
   38MOL    H17 7491   1.434   6.651   6.939  1.2579  0.5365 -0.5376
   38MOL    H18 7492   1.407   6.440   6.803  1.9876  3.3621 -1.4583
   38MOL    H19 7493   1.384   6.342   7.133  0.0566  3.7161  1.0585
   38MOL    H20 7494   1.415   6.273   6.987  1.4069  0.8434 -0.1582
   38MOL    H21 7495   1.488   6.429   7.028  0.0225 -0.0342 -1.4260
   38MOL    C22 7496   1.199   6.494   6.742 -0.1493  0.0054 -0.1973
   38MOL    C23 7497   1.100   6.379   6.770  0.1129  0.4084 -0.5378
   38MOL    O24 7498   0.989   6.400   6.687 -0.3167  0.1235 -0.3437
   38MOL    C25 7499   0.858   6.427   6.742  0.4734  0.1549  0.2294
   38MOL    H26 7500   1.236   6.502   6.640 -1.0144  1.9194 -0.3947
   38MOL    H27 7501   1.139   6.581   6.769 -1.6865 -1.4498  1.2026
   38MOL    H28 7502   1.064   6.389   6.872  1.5144  1.2153 -0.1133
   38MOL    H29 7503   0.796   6.454   6.657  0.8155  0.6338  0.1305
   38MOL    H30 7504   0.810   6.343   6.792  0.0788  3.0045  4.9027
   38MOL    H31 7505   0.864   6.510   6.812  0.6201 -0.6846  1.2293
   38MOL    C32 7506   1.152   6.237   6.732  0.7789  0.0216  0.0986
   38MOL    C33 7507   1.061   6.118   6.778  0.4627  0.4379 -0.3289
   38MOL    O34 7508   1.116   6.010   6.705 -0.6324 -0.2992 -0.3229
   38MOL    C35 7509   1.025   5.905   6.671 -0.2423 -0.6598  0.1994
   38MOL    H36 7510   1.253   6.229   6.773  0.6579 -2.5529 -0.0290
   38MOL    H37 7511   1.159   6.236   6.623 -1.5590  0.6848 -0.0729
   38MOL    H38 7512   0.960   6.130   6.739 -0.9983 -0.2233  3.0937
   38MOL    H39 7513   0.923   5.943   6.673  0.8688  2.5634 -0.5189
   38MOL    H40 7514   1.063   5.850   6.585 -1.0157 -0.4619 -0.2695
   38MOL    H41 7515   1.008   5.832   6.749 -1.4567  0.6551  1.2021
   38MOL    C42 7516   1.072   6.086   6.930  0.1458 -0.1119 -0.3017
   38MOL    C43 7517   0.963   6.145   7.018 -0.4466 -0.1320  0.2646
   38MOL    O44 7518   0.872   6.044   7.049 -0.4319 -0.4720 -0.4436
   38MOL    C45 7519   0.774   6.042   6.949 -0.2084 -0.1077  0.6316
   38MOL    H46 7520   1.172   6.104   6.970 -1.1431  0.0934  2.9964
   38MOL    H47 7521   1.083   5.979   6.949  1.7667 -0.1426 -1.2908
   38MOL    H48 7522   0.909   6.224   6.966  2.0612  0.9801 -0.7286
   38MOL    H49 7523   0.802   5.987   6.859  0.2806 -0.3428  0.9277
   38MOL    H50 7524   0.693   5.978   6.986 -1.2311  2.2078  2.5328
   38MOL    H51 7525   0.728   6.138   6.928  0.4483  0.3992  1.4779
   38MOL    C52 7526   1.015   6.213   7.149  0.4573 -0.3016  0.6355
   38MOL    C53 7527   0.913   6.284   7.235  1.0111  1.0047 -0.3976
   38MOL    O54 7528   0.826   6.189   7.306 -0.4065 -0.5883  0.1969
   38MOL    C55 7529   0.693   6.202   7.264  0.1681  0.1627  0.2257
   38MOL    H56 7530   1.069   6.295   7.101 -0.2290  0.7655  1.6412
   38MOL    H57 7531   1.085   6.147   7.199  1.2222 -1.2766 -1.6740
   38MOL    H58 7532   0.844   6.354   7.187  1.5115  0.4253 -1.9777
   38MOL    H59 7533   0.646   6.120   7.318  2.9601 -2.0163 -0.5378
   38MOL    H60 7534   0.663   6.295   7.313 -4.0081  0.3185 -2.3569
   38MOL    H61 7535   0.673   6.203   7.157 -0.5243 -1.7961  0.3218
   38MOL    C62 7536   0.982   6.358   7.345 -0.1879  0.3980 -0.9748
   38MOL    C63 7537   1.060   6.486   7.313  0.1014  0.0659 -0.6023
   38MOL    O64 7538   0.967   6.572   7.252  0.1797  0.1362 -0.5515
   38MOL    C65 7539   1.003   6.629   7.125  0.1879 -0.0598 -0.3523
   38MOL    H66 7540   1.063   6.299   7.387  0.7792  0.9685 -2.0177
   38MOL    H67 7541   0.915   6.375   7.429  1.3197 -1.9008  0.7761
   38MOL    H68 7542   1.146   6.462   7.251 -0.7761 -1.0851 -1.4065
   38MOL    H69 7543   0.917   6.660   7.067  0.1749 -1.5533 -1.1816
   38MOL    H70 7544   1.079   6.705   7.144  0.6110  0.2587 -3.0468
   38MOL    H71 7545   1.045   6.549   7.063  0.4239  0.0807 -0.3769
   38MOL    C72 7546   1.111   6.546   7.448 -1.5609  0.2882 -0.2720
   38MOL    C73 7547   1.193   6.685   7.431 -0.3215 -0.1645 -0.2849
   38MOL    O74 7548   1.210   6.764   7.550 -0.0941  0.5407  0.3509
   38MOL    C75 7549   1.105   6.850   7.579 -0.3842  0.3296  0.1637
   38MOL    H76 7550   1.184   6.473   7.484 -2.5958 -0.3375  0.5836
   38MOL    H77 7551   1.033   6.560   7.523 -2.0323  2.1425 -1.0955
   38MOL    H78 7552   1.128   6.746   7.368 -1.1467 -2.4436 -1.7145
   38MOL    H79 7553   1.114   6.900   7.676  0.8393  0.9585 -0.2738
   38MOL    H80 7554   1.112   6.934   7.511  1.2199  0.7572  0.8250
   38MOL    H81 7555   1.008   6.801   7.568 -0.3207  0.2230  0.0777
   38MOL    C82 7556   1.331   6.673   7.357  0.9060  0.1142 -0.0711
   38MOL    C83 7557   1.417   6.803   7.357  0.4133 -0.2092  0.6722
   38MOL    O84 7558   1.544   6.760   7.315 -0.1061 -0.1598  0.1158
   38MOL    C85 7559   1.640   6.764   7.422 -0.7575 -0.2274 -0.1071
   38MOL    H86 7560   1.316   6.639   7.255 -0.3402  0.2225  0.0678
   38MOL    H87 7561   1.394   6.604   7.412 -3.6766 -4.9245 -0.7407
   38MOL    H88 7562   1.423   6.841   7.459 -3.4866  0.6404  0.6840
   38MOL    H89 7563   1.736   6.743   7.376  0.0387  0.9887  0.9752
   38MOL    H90 7564   1.661   6.865   7.455 -1.0926 -0.7911  1.8569
   38MOL    H91 7565   1.617   6.704   7.510 -0.7121  2.1337  1.5346
   38MOL    C92 7566   1.366   6.919   7.269  0.1441  0.2608  0.1173
   38MOL    C93 7567   1.464   7.044   7.262 -0.9529  0.9907  0.7007
   38MOL    O94 7568   1.486   7.075   7.119 -0.1405  0.3260  0.3994
   38MOL    C95 7569   1.587   7.001   7.050  0.3368 -0.3281 -0.3211
   38MOL    H96 7570   1.268   6.942   7.310  0.0644 -1.4421  0.9393
   38MOL    H97 7571   1.356   6.877   7.169 -0.9855  0.1302  0.2824
   38MOL    H98 7572   1.565   7.027   7.300 -0.6412  0.4096 -0.3636
   38MOL    H99 7573   1.684   7.024   7.094 -0.2069  1.4699 -0.0057
   38MOL   H100 7574   1.562   6.895   7.058 -1.1571  0.1229  1.4293
   38MOL   H101 7575   1.594   7.011   6.942  0.2162  2.5089 -0.1072
   38MOL   C102 7576   1.417   7.183   7.325 -0.3039  0.5825  0.5847
   38MOL   C103 7577   1.384   7.176   7.473  0.1415 -0.5716  0.4465
   38MOL   O104 7578   1.488   7.122   7.546 -0.0777  0.2177  0.0434
   38MOL   C105 7579   1.449   7.063   7.670  0.6360  0.3932 -0.0327
   38MOL   H106 7580   1.330   7.218   7.268 -0.1158 -0.0477 -0.1012
   38MOL   H107 7581   1.493   7.258   7.304 -1.3190  0.6533 -3.3761
   38MOL   H108 7582   1.299   7.110   7.482 -1.5677  1.3937 -0.8542
   38MOL   H109 7583   1.389   7.129   7.733 -0.5386 -1.0278  0.3673
   38MOL   H110 7584   1.395   6.969   7.658 -0.8640  1.0862  1.1016
   38MOL   H111 7585   1.536   7.044   7.732 -1.0519 -0.4207  2.1502
   38MOL   C112 7586   1.357   7.315   7.525  0.2652 -0.0257  0.3787
   38MOL   C113 7587   1.209   7.337   7.556  0.3847  0.1690 -0.0048
   38MOL   O114 7588   1.212   7.458   7.625 -0.5853 -0.6102 -0.1751
   38MOL   C115 7589   1.211   7.432   7.767 -0.2300 -0.0668 -0.0291
   38MOL   H116 7590   1.398   7.387   7.454  1.4094 -0.2614  0.8010
   38MOL   H117 7591   1.419   7.330   7.613 -2.2453  1.4186  1.9728
   38MOL   H118 7592   1.167   7.263   7.625 -0.8849  0.0453 -0.9024
   38MOL   H119 7593   1.182   7.529   7.809 -2.1652  1.4472 -4.5054
   38MOL   H120 7594   1.127   7.370   7.797 -0.0630 -0.2542  0.0486
   38MOL   H121 7595   1.309   7.403   7.806 -0.3292  0.3245  0.5215
   38MOL   C122 7596   1.120   7.351   7.433  0.3913  0.5493  0.5156
   38MOL   C123 7597   1.041   7.222   7.378 -1.0209 -1.4262 -0.5819
   38MOL   O124 7598   0.954   7.172   7.481 -0.0393 -0.2303  0.3342
   38MOL   C125 7599   0.855   7.255   7.523  0.1901  0.5785  0.2620
   38MOL   H126 7600   1.184   7.386   7.352 -1.2249  0.1944 -0.9562
   38MOL   H127 7601   1.054   7.437   7.445 -0.2518 -0.0083  1.0332
   38MOL   H128 7602   1.114   7.141   7.370 -1.0931 -1.9006  2.7346
   38MOL   H129 7603   0.782   7.194   7.577 -1.5675  1.1897 -1.3837
   38MOL   H130 7604   0.897   7.335   7.584 -1.7130  0.2781  2.0108
   38MOL   H131 7605   0.793   7.280   7.437  0.7832  2.1839  0.2864
   38MOL   C132 7606   0.976   7.251   7.242  0.0920  0.1316  0.0499
   38MOL   C133 7607   0.940   7.122   7.167  0.3933  0.2997  0.3225
   38MOL   O134 7608   0.835   7.060   7.234  0.4470  0.3082  0.2398
   38MOL   C135 7609   0.863   6.920   7.239 -0.2777 -0.2775  0.0277
   38MOL   H136 7610   1.048   7.307   7.183  0.7673  0.8684  1.5497
   38MOL   H137 7611   0.892   7.318   7.257  0.3959  0.1120  2.0526
   38MOL   H138 7612   1.032   7.064   7.172  1.3443  1.4314 -2.8759
   38MOL   H139 7613   0.778   6.872   7.288 -0.3365  0.8514  1.0307
   38MOL   H140 7614   0.867   6.879   7.138 -0.3868 -1.2611  0.4065
   38MOL   H141 7615   0.958   6.888   7.282 -0.2935 -2.2008 -1.2530
   38MOL   C142 7616   0.909   7.151   7.020  0.3628  0.1829  0.0772
   38MOL   C143 7617   1.030   7.175   6.929  0.3471  0.1213  0.4154
   38MOL   O144 7618   1.087   7.054   6.891  0.6109  0.0127  0.4109
   38MOL   C145 7619   1.178   6.986   6.974  0.3151  0.3990  0.1101
   38MOL   H146 7620   0.840   7.233   7.003  0.9285  0.8838  1.0883
   38MOL   H147 7621   0.854   7.063   6.987  0.9810  0.3161 -1.3360
   38MOL   H148 7622   1.104   7.235   6.982  1.6176 -0.5652 -0.5497
   38MOL   H149 7623   1.262   7.047   7.010  2.0529 -2.1016  0.4601
   38MOL   H150 7624   1.130   6.934   7.056 -1.4424  1.9169  0.0691
   38MOL   H151 7625   1.218   6.908   6.909  2.3992  0.2507  1.5125
   38MOL   C152 7626   1.001   7.258   6.796 -0.5515  0.2218  0.8228
   38MOL   C153 7627   1.133   7.293   6.718  0.2144  0.4003 -0.5263
   38MOL   O154 7628   1.140   7.249   6.585  0.2865  0.2215  0.2855
   38MOL   C155 7629   1.172   7.105   6.569  0.0001  0.5039  0.1088
   38MOL   H156 7630   0.949   7.352   6.816  0.4382  1.0693 -0.4928
   38MOL   H157 7631   0.942   7.192   6.733 -1.4657  1.2678  0.5799
   38MOL   H158 7632   1.223   7.285   6.780 -1.6518 -1.1123  2.0865
   38MOL   H159 7633   1.184   7.091   6.462 -2.8553  1.0126 -0.3308
   38MOL   H160 7634   1.268   7.082   6.615 -0.3690 -3.3226 -0.8869
   38MOL   H161 7635   1.093   7.039   6.603  0.8800 -1.4794 -1.6104
   38MOL   C162 7636   1.138   7.445   6.704  0.2490  0.8379 -0.1128
   38MOL   C163 7637   1.243   7.501   6.598 -0.4326 -0.3826 -0.5763
   38MOL   O164 7638   1.236   7.645   6.606 -0.2794  0.2325 -0.4266
   38MOL   C165 7639   1.142   7.699   6.510 -0.7840  0.1383  0.2277
   38MOL   H166 7640   1.150   7.484   6.805 -1.9070  2.2228 -0.3571
   38MOL   H167 7641   1.045   7.485   6.663 -0.1063 -2.1356 -2.3432
   38MOL   H168 7642   1.211   7.463   6.501  0.6895 -0.7728 -0.8017
   38MOL   H169 7643   1.154   7.807   6.513 -0.6241  0.1374 -0.3948
   38MOL   H170 7644   1.152   7.658   6.410 -0.2141 -1.6913  1.0016
   38MOL   H171 7645   1.037   7.685   6.536 -0.7894 -0.3841 -0.0704
   38MOL   C172 7646   1.387   7.449   6.616 -0.5873  0.0247  0.0579
   38MOL   C173 7647   1.453   7.463   6.755 -0.1473  0.2521  0.1141
   38MOL   O174 7648   1.572   7.380   6.736 -0.2651 -0.1005 -0.3318
   38MOL   C175 7649   1.545   7.250   6.797 -0.1684  0.4210  0.0234
   38MOL   H176 7650   1.447   7.494   6.536  0.7328  0.0791  1.0569
   38MOL   H177 7651   1.392   7.342   6.597 -1.5543  0.2018 -1.2512
   38MOL   H178 7652   1.392   7.423   6.836  0.0771  1.4399  0.8853
   38MOL   H179 7653   1.640   7.197   6.784 -0.1494  0.5030 -0.1729
   38MOL   H180 7654   1.528   7.254   6.905 -1.6343  1.7915 -0.2428
   38MOL   H181 7655   1.480   7.192   6.732  0.2991  1.0471 -1.0091
   38MOL   C182 7656   1.506   7.604   6.790  0.4480  0.2538  0.4364
   38MOL   C183 7657   1.591   7.598   6.923 -0.0175  0.2185  0.2910
   38MOL   O184 7658   1.683   7.703   6.922 -0.0886 -0.2304 -0.5670
   38MOL   C185 7659   1.804   7.655   6.873 -0.4265 -0.1724 -0.0108
   38MOL   H186 7660   1.424   7.677   6.787  0.0604 -0.2012 -0.5728
   38MOL   H187 7661   1.581   7.626   6.714  0.2570 -1.2533 -0.2091
   38MOL   H188 7662   1.634   7.498   6.926 -1.8074 -0.5618  1.3369
   38MOL   H189 7663   1.879   7.734   6.868  1.0097 -1.6219 -2.3897
   38MOL   H190 7664   1.839   7.573   6.935 -1.4943  0.9768  2.1780
   38MOL   H191 7665   1.801   7.617   6.770 -1.7647  1.2930 -0.5514
   38MOL   C192 7666   1.510   7.603   7.056  0.1030  0.7860  0.1022
   38MOL   C193 7667   1.591   7.613   7.184  0.0210  0.3669 -1.1108
   38MOL   O194 7668   1.502   7.595   7.293  0.9168  0.4349 -0.0154
   38MOL   C195 7669   1.559   7.599   7.423  0.2066  0.4730 -0.1846
   38MOL   H196 7670   1.454   7.509   7.049  0.8698  0.2186  1.2630
   38MOL   H197 7671   1.433   7.680   7.055 -0.6966  0.0270  1.1969
   38MOL   H198 7672   1.650   7.704   7.189  0.0301  0.3353 -0.5863
   38MOL   H199 7673   1.611   7.694   7.440 -0.6139  0.6095  1.6445
   38MOL   H200 7674   1.497   7.593   7.512 -1.0491 -1.7787 -1.1701
   38MOL   H201 7675   1.626   7.515   7.440 -0.9373 -0.9103 -2.3712
   38MOL   H202 7676   1.663   7.532   7.195 -1.2163 -0.2063  3.8316
   39MOL     C1 7677   4.432   3.162   0.634  0.6753 -0.0427 -0.3636
   39MOL     C2 7678   4.411   3.313   0.624  0.0313 -0.8567 -0.4028
   39MOL     O3 7679   4.501   3.352   0.520  0.1223 -0.9817 -0.2436
   39MOL     C4 7680   4.630   3.379   0.575  0.8638  0.6941 -0.4799
   39MOL     H5 7681   4.334   3.116   0.652  0.2113  0.9883 -0.1904
   39MOL     H6 7682   4.478   3.116   0.547 -0.8967 -2.1234 -0.1383
   39MOL     H7 7683   4.423   3.360   0.721 -0.3465 -1.9618  0.1964
   39MOL     H8 7684   4.670   3.287   0.619  1.2723 -0.1226 -2.5071
   39MOL     H9 7685   4.715   3.418   0.518 -0.9530  0.6197 -3.3091
   39MOL    H10 7686   4.617   3.436   0.667  0.0878 -0.2773  0.0334
   39MOL    H11 7687   4.494   3.130   0.718  0.6296  2.4147  0.6398
   39MOL    C12 7688   4.272   3.357   0.577 -0.0583 -0.0978  0.3892
   39MOL    C13 7689   4.169   3.338   0.693  0.4987 -0.0257  0.3199
   39MOL    O14 7690   4.195   3.428   0.802  0.4422 -0.0912 -0.1861
   39MOL    C15 7691   4.248   3.369   0.924  0.0243  0.3531 -0.0127
   39MOL    H16 7692   4.240   3.305   0.486 -1.0051  0.6882  0.2716
   39MOL    H17 7693   4.277   3.462   0.549  0.7491 -0.1969  0.1352
   39MOL    H18 7694   4.181   3.235   0.728  2.0073 -0.1539 -0.5411
   39MOL    H19 7695   4.352   3.399   0.935  1.2294 -3.4073 -0.5202
   39MOL    H20 7696   4.188   3.407   1.007  0.8315 -1.0636  1.2330
   39MOL    H21 7697   4.248   3.260   0.920  0.0712  0.3947 -1.6687
   39MOL    C22 7698   4.021   3.346   0.647  0.0550 -0.1642 -0.4513
   39MOL    C23 7699   3.979   3.491   0.606  0.4232  0.1938  0.0997
   39MOL    O24 7700   3.974   3.488   0.469  0.0352 -0.3362 -0.4453
   39MOL    C25 7701   3.998   3.611   0.407 -0.2435 -0.3724 -0.2364
   39MOL    H26 7702   3.952   3.318   0.728  0.1774 -1.1714 -0.6878
   39MOL    H27 7703   3.996   3.274   0.570 -2.8120  0.8556 -0.5616
   39MOL    H28 7704   4.046   3.567   0.646 -0.7425  0.4442  1.6381
   39MOL    H29 7705   4.102   3.640   0.417  0.0121 -0.6958 -1.7931
   39MOL    H30 7706   3.985   3.591   0.301 -0.0263  0.5736 -0.4460
   39MOL    H31 7707   3.936   3.697   0.434 -0.2485 -0.3174 -0.4223
   39MOL    C32 7708   3.839   3.528   0.644  0.1425 -0.6325  0.2011
   39MOL    C33 7709   3.832   3.557   0.802  0.2647 -0.5241 -0.7130
   39MOL    O34 7710   3.895   3.681   0.823  0.2479 -0.5155  0.1889
   39MOL    C35 7711   3.997   3.675   0.927 -0.0956  0.6701  0.5401
   39MOL    H36 7712   3.773   3.447   0.616 -0.5198 -0.4013  1.0488
   39MOL    H37 7713   3.802   3.618   0.594  1.1336 -0.0514  0.4997
   39MOL    H38 7714   3.875   3.468   0.847 -0.2458 -1.1093 -1.3631
   39MOL    H39 7715   3.956   3.637   1.020 -2.8244 -1.1836 -1.3396
   39MOL    H40 7716   4.074   3.601   0.903 -1.7435 -1.0315  0.3729
   39MOL    H41 7717   4.045   3.772   0.931  0.4947  0.3494  1.4393
   39MOL    C42 7718   3.693   3.582   0.865  0.0310  0.6917 -0.0541
   39MOL    C43 7719   3.679   3.533   1.008 -0.0723  0.2521  0.2765
   39MOL    O44 7720   3.548   3.569   1.043 -0.2141 -0.1208  0.2067
   39MOL    C45 7721   3.526   3.704   1.092 -0.3993 -0.0804  0.7784
   39MOL    H46 7722   3.613   3.535   0.808  0.3623 -1.1573  0.9621
   39MOL    H47 7723   3.673   3.689   0.860 -0.5785  0.5349 -1.1906
   39MOL    H48 7724   3.763   3.566   1.069 -1.2060 -0.4820  2.2904
   39MOL    H49 7725   3.553   3.784   1.023  1.6197 -0.5781  0.9600
   39MOL    H50 7726   3.427   3.713   1.136 -0.8676 -1.0520 -0.0571
   39MOL    H51 7727   3.586   3.713   1.183 -0.6304 -0.2031  0.9434
   39MOL    C52 7728   3.682   3.375   1.015  0.6270 -0.2298 -0.3517
   39MOL    C53 7729   3.709   3.314   1.157 -0.0990 -0.0642  0.0311
   39MOL    O54 7730   3.718   3.174   1.121  0.0553 -0.0176 -0.1695
   39MOL    C55 7731   3.602   3.091   1.135  0.0889 -0.2307  0.4024
   39MOL    H56 7732   3.762   3.326   0.960 -0.2950 -1.7952 -0.3159
   39MOL    H57 7733   3.596   3.323   0.973 -1.1751  1.3787  1.2697
   39MOL    H58 7734   3.624   3.336   1.221  0.9265  1.2524  0.9580
   39MOL    H59 7735   3.512   3.142   1.101 -0.4672 -1.0467  0.6524
   39MOL    H60 7736   3.608   3.000   1.075  2.4938 -0.3205  0.7283
   39MOL    H61 7737   3.595   3.068   1.241  0.7654  2.0546  0.9730
   39MOL    C62 7738   3.835   3.354   1.232 -0.2462 -0.2796 -0.3805
   39MOL    C63 7739   3.845   3.294   1.375  0.1749 -0.2007  0.2664
   39MOL    O64 7740   3.970   3.332   1.430 -0.1982 -0.2825 -0.3686
   39MOL    C65 7741   4.079   3.248   1.381  0.2524 -0.7353 -0.1398
   39MOL    H66 7742   3.859   3.460   1.235  1.8769 -0.7658  2.1975
   39MOL    H67 7743   3.913   3.311   1.169 -1.3618 -0.2221 -1.8291
   39MOL    H68 7744   3.826   3.187   1.370  0.6084 -0.2068 -1.3605
   39MOL    H69 7745   4.175   3.285   1.418  0.0946 -0.0085 -0.4588
   39MOL    H70 7746   4.047   3.147   1.407  0.6246 -0.3260  2.0203
   39MOL    H71 7747   4.095   3.249   1.274  2.0568  0.3415  0.1257
   39MOL    C72 7748   3.753   3.356   1.485  0.0750 -0.2710 -0.0343
   39MOL    C73 7749   3.771   3.507   1.517 -0.1392 -0.0092 -0.1829
   39MOL    O74 7750   3.754   3.592   1.397 -0.3577  0.2979  0.1972
   39MOL    C75 7751   3.838   3.711   1.406  0.1412 -0.6282  0.4522
   39MOL    H76 7752   3.753   3.294   1.574 -1.5450  0.6531  0.6282
   39MOL    H77 7753   3.654   3.328   1.448  0.7215  0.6967 -2.6373
   39MOL    H78 7754   3.875   3.513   1.551  0.1753 -2.0005 -0.7334
   39MOL    H79 7755   3.809   3.770   1.493 -3.3198  1.5323 -2.0297
   39MOL    H80 7756   3.946   3.696   1.401  0.2147 -0.5419  1.7631
   39MOL    H81 7757   3.817   3.772   1.319  2.0708 -1.6047 -0.7349
   39MOL    C82 7758   3.684   3.554   1.632 -0.4668 -0.0585  0.1905
   39MOL    C83 7759   3.737   3.519   1.777 -0.3938  0.7969  0.1937
   39MOL    O84 7760   3.800   3.635   1.823 -0.5732  0.6349 -0.2476
   39MOL    C85 7761   3.943   3.627   1.840  0.3614 -0.8034  1.2442
   39MOL    H86 7762   3.582   3.521   1.614 -0.8007  1.5392 -1.0432
   39MOL    H87 7763   3.671   3.662   1.621  1.5718  0.1153 -0.6817
   39MOL    H88 7764   3.800   3.430   1.776 -1.4702  0.0331 -0.6692
   39MOL    H89 7765   3.992   3.607   1.745  3.0394  2.6654  1.8151
   39MOL    H90 7766   3.985   3.725   1.859  1.5556 -0.8910 -0.8013
   39MOL    H91 7767   3.968   3.546   1.909  0.5492 -1.0914  0.8364
   39MOL    C92 7768   3.624   3.495   1.877  0.2492 -0.8457  0.3763
   39MOL    C93 7769   3.524   3.386   1.842 -0.6421  1.0389 -0.3961
   39MOL    O94 7770   3.585   3.259   1.848 -0.1205 -0.1477 -0.5165
   39MOL    C95 7771   3.531   3.150   1.781  0.2548  0.2714  0.0487
   39MOL    H96 7772   3.571   3.589   1.890 -0.5272 -1.0425 -1.1803
   39MOL    H97 7773   3.679   3.476   1.969  1.5347  0.5779 -0.0781
   39MOL    H98 7774   3.473   3.391   1.745 -1.9755 -1.1622  0.1571
   39MOL    H99 7775   3.592   3.063   1.806 -1.8199 -0.1357  4.2998
   39MOL   H100 7776   3.432   3.117   1.816  0.0269  0.2809 -0.5832
   39MOL   H101 7777   3.536   3.148   1.672 -2.0580 -0.4058 -0.0851
   39MOL   C102 7778   3.414   3.369   1.954 -0.2674  0.5944  0.4119
   39MOL   C103 7779   3.323   3.497   1.977 -0.5830 -0.6624 -0.5020
   39MOL   O104 7780   3.186   3.454   1.964 -0.0793  1.0598  0.3949
   39MOL   C105 7781   3.130   3.469   1.834 -0.0181  0.5220 -0.5131
   39MOL   H106 7782   3.461   3.325   2.042 -1.0957  1.9975  1.5693
   39MOL   H107 7783   3.345   3.285   1.940  0.8618 -0.5461  1.4746
   39MOL   H108 7784   3.349   3.570   1.901  1.0195 -0.8158 -0.1205
   39MOL   H109 7785   3.152   3.561   1.780  1.3601  1.9316  2.3120
   39MOL   H110 7786   3.177   3.397   1.767  0.6853 -0.9503  1.5193
   39MOL   H111 7787   3.022   3.465   1.825  0.1065 -1.0532 -1.3573
   39MOL   C112 7788   3.347   3.554   2.121  0.1778  0.0857  0.1001
   39MOL   C113 7789   3.286   3.698   2.133 -0.2841 -0.4348  0.3738
   39MOL   O114 7790   3.291   3.753   2.267  0.4272  0.0076 -0.4205
   39MOL   C115 7791   3.221   3.692   2.370 -0.3041  0.8682 -0.1060
   39MOL   H116 7792   3.450   3.544   2.155  0.4227  0.5829 -0.4867
   39MOL   H117 7793   3.297   3.480   2.184 -1.5789 -0.8704 -2.3281
   39MOL   H118 7794   3.177   3.697   2.124 -0.3888  2.3020  0.9263
   39MOL   H119 7795   3.234   3.756   2.456  1.5031  1.1002 -0.5453
   39MOL   H120 7796   3.114   3.685   2.347 -0.1750  1.6771 -0.9859
   39MOL   H121 7797   3.245   3.586   2.380 -1.4857  0.7041  1.0848
   39MOL   C122 7798   3.361   3.807   2.045  0.6865  0.4665  0.0975
   39MOL   C123 7799   3.287   3.932   2.020  0.1150  0.0367  0.3027
   39MOL   O124 7800   3.363   4.036   1.967  0.1123 -0.4135 -0.1130
   39MOL   C125 7801   3.435   4.114   2.058  0.7074  0.4375  0.6766
   39MOL   H126 7802   3.386   3.755   1.952 -2.6172 -1.3907  0.1805
   39MOL   H127 7803   3.459   3.832   2.085  0.4305 -0.3150  1.2155
   39MOL   H128 7804   3.252   3.969   2.117 -2.6357 -0.1053 -0.5727
   39MOL   H129 7805   3.372   4.192   2.102  0.6136 -0.6332  2.5144
   39MOL   H130 7806   3.466   4.052   2.142 -2.7956 -1.9858  0.2908
   39MOL   H131 7807   3.522   4.158   2.010 -1.0158  1.9367 -1.1438
   39MOL   C132 7808   3.172   3.911   1.917 -0.6297  0.7488  0.4578
   39MOL   C133 7809   3.067   4.029   1.915  0.4155  0.6159  0.3501
   39MOL   O134 7810   2.991   4.020   1.794  0.1070 -0.4877 -0.7060
   39MOL   C135 7811   3.053   4.088   1.695 -0.4506 -0.7299  0.1404
   39MOL   H136 7812   3.132   3.809   1.915  3.3748 -0.9336  0.7727
   39MOL   H137 7813   3.225   3.915   1.822  2.0386  0.1706  1.8625
   39MOL   H138 7814   3.121   4.122   1.923  0.4494  0.6118  0.1740
   39MOL   H139 7815   3.043   4.197   1.702  1.3393 -0.3890 -2.0389
   39MOL   H140 7816   3.160   4.083   1.676 -0.2342  0.2804  1.0194
   39MOL   H141 7817   2.996   4.063   1.606  0.2870 -2.5366  0.1649
   39MOL   C142 7818   2.966   4.021   2.030 -0.0717  0.0283  0.7090
   39MOL   C143 7819   2.863   4.137   2.039  0.1886 -0.3995 -0.1804
   39MOL   O144 7820   2.760   4.118   2.133 -0.0378  0.9157  0.0694
   39MOL   C145 7821   2.668   4.028   2.091 -0.6457 -0.4537  0.6063
   39MOL   H146 7822   3.025   4.036   2.120  0.9717 -1.6237  0.3353
   39MOL   H147 7823   2.916   3.924   2.020 -0.4116  0.4697 -2.3944
   39MOL   H148 7824   2.816   4.148   1.941  0.8874  0.3866 -0.4370
   39MOL   H149 7825   2.585   4.043   2.159 -0.1993  0.1910  1.0240
   39MOL   H150 7826   2.635   4.040   1.988  0.3964  0.1097  0.3229
   39MOL   H151 7827   2.705   3.928   2.115 -0.7521 -0.7087 -0.3034
   39MOL   C152 7828   2.920   4.283   2.069 -0.5295 -0.6590  0.0473
   39MOL   C153 7829   2.820   4.405   2.064  0.3257  1.0588  0.2266
   39MOL   O154 7830   2.901   4.517   2.099 -0.6096 -0.1030 -0.3038
   39MOL   C155 7831   2.906   4.562   2.230 -0.6099 -0.0968  0.0230
   39MOL   H156 7832   3.008   4.312   2.012  0.5443  1.0326  2.4722
   39MOL   H157 7833   2.947   4.278   2.174  1.0004 -1.4060 -0.3724
   39MOL   H158 7834   2.736   4.393   2.133 -0.4298 -0.4149 -0.9178
   39MOL   H159 7835   2.908   4.477   2.298 -1.5618  0.6535  1.0108
   39MOL   H160 7836   2.985   4.635   2.247  0.2994 -0.7607 -1.3326
   39MOL   H161 7837   2.815   4.622   2.238 -0.3557  0.4165 -0.8116
   39MOL   C162 7838   2.769   4.429   1.920  0.9710 -0.1096 -0.2549
   39MOL   C163 7839   2.623   4.382   1.884  0.5289  0.0534  0.4171
   39MOL   O164 7840   2.530   4.468   1.953 -0.0747 -0.2652  0.0339
   39MOL   C165 7841   2.425   4.402   2.021 -0.3133  0.3146  1.1061
   39MOL   H166 7842   2.832   4.375   1.848 -0.1860 -0.5257 -0.9637
   39MOL   H167 7843   2.776   4.536   1.899  1.0782  0.3156  1.8283
   39MOL   H168 7844   2.606   4.279   1.915 -1.0731 -0.0118 -0.6161
   39MOL   H169 7845   2.358   4.480   2.059 -2.8560 -0.2691 -2.0604
   39MOL   H170 7846   2.367   4.340   1.953 -1.2814  1.1169  1.1866
   39MOL   H171 7847   2.456   4.329   2.096 -0.1191 -1.2778 -0.5082
   39MOL   C172 7848   2.585   4.393   1.731 -0.0317 -0.3206 -0.2224
   39MOL   C173 7849   2.617   4.272   1.658 -0.2851 -0.1366  0.6795
   39MOL   O174 7850   2.513   4.184   1.674 -0.3309 -0.2577  0.1414
   39MOL   C175 7851   2.545   4.046   1.689  0.2164 -0.3278  0.5510
   39MOL   H176 7852   2.639   4.480   1.694 -0.5867  1.2748  2.5188
   39MOL   H177 7853   2.481   4.421   1.714 -0.4082  0.4844  3.0640
   39MOL   H178 7854   2.712   4.237   1.700  0.3047 -2.5154 -2.3650
   39MOL   H179 7855   2.607   4.039   1.778 -1.9745 -1.6314  2.0076
   39MOL   H180 7856   2.457   3.984   1.706 -0.6890  0.4789 -1.1188
   39MOL   H181 7857   2.611   4.012   1.609  1.6156  0.1124  1.5005
   39MOL   C182 7858   2.633   4.287   1.505  0.4847  0.2936  0.2315
   39MOL   C183 7859   2.739   4.386   1.465  1.2611  0.2261  0.4376
   39MOL   O184 7860   2.858   4.355   1.525 -0.2392  0.7214  0.5225
   39MOL   C185 7861   2.957   4.456   1.546 -0.1708 -0.2320  0.4611
   39MOL   H186 7862   2.535   4.299   1.459  0.8562  0.5530 -0.5156
   39MOL   H187 7863   2.670   4.191   1.469  0.3728  0.6118 -0.7699
   39MOL   H188 7864   2.709   4.485   1.502  0.6393  0.7777 -1.5013
   39MOL   H189 7865   2.911   4.544   1.592 -0.1804  0.0964 -0.1714
   39MOL   H190 7866   3.032   4.417   1.614 -0.9225 -0.5094  1.1393
   39MOL   H191 7867   3.015   4.493   1.461  1.6874 -2.6249  0.6556
   39MOL   C192 7868   2.733   4.397   1.313 -0.6169  0.3348 -0.7754
   39MOL   C193 7869   2.805   4.525   1.264  0.4539  0.1257  0.7899
   39MOL   O194 7870   2.742   4.552   1.140 -0.0163 -0.1722  0.3501
   39MOL   C195 7871   2.791   4.671   1.083  0.2027  0.5094  0.4302
   39MOL   H196 7872   2.630   4.415   1.281 -0.1052 -0.7669 -3.1419
   39MOL   H197 7873   2.757   4.306   1.258 -0.1436 -1.6840  2.6306
   39MOL   H198 7874   2.914   4.530   1.273  0.7423 -2.1142 -0.9759
   39MOL   H199 7875   2.738   4.692   0.990  0.8923  0.8548  0.1142
   39MOL   H200 7876   2.782   4.760   1.145 -0.4247 -0.5515  1.9131
   39MOL   H201 7877   2.897   4.670   1.058 -0.2139 -1.0180 -1.4309
   39MOL   H202 7878   2.767   4.606   1.326  2.5117  1.8844 -0.1890
   40MOL     C1 7879   1.070   7.163   1.047 -0.5593 -0.5490  0.1130
   40MOL     C2 7880   1.167   7.218   1.152 -0.7095  0.1280  0.7054
   40MOL     O3 7881   1.132   7.354   1.184  0.0570 -0.0344 -0.0848
   40MOL     C4 7882   1.155   7.454   1.089 -0.5171  0.2752  0.3654
   40MOL     H5 7883   1.088   7.058   1.025 -0.0262 -0.8761  2.0036
   40MOL     H6 7884   0.963   7.175   1.061 -0.3376  1.7595  0.0086
   40MOL     H7 7885   1.271   7.205   1.123 -0.1836  0.0738  2.5278
   40MOL     H8 7886   1.135   7.426   0.986 -0.9749  1.7973  0.0320
   40MOL     H9 7887   1.116   7.555   1.101  1.5468  1.1993 -0.4303
   40MOL    H10 7888   1.264   7.455   1.084 -0.3794 -1.6518  2.2454
   40MOL    H11 7889   1.081   7.217   0.953 -0.0064 -0.3633  0.2773
   40MOL    C12 7890   1.154   7.140   1.289  0.2501 -0.0742  0.5513
   40MOL    C13 7891   1.239   7.189   1.407 -0.6377  0.0039 -0.3112
   40MOL    O14 7892   1.161   7.173   1.520  0.4711  0.8605  0.2823
   40MOL    C15 7893   1.103   7.292   1.574 -0.1427 -0.0858  0.0350
   40MOL    H16 7894   1.185   7.040   1.261 -0.2979  0.0928 -0.6899
   40MOL    H17 7895   1.049   7.152   1.318  0.2116  1.2070 -0.0499
   40MOL    H18 7896   1.261   7.294   1.384 -0.0591 -0.5793 -2.6014
   40MOL    H19 7897   1.023   7.267   1.643 -1.0464  2.0473 -0.2025
   40MOL    H20 7898   1.181   7.343   1.632 -0.2656  0.2074 -0.0604
   40MOL    H21 7899   1.058   7.356   1.499  0.8431  0.2389 -0.2858
   40MOL    C22 7900   1.374   7.116   1.423  0.4003 -0.0020 -0.6767
   40MOL    C23 7901   1.481   7.143   1.315  0.2875 -0.1601  0.3333
   40MOL    O24 7902   1.539   7.269   1.363  0.7378 -0.1671 -0.1421
   40MOL    C25 7903   1.636   7.329   1.285 -0.0075 -0.6503 -0.1358
   40MOL    H26 7904   1.344   7.011   1.413  0.6539  0.0147 -1.7149
   40MOL    H27 7905   1.414   7.124   1.524 -3.2388  2.2511  0.6660
   40MOL    H28 7906   1.436   7.158   1.217 -0.9831 -0.6306  0.8382
   40MOL    H29 7907   1.586   7.404   1.223  0.9963  0.5282  0.4618
   40MOL    H30 7908   1.711   7.383   1.342  1.1165  0.5500 -2.6765
   40MOL    H31 7909   1.682   7.262   1.213 -1.0068 -2.3875  0.8058
   40MOL    C32 7910   1.580   7.029   1.304  0.6268 -0.1240  0.1664
   40MOL    C33 7911   1.525   6.899   1.232 -0.5373  1.1807 -0.1152
   40MOL    O34 7912   1.521   6.922   1.098  0.6143 -0.2633  0.1860
   40MOL    C35 7913   1.420   6.865   1.006  0.6331  0.5372 -0.9573
   40MOL    H36 7914   1.587   6.993   1.407  0.1789 -0.0477  0.2232
   40MOL    H37 7915   1.685   7.050   1.280  0.8250  0.4586  1.4896
   40MOL    H38 7916   1.425   6.888   1.274  0.0000  1.0945  1.1707
   40MOL    H39 7917   1.321   6.885   1.045  0.4902  1.3304 -1.6935
   40MOL    H40 7918   1.423   6.904   0.904 -0.9462 -1.5567 -1.8289
   40MOL    H41 7919   1.409   6.757   1.013  0.1864  0.6279 -0.2657
   40MOL    C42 7920   1.604   6.772   1.249  0.0587  0.0273 -0.0573
   40MOL    C43 7921   1.599   6.703   1.391 -0.2574  0.0757 -0.3362
   40MOL    O44 7922   1.469   6.686   1.445  0.2772  0.0938  0.3517
   40MOL    C45 7923   1.381   6.616   1.366  0.4641 -0.0575 -0.8466
   40MOL    H46 7924   1.709   6.793   1.229 -0.2790  0.3777 -1.5866
   40MOL    H47 7925   1.569   6.695   1.180  0.5967 -0.4248  0.1674
   40MOL    H48 7926   1.643   6.760   1.472 -1.1466 -0.7816  0.7734
   40MOL    H49 7927   1.366   6.672   1.274  3.2680  1.5738 -0.3661
   40MOL    H50 7928   1.426   6.518   1.349 -0.2494 -0.8279  1.5762
   40MOL    H51 7929   1.293   6.579   1.419  2.5742 -0.2968  2.6253
   40MOL    C52 7930   1.692   6.574   1.393  0.2781  0.3885  0.5632
   40MOL    C53 7931   1.849   6.593   1.408 -0.3733  0.1633 -0.3293
   40MOL    O54 7932   1.906   6.680   1.314  0.2698  0.6113  0.1452
   40MOL    C55 7933   1.961   6.624   1.193 -0.1012  0.4926 -0.2768
   40MOL    H56 7934   1.672   6.511   1.307  0.3377 -1.1680  1.6632
   40MOL    H57 7935   1.657   6.508   1.472  0.8545 -1.4301 -0.6847
   40MOL    H58 7936   1.891   6.492   1.408 -1.8941 -0.4947  1.0953
   40MOL    H59 7937   1.882   6.589   1.127 -0.9873  3.8608 -1.0584
   40MOL    H60 7938   2.019   6.693   1.133 -0.1469  0.2102 -0.6460
   40MOL    H61 7939   2.020   6.538   1.224 -0.2582  1.1031  1.8119
   40MOL    C62 7940   1.900   6.669   1.535  0.2278 -0.3847 -0.6470
   40MOL    C63 7941   2.003   6.595   1.617 -0.2768  0.5177  0.3115
   40MOL    O64 7942   1.970   6.455   1.646  0.5147 -0.0573 -0.4125
   40MOL    C65 7943   1.859   6.429   1.732 -0.6952 -0.1689 -0.4338
   40MOL    H66 7944   1.819   6.684   1.606  1.1258 -1.4825  0.6419
   40MOL    H67 7945   1.937   6.763   1.493 -0.6747  0.1665 -0.2104
   40MOL    H68 7946   2.003   6.645   1.714 -3.0563  0.8688  0.1851
   40MOL    H69 7947   1.851   6.323   1.757 -1.3040  0.3636  1.7679
   40MOL    H70 7948   1.867   6.483   1.826  1.2907  0.9957 -1.2585
   40MOL    H71 7949   1.758   6.451   1.696 -0.4369  1.6599 -0.0800
   40MOL    C72 7950   2.143   6.599   1.561 -1.0767 -0.1545  0.0764
   40MOL    C73 7951   2.261   6.597   1.662 -0.0406  0.4846 -0.4389
   40MOL    O74 7952   2.376   6.539   1.597  0.3870 -0.1282  0.3143
   40MOL    C75 7953   2.387   6.397   1.613 -0.0252 -0.6578  0.0321
   40MOL    H76 7954   2.152   6.691   1.503 -0.3533 -0.6088 -0.5416
   40MOL    H77 7955   2.157   6.521   1.486  0.2515 -1.8520  2.0455
   40MOL    H78 7956   2.245   6.545   1.756 -0.4398  1.0038 -0.2176
   40MOL    H79 7957   2.466   6.358   1.548 -0.0948  0.5137 -0.7790
   40MOL    H80 7958   2.390   6.361   1.716  0.2339 -0.0604  0.2337
   40MOL    H81 7959   2.302   6.357   1.556 -0.5410  1.2472 -0.5767
   40MOL    C82 7960   2.295   6.742   1.713  0.4454  0.5149  0.4551
   40MOL    C83 7961   2.406   6.735   1.821  0.2792  0.2785 -0.2339
   40MOL    O84 7962   2.467   6.857   1.854  0.0245  0.0197  0.0878
   40MOL    C85 7963   2.541   6.925   1.757  0.7453  0.6246  0.1806
   40MOL    H86 7964   2.209   6.798   1.749  0.6062 -0.2626  2.0747
   40MOL    H87 7965   2.342   6.792   1.628  1.9453 -0.7758  0.5103
   40MOL    H88 7966   2.496   6.681   1.792  0.2854 -0.5676  1.3130
   40MOL    H89 7967   2.635   6.873   1.737 -1.5914 -3.0825 -1.6921
   40MOL    H90 7968   2.485   6.939   1.664 -1.2782 -0.2319  1.2604
   40MOL    H91 7969   2.575   7.025   1.784  1.7656 -0.2510  2.2516
   40MOL    C92 7970   2.349   6.692   1.960 -0.4446 -0.0566  0.0696
   40MOL    C93 7971   2.457   6.639   2.053 -0.6243  0.0380 -0.3213
   40MOL    O94 7972   2.530   6.745   2.118  0.2845  0.3996 -0.1466
   40MOL    C95 7973   2.665   6.733   2.092  0.0679  0.3148 -0.6392
   40MOL    H96 7974   2.284   6.608   1.936  0.0992 -0.7231  0.8849
   40MOL    H97 7975   2.282   6.767   2.001 -2.2646 -2.2063  1.1091
   40MOL    H98 7976   2.521   6.576   1.992  1.1246  1.4874 -0.0483
   40MOL    H99 7977   2.681   6.690   1.993 -1.8689 -0.3387 -0.6935
   40MOL   H100 7978   2.703   6.834   2.109  1.1782 -0.2290  0.1990
   40MOL   H101 7979   2.704   6.667   2.170  5.2170  3.1750 -0.5808
   40MOL   C102 7980   2.410   6.527   2.160 -0.3600 -0.1894  0.5535
   40MOL   C103 7981   2.318   6.581   2.270  0.2865  0.4954  0.5806
   40MOL   O104 7982   2.190   6.601   2.220  0.4335 -0.1428 -0.4985
   40MOL   C105 7983   2.129   6.725   2.246  0.7245 -0.2116 -0.5714
   40MOL   H106 7984   2.501   6.490   2.208  0.8044  0.4045 -1.1485
   40MOL   H107 7985   2.359   6.445   2.110  1.0393 -2.1097  2.1648
   40MOL   H108 7986   2.361   6.676   2.302 -1.6958  1.1527  1.3644
   40MOL   H109 7987   2.026   6.709   2.214  0.4980  0.8807 -0.3999
   40MOL   H110 7988   2.131   6.745   2.353  1.2013 -0.9204 -0.4383
   40MOL   H111 7989   2.166   6.811   2.190 -1.0100  0.7656 -0.2518
   40MOL   C112 7990   2.317   6.479   2.391 -0.1758 -0.8810  0.7086
   40MOL   C113 7991   2.220   6.517   2.510 -0.7262  0.2351 -0.2974
   40MOL   O114 7992   2.203   6.409   2.604  0.0190  0.5908 -0.7247
   40MOL   C115 7993   2.109   6.316   2.567  0.2774  0.3065 -0.2505
   40MOL   H116 7994   2.420   6.469   2.424 -0.3442  0.3484  1.6136
   40MOL   H117 7995   2.293   6.380   2.352  2.1489 -1.2554  0.1538
   40MOL   H118 7996   2.122   6.547   2.473 -1.1584  1.2793  1.6416
   40MOL   H119 7997   2.131   6.268   2.472 -0.0537  1.1681 -0.7618
   40MOL   H120 7998   2.080   6.237   2.637 -0.6734 -0.7993 -1.8426
   40MOL   H121 7999   2.024   6.374   2.532  0.3133  1.0496  0.8626
   40MOL   C122 8000   2.284   6.629   2.592  0.2328  0.2615 -0.1788
   40MOL   C123 8001   2.214   6.655   2.731  0.4000  0.4266 -0.0085
   40MOL   O124 8002   2.286   6.763   2.786 -0.1137  0.0502 -0.7256
   40MOL   C125 8003   2.408   6.735   2.850 -0.2283  0.0964  0.0982
   40MOL   H126 8004   2.271   6.722   2.538 -0.7334  1.0864  1.4531
   40MOL   H127 8005   2.392   6.620   2.605  0.3024  2.3712  0.8988
   40MOL   H128 8006   2.227   6.563   2.788  2.7168  1.4019  1.1109
   40MOL   H129 8007   2.406   6.788   2.945 -0.5295  0.8065 -0.2976
   40MOL   H130 8008   2.418   6.627   2.860 -0.9166  0.0759  0.6756
   40MOL   H131 8009   2.496   6.757   2.790  0.2323  0.3162  0.8524
   40MOL   C132 8010   2.068   6.710   2.722  1.0628 -0.1257  0.1113
   40MOL   C133 8011   2.005   6.732   2.858 -0.6947 -0.0457 -0.2575
   40MOL   O134 8012   1.891   6.815   2.846  0.3849  0.1307  0.1615
   40MOL   C135 8013   1.899   6.942   2.897 -0.5071 -0.4090 -0.0675
   40MOL   H136 8014   2.010   6.638   2.664  2.9136 -2.3180  0.9048
   40MOL   H137 8015   2.070   6.799   2.659  3.2718 -0.6683 -0.6304
   40MOL   H138 8016   2.074   6.794   2.916 -0.1488  2.1178 -3.1074
   40MOL   H139 8017   1.900   6.929   3.005  0.0359 -0.4659 -0.0742
   40MOL   H140 8018   1.991   6.987   2.860  0.2847 -2.8754 -1.2298
   40MOL   H141 8019   1.807   6.987   2.862  2.1437  2.9743 -3.0380
   40MOL   C142 8020   1.972   6.606   2.930 -0.0744 -0.0012  0.0736
   40MOL   C143 8021   1.938   6.610   3.079  0.2415  0.3724  0.0156
   40MOL   O144 8022   1.894   6.482   3.128 -0.6793 -0.0607  0.5925
   40MOL   C145 8023   1.755   6.449   3.120 -0.7112  0.1574 -0.2659
   40MOL   H146 8024   2.059   6.542   2.920 -1.1044 -1.0718 -2.4837
   40MOL   H147 8025   1.895   6.551   2.877 -1.2928  2.1158 -0.4278
   40MOL   H148 8026   1.853   6.678   3.087  0.4063  0.3937  2.0133
   40MOL   H149 8027   1.687   6.532   3.099  0.0207  0.9349  0.4323
   40MOL   H150 8028   1.730   6.363   3.057  1.9942 -0.2833 -0.8216
   40MOL   H151 8029   1.733   6.401   3.215  1.1880  0.6120  0.4201
   40MOL   C152 8030   2.060   6.659   3.167  0.4532 -0.7360 -0.0094
   40MOL   C153 8031   2.039   6.633   3.314 -0.6004 -0.5269 -0.0551
   40MOL   O154 8032   2.136   6.710   3.392 -0.0924  0.1135 -0.1342
   40MOL   C155 8033   2.267   6.645   3.400 -0.1119 -0.6358 -0.2131
   40MOL   H156 8034   2.075   6.766   3.149  0.9070 -1.1510 -2.3266
   40MOL   H157 8035   2.153   6.623   3.124  0.8765  1.6839 -1.2094
   40MOL   H158 8036   2.035   6.526   3.336  2.8412 -0.8296 -0.5928
   40MOL   H159 8037   2.344   6.681   3.332  0.3618  0.4787  0.9014
   40MOL   H160 8038   2.293   6.658   3.505  0.3921  3.1406 -0.7297
   40MOL   H161 8039   2.263   6.538   3.379  0.6854 -0.2296 -2.5365
   40MOL   C162 8040   1.905   6.685   3.374  0.0029 -1.0001  0.1754
   40MOL   C163 8041   1.867   6.839   3.355  0.7379 -0.6177  0.7925
   40MOL   O164 8042   1.726   6.838   3.384 -0.3807  0.3280 -0.0873
   40MOL   C165 8043   1.651   6.843   3.267  0.1741 -0.1458  0.2766
   40MOL   H166 8044   1.895   6.664   3.480  0.2345  1.0695  0.6255
   40MOL   H167 8045   1.830   6.629   3.318 -0.0389  0.0348 -0.8335
   40MOL   H168 8046   1.885   6.865   3.250  0.0300 -0.0094  0.8250
   40MOL   H169 8047   1.665   6.940   3.219  0.2929  0.3475  1.3129
   40MOL   H170 8048   1.673   6.767   3.192  0.7544 -0.9035  1.1978
   40MOL   H171 8049   1.548   6.819   3.294 -0.7084  2.6227 -0.5072
   40MOL   C172 8050   1.944   6.940   3.434  0.3206  0.5406  0.1433
   40MOL   C173 8051   1.918   7.091   3.411 -0.7974  0.7255  0.1090
   40MOL   O174 8052   1.907   7.125   3.271 -0.3873 -0.4964 -0.0278
   40MOL   C175 8053   2.032   7.126   3.204  0.5198 -0.2276  0.1101
   40MOL   H176 8054   2.051   6.934   3.415  0.1268  3.2611 -2.2184
   40MOL   H177 8055   1.931   6.922   3.541  0.0632  1.4677  0.2734
   40MOL   H178 8056   2.006   7.141   3.452  1.2159 -1.8426 -0.9240
   40MOL   H179 8057   2.094   7.037   3.214  0.9990 -0.2040 -2.4530
   40MOL   H180 8058   2.021   7.150   3.099 -2.2058 -0.4166  0.3210
   40MOL   H181 8059   2.093   7.201   3.254 -0.0488  1.1174 -1.1617
   40MOL   C182 8060   1.797   7.150   3.488 -0.6518  0.7762 -0.5760
   40MOL   C183 8061   1.801   7.146   3.637  0.0980 -0.6940 -0.6081
   40MOL   O184 8062   1.880   7.247   3.695 -0.3809  0.3047  0.7369
   40MOL   C185 8063   1.992   7.198   3.754 -0.4294 -0.0777  0.4517
   40MOL   H186 8064   1.712   7.089   3.456 -0.8543  0.5522  0.3509
   40MOL   H187 8065   1.777   7.251   3.452  1.8724  0.8571 -1.7774
   40MOL   H188 8066   1.815   7.042   3.669  2.5929  0.2360  1.4945
   40MOL   H189 8067   1.974   7.112   3.819  0.8460 -0.5518  0.1856
   40MOL   H190 8068   2.063   7.144   3.691  1.5533 -0.4360  2.9405
   40MOL   H191 8069   2.049   7.282   3.793  0.1645 -0.4353  0.3538
   40MOL   C192 8070   1.660   7.157   3.695  0.1800 -0.3676 -0.5363
   40MOL   C193 8071   1.662   7.182   3.849  0.2092  0.0961 -0.0623
   40MOL   O194 8072   1.529   7.166   3.899 -0.3160  0.2096 -0.2965
   40MOL   C195 8073   1.504   7.249   4.012 -0.1903 -0.2157 -0.4970
   40MOL   H196 8074   1.598   7.069   3.678 -0.1302 -0.1295 -0.6513
   40MOL   H197 8075   1.618   7.246   3.648 -0.2968  0.0426  0.6603
   40MOL   H198 8076   1.707   7.276   3.881 -1.2476  0.3687  1.2246
   40MOL   H199 8077   1.515   7.352   3.977  1.6728 -0.3487 -0.3481
   40MOL   H200 8078   1.400   7.238   4.042 -0.6505 -2.6679 -2.7649
   40MOL   H201 8079   1.566   7.228   4.099 -1.2745  0.5769  0.4901
   40MOL   H202 8080   1.720   7.100   3.891  0.4427  1.0939  1.6257
   41MOL     C1 8081   2.035   5.254   7.691 -0.3869  0.6847 -0.1367
   41MOL     C2 8082   2.097   5.263   7.553 -0.0649 -0.7161  0.8809
   41MOL     O3 8083   2.005   5.212   7.464 -0.8603  0.3000 -0.2482
   41MOL     C4 8084   2.061   5.153   7.350  0.1523  0.1136 -0.6104
   41MOL     H5 8085   1.997   5.155   7.716  2.2557 -0.0919  0.9435
   41MOL     H6 8086   2.106   5.282   7.770  0.6495 -2.0137 -0.0620
   41MOL     H7 8087   2.197   5.222   7.547  1.0951  2.1172  0.0758
   41MOL     H8 8088   1.971   5.134   7.292 -0.8683  2.1685  0.2286
   41MOL     H9 8089   2.131   5.220   7.300 -1.2050  0.7879 -1.6355
   41MOL    H10 8090   2.115   5.063   7.381  0.5030  0.3764 -0.4432
   41MOL    H11 8091   1.946   5.316   7.703 -0.4458  0.5809 -0.0337
   41MOL    C12 8092   2.125   5.408   7.507 -0.1175 -0.1310  0.3071
   41MOL    C13 8093   2.236   5.478   7.590  0.1120  0.2559 -0.2461
   41MOL    O14 8094   2.353   5.391   7.595 -0.7944 -1.0656 -0.5872
   41MOL    C15 8095   2.470   5.444   7.656  0.0990  0.3232  0.5804
   41MOL    H16 8096   2.029   5.458   7.522  0.1308  0.0512  1.2613
   41MOL    H17 8097   2.146   5.411   7.400  0.1840 -1.8524  0.2998
   41MOL    H18 8098   2.194   5.487   7.690  0.5602  1.1909 -0.1328
   41MOL    H19 8099   2.539   5.359   7.660  0.6877  0.7242 -0.5031
   41MOL    H20 8100   2.527   5.521   7.604 -0.5879  0.4762  0.0598
   41MOL    H21 8101   2.464   5.481   7.758 -0.3129 -1.7516  1.3291
   41MOL    C22 8102   2.278   5.615   7.538 -0.3465 -0.4379  0.0833
   41MOL    C23 8103   2.157   5.717   7.508  0.6259  0.0853 -0.5633
   41MOL    O24 8104   2.055   5.717   7.610 -0.0773 -0.6739  0.5466
   41MOL    C25 8105   2.089   5.779   7.730  0.0552 -0.1580  0.1224
   41MOL    H26 8106   2.342   5.612   7.451 -1.0860  2.8705 -0.6408
   41MOL    H27 8107   2.338   5.668   7.613  0.0483  0.8819 -1.1378
   41MOL    H28 8108   2.096   5.681   7.425 -0.3696 -1.5791  0.8696
   41MOL    H29 8109   2.050   5.880   7.746 -0.8295 -0.1043 -2.1929
   41MOL    H30 8110   2.055   5.708   7.806  0.5803  0.9697  1.4308
   41MOL    H31 8111   2.198   5.783   7.735  0.2990 -1.8682 -2.6529
   41MOL    C32 8112   2.202   5.858   7.482  0.2148 -0.3139  0.3493
   41MOL    C33 8113   2.297   5.878   7.366 -0.5400 -1.1652  0.9260
   41MOL    O34 8114   2.231   5.809   7.260 -0.1655  0.2861 -0.6129
   41MOL    C35 8115   2.320   5.749   7.175  0.2077 -0.5025  0.0426
   41MOL    H36 8116   2.238   5.914   7.569 -0.2268 -1.3358  1.2024
   41MOL    H37 8117   2.114   5.915   7.455 -0.1619 -1.5998 -1.1795
   41MOL    H38 8118   2.393   5.833   7.393  3.2172  4.1798 -2.4164
   41MOL    H39 8119   2.383   5.824   7.128 -3.6329  1.9458 -1.4237
   41MOL    H40 8120   2.361   5.657   7.216 -0.8181 -1.2596 -0.5856
   41MOL    H41 8121   2.256   5.717   7.092  2.5468  3.0092 -3.2585
   41MOL    C42 8122   2.311   6.026   7.318 -0.2304 -0.8154 -0.8281
   41MOL    C43 8123   2.408   6.102   7.403  0.1767 -0.2668 -0.6537
   41MOL    O44 8124   2.373   6.121   7.541  0.0787  0.1632  0.0297
   41MOL    C45 8125   2.254   6.197   7.571 -0.3115 -0.7773  0.4665
   41MOL    H46 8126   2.215   6.078   7.310 -0.1585  0.4031  4.3805
   41MOL    H47 8127   2.360   6.032   7.221  2.7743 -0.1532  0.6698
   41MOL    H48 8128   2.411   6.203   7.361 -0.0280 -0.6038 -1.4911
   41MOL    H49 8129   2.166   6.153   7.525 -1.3727  1.0785  0.6481
   41MOL    H50 8130   2.231   6.207   7.677  0.0452 -0.1366  0.4926
   41MOL    H51 8131   2.262   6.301   7.538 -4.0555 -0.2739  0.9483
   41MOL    C52 8132   2.546   6.041   7.396 -0.1433 -0.0083  0.3545
   41MOL    C53 8133   2.664   6.136   7.409 -0.2025 -0.1408  0.5076
   41MOL    O54 8134   2.644   6.233   7.316  0.4231 -0.5776 -0.0959
   41MOL    C55 8135   2.750   6.245   7.218 -0.8377  0.0098 -0.6458
   41MOL    H56 8136   2.562   5.988   7.303 -0.7869  0.7481 -0.1915
   41MOL    H57 8137   2.560   5.963   7.471  0.0482  0.5929  0.9533
   41MOL    H58 8138   2.757   6.082   7.393  0.3903  1.1326 -0.4169
   41MOL    H59 8139   2.724   6.328   7.152 -0.3486 -0.4766 -1.4578
   41MOL    H60 8140   2.845   6.263   7.268 -2.2444  0.8341  1.8036
   41MOL    H61 8141   2.761   6.154   7.159  0.4399 -1.2575  1.5242
   41MOL    C62 8142   2.671   6.211   7.546  0.2474  0.1366 -0.1007
   41MOL    C63 8143   2.812   6.265   7.585  0.1865 -0.6118  0.5688
   41MOL    O64 8144   2.795   6.364   7.686 -0.1501  0.2735  0.6518
   41MOL    C65 8145   2.838   6.496   7.657 -0.1656  0.4022  0.0065
   41MOL    H66 8146   2.652   6.141   7.628  1.1875 -0.5013 -0.4156
   41MOL    H67 8147   2.605   6.298   7.542  1.6064  1.3280  2.0120
   41MOL    H68 8148   2.866   6.312   7.503 -1.0608  2.9187  1.6879
   41MOL    H69 8149   2.851   6.551   7.750 -0.7871 -0.2481  0.4867
   41MOL    H70 8150   2.932   6.502   7.602 -0.4878  0.5185 -0.5373
   41MOL    H71 8151   2.760   6.556   7.610  0.1018  1.5281  0.9817
   41MOL    C72 8152   2.903   6.146   7.630  1.4621  0.3632 -0.2798
   41MOL    C73 8153   3.048   6.185   7.624 -0.5007  0.0828 -1.2413
   41MOL    O74 8154   3.124   6.115   7.719 -0.2426 -0.3215 -0.0763
   41MOL    C75 8155   3.141   6.167   0.040  0.3128 -0.0696  0.1315
   41MOL    H76 8156   2.887   6.057   7.568  0.2304  0.8932 -0.7382
   41MOL    H77 8157   2.890   6.106   7.730  0.8756  0.4652 -0.3164
   41MOL    H78 8158   3.069   6.292   7.636 -2.6033  0.6873 -2.7161
   41MOL    H79 8159   3.108   6.270   0.050  0.2886  0.1270 -1.7013
   41MOL    H80 8160   3.083   6.106   0.109  2.3185 -1.1254  0.9180
   41MOL    H81 8161   3.243   6.147   0.070  0.5985  0.4816 -0.4671
   41MOL    C82 8162   3.100   6.140   7.488  0.2947  0.1284 -0.4799
   41MOL    C83 8163   3.238   6.187   7.448  0.8081  0.3303  0.0916
   41MOL    O84 8164   3.222   6.328   7.434 -0.8428  0.2649  0.5357
   41MOL    C85 8165   3.191   6.384   7.310  0.4070 -0.0723  0.2484
   41MOL    H86 8166   3.032   6.177   7.411  0.1314 -0.4538 -0.6208
   41MOL    H87 8167   3.095   6.031   7.482 -2.1269  0.2678 -1.4380
   41MOL    H88 8168   3.268   6.143   7.352 -0.4726  0.5764 -0.4343
   41MOL    H89 8169   3.273   6.365   7.240 -1.6372 -2.4735 -1.5830
   41MOL    H90 8170   3.101   6.351   7.258  0.0353  1.0318  0.1797
   41MOL    H91 8171   3.187   6.492   7.312  2.9501  0.0990 -1.0716
   41MOL    C92 8172   3.347   6.164   7.547 -0.0277  0.5317 -0.2112
   41MOL    C93 8173   3.485   6.204   7.493  0.5935  0.4994  0.8150
   41MOL    O94 8174   3.574   6.231   7.598 -0.1609  0.4286  0.5913
   41MOL    C95 8175   3.549   6.350   7.669 -0.6645  0.9395  0.7510
   41MOL    H96 8176   3.341   6.063   7.586 -0.9770  0.1800 -1.2617
   41MOL    H97 8177   3.325   6.231   7.631 -0.2344 -0.2553  0.3678
   41MOL    H98 8178   3.480   6.286   7.422  3.0303 -0.6267 -0.7162
   41MOL    H99 8179   3.475   6.338   7.748  0.2312 -2.4287  1.1928
   41MOL   H100 8180   3.648   6.359   7.714 -0.7977  1.7242  0.8911
   41MOL   H101 8181   3.528   6.432   7.601 -2.2366 -1.4168 -1.7033
   41MOL   C102 8182   3.553   6.100   7.405  0.2364 -0.1500 -0.8013
   41MOL   C103 8183   3.703   6.118   7.369  0.4604  0.1175 -0.5979
   41MOL   O104 8184   3.752   6.001   7.300 -0.5795  0.0325  0.0450
   41MOL   C105 8185   3.817   5.903   7.383 -0.2758  0.5644 -0.4859
   41MOL   H106 8186   3.493   6.065   7.321  0.2231  0.0018 -0.8558
   41MOL   H107 8187   3.552   6.012   7.469 -4.5750 -0.1164 -0.6492
   41MOL   H108 8188   3.773   6.138   7.451 -0.0644  0.9526 -0.3489
   41MOL   H109 8189   3.830   5.807   7.332  0.8373  0.9257 -0.8773
   41MOL   H110 8190   3.918   5.940   7.396 -0.3602  0.9764 -0.9681
   41MOL   H111 8191   3.774   5.887   7.482  2.7339  1.9222  1.1014
   41MOL   C112 8192   3.712   6.236   7.260  0.3949 -0.1145 -0.6888
   41MOL   C113 8193   3.859   6.246   7.196  0.6469 -0.3967 -0.0947
   41MOL   O114 8194   3.830   6.322   7.080  0.0390 -0.0922  0.0011
   41MOL   C115 8195   3.882   6.268   6.960  0.2914 -0.0939  0.1694
   41MOL   H116 8196   3.685   6.328   7.311  0.5800  0.5487 -1.7789
   41MOL   H117 8197   3.648   6.213   7.175  0.0943 -1.3812 -0.1346
   41MOL   H118 8198   3.886   6.144   7.167 -2.2500 -1.7040  1.6304
   41MOL   H119 8199   3.833   6.324   6.880  4.3522  1.0200 -1.6701
   41MOL   H120 8200   3.990   6.275   6.948  0.4580 -1.0334  1.1213
   41MOL   H121 8201   3.846   6.166   6.946 -0.1104  0.2871 -1.8339
   41MOL   C122 8202   3.966   6.314   7.282  0.0686 -0.0432 -0.3865
   41MOL   C123 8203   4.100   6.229   7.294 -0.3114 -0.3393 -0.8251
   41MOL   O124 8204   4.159   6.205   7.162  0.9155 -0.0312  0.2990
   41MOL   C125 8205   4.163   6.066   7.122  0.4011 -0.4564 -0.1298
   41MOL   H126 8206   3.923   6.350   7.375  0.5990  3.4632 -1.4005
   41MOL   H127 8207   3.989   6.411   7.236  1.2307  0.2424  0.7590
   41MOL   H128 8208   4.072   6.135   7.343  2.3858 -1.3668 -1.1722
   41MOL   H129 8209   4.235   6.016   7.187  0.0921  1.5988  1.8500
   41MOL   H130 8210   4.061   6.029   7.131 -1.2669  3.6867 -0.5859
   41MOL   H131 8211   4.202   6.043   7.023 -1.2101  3.0961 -1.6995
   41MOL   C132 8212   4.197   6.310   7.382 -0.1750  0.2895  0.0491
   41MOL   C133 8213   4.176   6.309   7.538  0.1310 -0.0599 -0.2312
   41MOL   O134 8214   4.181   6.170   7.580  0.0016  0.1266  0.1977
   41MOL   C135 8215   4.065   6.129   7.649 -0.0125 -0.3075 -0.1015
   41MOL   H136 8216   4.203   6.416   7.358 -1.3200  0.5370  0.8005
   41MOL   H137 8217   4.291   6.254   7.389 -0.0569  0.5841  0.9226
   41MOL   H138 8218   4.080   6.357   7.554  1.0884  2.0400 -0.6368
   41MOL   H139 8219   4.077   6.022   7.671  0.0310 -0.1635  0.5801
   41MOL   H140 8220   4.043   6.173   7.746  0.9190  1.3640 -0.6249
   41MOL   H141 8221   3.976   6.137   7.587  0.1582  2.1249 -0.0660
   41MOL   C142 8222   4.294   6.383   7.606  0.1855 -0.3759 -0.5730
   41MOL   C143 8223   4.292   6.379   7.763 -0.3842 -0.7275 -0.1588
   41MOL   O144 8224   4.415   6.424   0.015  0.1630  0.2535 -0.1118
   41MOL   C145 8225   4.526   6.332   0.006  0.0102  0.3637  0.1831
   41MOL   H146 8226   4.302   6.480   7.557  1.8470 -1.1823 -1.9323
   41MOL   H147 8227   4.388   6.340   7.571  0.1195 -1.2480  0.2916
   41MOL   H148 8228   4.292   6.274   7.794  1.5378 -0.7340 -0.1611
   41MOL   H149 8229   4.621   6.379   0.031  2.1695 -2.6088 -2.0583
   41MOL   H150 8230   4.501   6.255   0.080 -1.6276  1.3946  0.7266
   41MOL   H151 8231   4.539   6.282   7.721  0.2709  0.2519  0.2757
   41MOL   C152 8232   4.172   6.457   0.021  0.2724 -0.0661 -0.8547
   41MOL   C153 8233   4.139   6.601   7.774 -0.4684  0.4212  0.2361
   41MOL   O154 8234   4.043   6.653   0.051 -0.4526 -0.0569 -0.4769
   41MOL   C155 8235   3.899   6.639   0.024 -0.2687 -0.4074 -0.2595
   41MOL   H156 8236   4.192   6.463   0.128  0.0439 -2.9439 -0.6142
   41MOL   H157 8237   4.080   6.400   0.011 -0.1145  0.5413 -0.7071
   41MOL   H158 8238   4.096   6.596   7.674  0.2676 -0.2597 -0.0502
   41MOL   H159 8239   3.863   6.699   0.108  0.8302  2.3509 -1.7052
   41MOL   H160 8240   3.861   6.668   7.736 -0.8821 -0.9006 -0.1727
   41MOL   H161 8241   3.888   6.531   0.026 -0.2589 -0.4024  0.1003
   41MOL   C162 8242   4.261   6.694   7.791 -0.0287 -0.4301 -0.6660
   41MOL   C163 8243   4.248   6.824   7.716 -0.0075 -0.0900 -0.6251
   41MOL   O164 8244   4.351   6.907   7.761  0.0136  0.4716  0.6908
   41MOL   C165 8245   4.316   7.022   0.025  0.0203  0.4624  0.3645
   41MOL   H166 8246   4.358   6.658   7.756  0.3731 -0.3653  0.3678
   41MOL   H167 8247   4.285   6.717   0.084  0.5387  0.8366 -1.0728
   41MOL   H168 8248   4.153   6.877   7.729  1.9321  3.9378 -2.1087
   41MOL   H169 8249   4.252   6.990   0.107 -0.2617 -4.6691 -1.6404
   41MOL   H170 8250   4.404   7.072   0.067 -0.6096  1.3118  0.6818
   41MOL   H171 8251   4.264   7.100   7.780 -1.5534 -0.3382  0.6875
   41MOL   C172 8252   4.270   6.817   7.566 -0.5474 -0.0960 -0.4874
   41MOL   C173 8253   4.255   6.954   7.489  0.1771  0.2808  0.0442
   41MOL   O174 8254   4.300   6.948   7.350 -0.6018 -0.0395 -0.3200
   41MOL   C175 8255   4.439   6.963   7.317  0.1542  0.3025  0.3968
   41MOL   H176 8256   4.206   6.746   7.514 -0.6072  1.2926 -2.3598
   41MOL   H177 8257   4.363   6.765   7.540 -1.0250 -0.6445 -1.1460
   41MOL   H178 8258   4.323   7.024   7.538  2.5436 -2.5258  0.8825
   41MOL   H179 8259   4.483   7.035   7.387  0.7796  1.2811 -0.9743
   41MOL   H180 8260   4.482   6.869   7.351 -0.3089  0.4670  1.4729
   41MOL   H181 8261   4.473   6.990   7.217 -0.2050 -0.9563 -0.0687
   41MOL   C182 8262   4.118   7.012   7.476  0.1910 -0.6090  0.1209
   41MOL   C183 8263   4.090   7.145   7.396  0.6831 -0.4715  0.6872
   41MOL   O184 8264   3.950   7.139   7.382  0.0831  0.3052  0.6206
   41MOL   C185 8265   3.893   7.073   7.270  0.3610 -0.0859 -0.0752
   41MOL   H186 8266   4.086   7.023   7.579  0.7529  1.6032  0.0801
   41MOL   H187 8267   4.059   6.931   7.434 -0.8783 -0.2030  0.8282
   41MOL   H188 8268   4.147   7.148   7.303  0.0449  0.5232  0.3142
   41MOL   H189 8269   3.957   6.989   7.243 -0.9054 -0.5474 -1.7243
   41MOL   H190 8270   3.789   7.045   7.283  0.5248 -1.6773 -1.9913
   41MOL   H191 8271   3.895   7.135   7.180  1.1044  1.7337  1.1730
   41MOL   C192 8272   4.133   7.261   7.483  0.2372 -0.8292  0.2042
   41MOL   C193 8273   4.108   7.394   7.411 -0.6496 -0.1112  0.5049
   41MOL   O194 8274   4.155   7.505   7.493  0.6807  0.0088  0.2744
   41MOL   C195 8275   4.126   7.634   7.423 -0.1184  0.0035  0.7034
   41MOL   H196 8276   4.239   7.244   7.503  0.4294  0.0697 -0.0205
   41MOL   H197 8277   4.080   7.270   7.578  0.3388  0.5001  0.1496
   41MOL   H198 8278   4.002   7.414   7.402 -0.8285 -0.5204  1.5822
   41MOL   H199 8279   4.201   7.674   7.355 -1.3351  1.0393 -0.0567
   41MOL   H200 8280   4.034   7.625   7.367  0.8557 -0.4493 -0.8453
   41MOL   H201 8281   4.134   7.711   7.500 -0.3321 -0.5608  1.3017
   41MOL   H202 8282   4.165   7.396   7.318 -0.1619 -0.5934  0.7926
   42MOL     C1 8283   2.841   3.259   3.769  0.3756  0.3130  1.0192
   42MOL     C2 8284   2.831   3.257   3.912  1.0107 -0.3238  0.0054
   42MOL     O3 8285   2.842   3.120   3.957  0.1778 -0.2534 -0.0828
   42MOL     C4 8286   2.725   3.054   3.985 -0.7464 -0.6393  0.3120
   42MOL     H5 8287   2.758   3.206   3.721 -0.3096  0.7306  1.7381
   42MOL     H6 8288   2.810   3.358   3.733 -3.2689 -0.9013  0.5882
   42MOL     H7 8289   2.732   3.294   3.938  1.4095  0.8306 -0.1116
   42MOL     H8 8290   2.749   2.959   4.033  0.1318 -1.0139 -0.8388
   42MOL     H9 8291   2.664   3.108   4.057  0.9143  1.6852  0.0136
   42MOL    H10 8292   2.663   3.029   3.898 -1.0587 -1.3552  0.7275
   42MOL    H11 8293   2.937   3.251   3.717 -0.7340  1.6888 -1.3804
   42MOL    C12 8294   2.950   3.328   3.968 -0.8929  0.2938 -0.1308
   42MOL    C13 8295   2.932   3.385   4.110 -0.1709  0.4627  0.2186
   42MOL    O14 8296   3.058   3.443   4.144  0.1938  0.0239 -0.4597
   42MOL    C15 8297   3.149   3.351   4.202  0.1497  0.1966  0.0600
   42MOL    H16 8298   2.976   3.405   3.896 -3.5161 -0.3627 -1.8353
   42MOL    H17 8299   3.040   3.266   3.972 -0.8246  0.4703  1.6659
   42MOL    H18 8300   2.892   3.318   4.186 -1.1235 -0.9252 -1.4778
   42MOL    H19 8301   3.219   3.324   4.124 -0.8692  2.1211 -1.5690
   42MOL    H20 8302   3.208   3.388   4.285 -0.1239  1.4383 -0.2935
   42MOL    H21 8303   3.101   3.254   4.221 -1.1267  0.7477 -0.2586
   42MOL    C22 8304   2.828   3.504   4.100  0.2254 -0.1494 -0.9160
   42MOL    C23 8305   2.823   3.588   4.228  0.0612 -0.2867  0.1351
   42MOL    O24 8306   2.770   3.716   4.216  0.0976 -0.5579 -0.0394
   42MOL    C25 8307   2.838   3.816   4.140  0.5723  0.8112 -0.8432
   42MOL    H26 8308   2.734   3.469   4.057 -0.2036 -0.1696  0.0334
   42MOL    H27 8309   2.864   3.576   4.027  2.3609  0.1663  0.4014
   42MOL    H28 8310   2.923   3.600   4.271 -0.5151  0.9755  1.1468
   42MOL    H29 8311   2.811   3.830   4.035 -1.6969  1.0633 -0.2599
   42MOL    H30 8312   2.813   3.910   4.190  0.3736  0.6516 -0.6412
   42MOL    H31 8313   2.945   3.801   4.150  0.3406 -1.2973 -1.2208
   42MOL    C32 8314   2.738   3.523   4.338 -0.4952  0.3302 -0.3980
   42MOL    C33 8315   2.719   3.594   4.472  0.2815  1.0925 -0.3790
   42MOL    O34 8316   2.654   3.506   4.562 -0.4641 -0.4271  0.4153
   42MOL    C35 8317   2.567   3.576   4.655 -0.4963  0.2147 -0.4544
   42MOL    H36 8318   2.792   3.434   4.371  1.2089  1.4659 -0.0513
   42MOL    H37 8319   2.648   3.485   4.291 -0.4299  1.1526 -1.2025
   42MOL    H38 8320   2.664   3.686   4.452  1.5061  1.7904 -0.5862
   42MOL    H39 8321   2.525   3.497   4.717 -0.0639  0.6916  0.4580
   42MOL    H40 8322   2.611   3.654   4.718 -2.3943  0.4684  0.5956
   42MOL    H41 8323   2.473   3.608   4.610  0.4296  3.0779 -0.4818
   42MOL    C42 8324   2.851   3.635   4.544 -0.2666  0.0242  0.0945
   42MOL    C43 8325   2.905   3.781   4.516 -0.5707 -0.0676 -0.4251
   42MOL    O44 8326   2.814   3.871   4.579 -0.3135  0.4087 -0.4475
   42MOL    C45 8327   2.765   3.973   4.503 -0.5443 -0.3897 -0.3720
   42MOL    H46 8328   2.921   3.554   4.527 -1.7250 -1.2703  0.0719
   42MOL    H47 8329   2.839   3.626   4.652  0.2327 -0.1464  0.1359
   42MOL    H48 8330   2.903   3.799   4.408 -2.5824 -1.8782 -0.7407
   42MOL    H49 8331   2.853   4.025   4.464 -0.8174  1.2672  1.1645
   42MOL    H50 8332   2.702   3.951   4.417 -0.9482 -3.6214  0.6896
   42MOL    H51 8333   2.719   4.040   4.576  2.4351  1.8805 -0.4582
   42MOL    C52 8334   3.056   3.784   4.573  0.1434  0.1243 -0.2806
   42MOL    C53 8335   3.128   3.923   4.561  0.7270  0.4188  0.9918
   42MOL    O54 8336   3.241   3.931   4.647  0.0069  0.6000  0.0522
   42MOL    C55 8337   3.203   3.991   4.776  0.2490  0.0505  0.5079
   42MOL    H56 8338   3.121   3.713   4.521  0.8944 -0.3459  1.2770
   42MOL    H57 8339   3.045   3.739   4.672 -6.0522 -2.2359 -1.7808
   42MOL    H58 8340   3.059   4.003   4.586 -2.6581 -2.3648  0.9336
   42MOL    H59 8341   3.282   3.967   4.846  1.1466 -1.4122 -0.9806
   42MOL    H60 8342   3.188   4.099   4.778  0.8181  0.2532 -2.9101
   42MOL    H61 8343   3.120   3.944   4.828 -0.9873  1.4581 -0.1283
   42MOL    C62 8344   3.179   3.941   4.415 -0.1441  0.1120 -0.3219
   42MOL    C63 8345   3.191   4.097   4.381  0.1342  0.3440  0.6500
   42MOL    O64 8346   3.065   4.169   4.380 -0.1789 -0.2697 -0.0524
   42MOL    C65 8347   3.000   4.165   4.256 -0.6216  0.3229  0.9288
   42MOL    H66 8348   3.108   3.904   4.342  1.3156 -0.8692 -1.2803
   42MOL    H67 8349   3.267   3.879   4.397 -0.8248 -0.6877 -0.8694
   42MOL    H68 8350   3.226   4.097   4.278 -1.9669 -1.5111 -0.1179
   42MOL    H69 8351   3.057   4.217   4.178  1.1286 -1.0527  1.2654
   42MOL    H70 8352   2.990   4.062   4.221  1.5649  0.2895  0.3206
   42MOL    H71 8353   2.907   4.222   4.265  0.3859  2.4046 -1.3066
   42MOL    C72 8354   3.284   4.179   4.474 -0.0858  0.6787  0.2659
   42MOL    C73 8355   3.300   4.329   4.426 -0.1178 -0.2198  0.3864
   42MOL    O74 8356   3.366   4.421   4.518  0.3520  0.4250  0.0256
   42MOL    C75 8357   3.316   4.411   4.657 -0.6288  0.5003  0.1897
   42MOL    H76 8358   3.378   4.124   4.478 -0.2987  0.3408  0.5774
   42MOL    H77 8359   3.243   4.169   4.574  0.0747  1.1200  0.3796
   42MOL    H78 8360   3.201   4.374   4.428 -0.0087  0.2882 -2.8105
   42MOL    H79 8361   3.351   4.502   4.706  1.2741 -0.0892 -0.0552
   42MOL    H80 8362   3.207   4.415   4.658 -0.5976  1.8366 -0.7361
   42MOL    H81 8363   3.342   4.324   4.716  1.2984  1.1589  0.3523
   42MOL    C82 8364   3.367   4.333   4.285  0.4778 -0.9878 -0.5533
   42MOL    C83 8365   3.356   4.473   4.213  0.5758 -0.1039  0.6733
   42MOL    O84 8366   3.463   4.501   4.118  0.0937  0.1082  0.1365
   42MOL    C85 8367   3.478   4.411   4.011 -0.1192  0.0394  0.2515
   42MOL    H86 8368   3.333   4.258   4.214  0.0650 -1.1724 -0.1708
   42MOL    H87 8369   3.474   4.329   4.304  0.5125 -0.6665 -0.6807
   42MOL    H88 8370   3.389   4.546   4.288 -1.2406  0.8780  0.5437
   42MOL    H89 8371   3.562   4.454   3.956 -0.4050 -0.2050 -0.3826
   42MOL    H90 8372   3.494   4.306   4.035 -3.1055 -0.4903  0.1758
   42MOL    H91 8373   3.401   4.425   3.935 -0.9071 -1.1657  0.8208
   42MOL    C92 8374   3.214   4.498   4.149  0.1653  0.1424  0.3396
   42MOL    C93 8375   3.203   4.636   4.103 -0.5167 -0.1115  0.0844
   42MOL    O94 8376   3.075   4.647   4.036 -0.4645  0.2822 -0.2427
   42MOL    C95 8377   3.084   4.659   3.894 -0.1858 -0.2697 -0.0471
   42MOL    H96 8378   3.133   4.465   4.214 -0.2223  0.0963 -0.1631
   42MOL    H97 8379   3.202   4.433   4.063  1.0619  0.6512 -0.1821
   42MOL    H98 8380   3.291   4.654   4.041  0.6111  1.3297  2.0584
   42MOL    H99 8381   3.137   4.753   3.876  0.3797 -0.5885 -0.0792
   42MOL   H100 8382   3.152   4.591   3.843 -1.6913 -1.3055 -0.7037
   42MOL   H101 8383   2.990   4.676   3.842 -1.3967 -1.0988  1.8031
   42MOL   C102 8384   3.214   4.739   4.223  0.4329 -0.6448 -0.4972
   42MOL   C103 8385   3.138   4.712   4.356 -0.2123  0.3813 -0.0403
   42MOL   O104 8386   3.165   4.817   4.440 -0.2918 -0.7785 -0.1752
   42MOL   C105 8387   3.285   4.805   4.517  0.2795 -0.6678 -0.5642
   42MOL   H106 8388   3.184   4.840   4.197 -0.5216 -0.7480  0.1721
   42MOL   H107 8389   3.320   4.756   4.240  0.2474 -0.5609  0.5858
   42MOL   H108 8390   3.198   4.625   4.381  0.1808  1.3658  2.5620
   42MOL   H109 8391   3.312   4.894   4.574  0.2984  1.2488 -3.4702
   42MOL   H110 8392   3.276   4.716   4.579  0.1728 -0.0782  0.2648
   42MOL   H111 8393   3.366   4.791   4.445  0.3075 -0.4251 -0.5804
   42MOL   C112 8394   2.986   4.693   4.336  0.1828 -0.5412  0.2157
   42MOL   C113 8395   2.913   4.655   4.463 -0.2794 -0.4878  0.0428
   42MOL   O114 8396   2.776   4.624   4.439  0.2113 -0.5843  0.4555
   42MOL   C115 8397   2.692   4.713   4.364  0.6263  0.1590 -0.2063
   42MOL   H116 8398   2.970   4.625   4.253 -1.4577 -0.3417  0.3461
   42MOL   H117 8399   2.942   4.786   4.298  0.4989 -0.4720  0.0142
   42MOL   H118 8400   2.924   4.744   4.526 -2.1222 -0.3698  0.2141
   42MOL   H119 8401   2.685   4.814   4.405  1.9231  0.6724 -1.2274
   42MOL   H120 8402   2.741   4.734   4.269 -0.9178 -0.2996 -1.1269
   42MOL   H121 8403   2.590   4.674   4.357  0.5105  0.2961  0.7424
   42MOL   C122 8404   2.973   4.541   4.529  0.7557  0.9366  0.4404
   42MOL   C123 8405   2.912   4.497   4.662 -0.2466  0.2034 -0.0895
   42MOL   O124 8406   2.956   4.369   4.696 -0.2311  0.4936 -0.8339
   42MOL   C125 8407   2.877   4.266   4.639 -0.2509  0.0771  0.1101
   42MOL   H126 8408   3.080   4.546   4.547  0.8207 -2.1103  1.1680
   42MOL   H127 8409   2.968   4.456   4.461 -1.6193  0.6928  0.8751
   42MOL   H128 8410   2.804   4.487   4.649 -0.1919 -0.7184  0.1049
   42MOL   H129 8411   2.876   4.259   4.530  1.8261 -0.8102  0.1321
   42MOL   H130 8412   2.933   4.180   4.675  1.5176  1.1569 -0.0083
   42MOL   H131 8413   2.774   4.262   4.674 -0.2623  1.3476  0.2233
   42MOL   C132 8414   2.939   4.602   4.770 -0.1669  0.0407 -0.8209
   42MOL   C133 8415   2.898   4.558   4.909 -0.7119 -0.0283 -0.0986
   42MOL   O134 8416   3.009   4.588   4.995  0.4539  0.3752 -0.5120
   42MOL   C135 8417   3.107   4.486   4.977  0.7519  0.5349 -0.2482
   42MOL   H136 8418   2.879   4.690   4.744 -2.4774 -0.7675  1.5599
   42MOL   H137 8419   3.042   4.637   4.762 -0.6740  1.7307 -0.2058
   42MOL   H138 8420   2.866   4.454   4.920 -0.1210 -0.2478 -0.4203
   42MOL   H139 8421   3.070   4.385   4.996 -1.0827  1.4202  1.0127
   42MOL   H140 8422   3.161   4.483   4.883 -1.1607 -1.4128 -1.3307
   42MOL   H141 8423   3.174   4.503   5.062 -0.4263  0.2208  0.7623
   42MOL   C142 8424   2.783   4.631   4.978  0.0702 -0.0009 -0.8273
   42MOL   C143 8425   2.771   4.631   5.128  0.8067 -0.2156  0.3545
   42MOL   O144 8426   2.686   4.736   5.148  0.0321  0.3513 -0.2740
   42MOL   C145 8427   2.735   4.854   5.214 -0.1263 -0.2582 -0.1763
   42MOL   H146 8428   2.691   4.604   4.925 -0.8074  0.9180  0.2145
   42MOL   H147 8429   2.793   4.738   4.961 -1.6216  0.0678 -1.4925
   42MOL   H148 8430   2.865   4.654   5.177 -0.0518 -0.5339  2.2081
   42MOL   H149 8431   2.645   4.897   5.257 -0.0361  2.2315 -2.3398
   42MOL   H150 8432   2.785   4.842   5.310  1.0840  1.7720 -0.5200
   42MOL   H151 8433   2.795   4.914   5.146  0.3984  0.1839  0.6642
   42MOL   C152 8434   2.716   4.499   5.189 -0.1928  0.8098 -0.4710
   42MOL   C153 8435   2.725   4.507   5.336 -0.3171 -0.6270 -0.2230
   42MOL   O154 8436   2.605   4.441   5.393 -0.1092  0.0259  0.1767
   42MOL   C155 8437   2.601   4.298   5.370 -0.5104 -0.0935  0.4535
   42MOL   H156 8438   2.764   4.405   5.160 -0.0710  0.0646  2.0236
   42MOL   H157 8439   2.612   4.488   5.161  0.1399  0.6177 -1.6613
   42MOL   H158 8440   2.719   4.610   5.371 -2.6424 -0.1878 -1.8135
   42MOL   H159 8441   2.494   4.276   5.379 -1.2390  3.2380  0.6322
   42MOL   H160 8442   2.633   4.256   5.275  0.8404 -1.9861  1.7095
   42MOL   H161 8443   2.639   4.229   5.445 -0.7602  2.1588  2.7197
   42MOL   C162 8444   2.857   4.440   5.390 -0.1355  0.3690  0.5745
   42MOL   C163 8445   2.987   4.523   5.383  0.3446 -0.8157  0.5918
   42MOL   O164 8446   2.957   4.664   5.410 -0.2363  0.2548 -0.1166
   42MOL   C165 8447   3.049   4.763   5.365 -0.0251  0.0025 -1.2085
   42MOL   H166 8448   2.873   4.342   5.345  0.4270  0.7052  0.0284
   42MOL   H167 8449   2.842   4.423   5.496  1.1865 -2.0155  0.4053
   42MOL   H168 8450   3.028   4.520   5.282  2.1849  1.0977  1.2324
   42MOL   H169 8451   3.046   4.766   5.256 -3.7096  1.6831 -1.1432
   42MOL   H170 8452   3.036   4.863   5.407 -2.3195 -0.6911 -0.1797
   42MOL   H171 8453   3.145   4.725   5.400 -0.0286  2.0413  1.1650
   42MOL   C172 8454   3.096   4.479   5.480  0.0640 -0.3576  0.4450
   42MOL   C173 8455   3.165   4.342   5.476  0.3380 -0.2160  0.1189
   42MOL   O174 8456   3.084   4.229   5.512 -0.2853 -0.1316  0.8451
   42MOL   C175 8457   3.065   4.213   5.651  0.3478  0.1867  0.2689
   42MOL   H176 8458   3.062   4.497   5.582 -0.8051  0.5551  0.0059
   42MOL   H177 8459   3.184   4.542   5.467  0.7514 -1.5273 -0.6452
   42MOL   H178 8460   3.250   4.352   5.544  0.5716 -0.9948 -0.0594
   42MOL   H179 8461   2.988   4.279   5.691 -0.1187 -0.0544 -0.2140
   42MOL   H180 8462   3.010   4.119   5.663 -0.0066  0.4470  0.6984
   42MOL   H181 8463   3.157   4.220   5.708  2.0069 -1.9103 -2.0110
   42MOL   C182 8464   3.235   4.311   5.337  0.5615  0.4272 -0.3631
   42MOL   C183 8465   3.300   4.171   5.332  0.0147  0.2431 -0.2651
   42MOL   O184 8466   3.379   4.160   5.215 -0.3570 -0.2513  0.1007
   42MOL   C185 8467   3.305   4.095   5.112 -1.0399  0.1812 -0.1445
   42MOL   H186 8468   3.327   4.371   5.330  0.1884  0.8370 -1.9108
   42MOL   H187 8469   3.180   4.337   5.246  1.4152 -0.7594 -1.2304
   42MOL   H188 8470   3.220   4.098   5.338  0.5678 -0.3083  0.3850
   42MOL   H189 8471   3.213   4.151   5.096 -0.6849  0.6484 -0.5463
   42MOL   H190 8472   3.366   4.096   5.022  0.2368 -0.4734  0.6874
   42MOL   H191 8473   3.282   3.991   5.137 -0.1954 -0.7281 -2.9994
   42MOL   C192 8474   3.395   4.129   5.450  1.1661 -0.2671 -0.7022
   42MOL   C193 8475   3.426   3.976   5.446 -0.0049  0.3247 -0.2456
   42MOL   O194 8476   3.304   3.900   5.448  0.7292  0.4864 -0.4481
   42MOL   C195 8477   3.322   3.769   5.499 -0.0828  1.1978 -0.1910
   42MOL   H196 8478   3.347   4.160   5.543 -2.8013 -1.7025 -2.1502
   42MOL   H197 8479   3.487   4.187   5.442  0.7418  0.8084  1.6732
   42MOL   H198 8480   3.480   3.951   5.538  0.9428 -0.8246 -1.0945
   42MOL   H199 8481   3.332   3.787   5.606  1.0770  2.4553 -0.5009
   42MOL   H200 8482   3.234   3.707   5.482  1.0245 -0.2008 -0.9433
   42MOL   H201 8483   3.409   3.718   5.459 -1.1675 -1.0172  0.2019
   42MOL   H202 8484   3.488   3.939   5.364  1.2834  2.8183 -0.4324
   43MOL     C1 8485   2.234   3.172   3.279  0.3416 -0.3085 -0.0512
   43MOL     C2 8486   2.359   3.109   3.326  0.0292 -0.1494 -0.5261
   43MOL     O3 8487   2.437   3.197   3.397 -0.0742 -0.3365 -0.1964
   43MOL     C4 8488   2.500   3.298   3.324  0.2914 -0.4691 -0.1691
   43MOL     H5 8489   2.253   3.250   3.206  0.2361 -0.4663 -0.2468
   43MOL     H6 8490   2.173   3.101   3.223  1.5889  0.1191 -2.0083
   43MOL     H7 8491   2.412   3.070   3.239 -1.7862 -1.8801 -0.8975
   43MOL     H8 8492   2.434   3.384   3.308  2.3351  1.3138  0.6608
   43MOL     H9 8493   2.589   3.332   3.378  0.0710 -0.4327  0.1776
   43MOL    H10 8494   2.548   3.265   3.232  3.6694  2.0509  0.5874
   43MOL    H11 8495   2.185   3.196   3.374 -2.2532  0.5830 -1.5548
   43MOL    C12 8496   2.319   3.000   3.427 -0.5103  0.5304  0.3117
   43MOL    C13 8497   2.411   2.886   3.457  0.1825  0.0044 -0.1108
   43MOL    O14 8498   2.506   2.930   3.554  0.2806  0.1533  0.4808
   43MOL    C15 8499   2.616   2.846   3.574 -0.5771 -0.3314  0.1220
   43MOL    H16 8500   2.231   2.954   3.384  1.0171  0.1066 -2.4701
   43MOL    H17 8501   2.284   3.055   3.515 -1.0880  2.1376 -0.8854
   43MOL    H18 8502   2.472   2.860   3.371 -0.1854 -1.9268  0.1860
   43MOL    H19 8503   2.591   2.757   3.631  1.0798 -0.7717  0.2024
   43MOL    H20 8504   2.637   2.803   3.476  1.5565  0.6169  0.1237
   43MOL    H21 8505   2.698   2.910   3.610 -1.0316  1.8495 -2.5541
   43MOL    C22 8506   2.344   2.756   3.513  0.3071  0.1061  0.3480
   43MOL    C23 8507   2.250   2.683   3.410 -0.0449  0.2986  0.3894
   43MOL    O24 8508   2.309   2.681   3.282 -0.3489  0.1337  0.1359
   43MOL    C25 8509   2.221   2.699   3.175 -0.5743 -0.1226 -0.3221
   43MOL    H26 8510   2.292   2.797   3.599  0.4182  0.7795  0.1000
   43MOL    H27 8511   2.416   2.683   3.550  2.0542  0.4524 -2.1971
   43MOL    H28 8512   2.160   2.743   3.403 -0.0692  0.1485 -0.5707
   43MOL    H29 8513   2.286   2.714   3.089  0.2568 -0.8622  0.1752
   43MOL    H30 8514   2.156   2.614   3.155  0.5954 -1.4330  1.3599
   43MOL    H31 8515   2.172   2.795   3.190  0.0894  0.2660 -0.6293
   43MOL    C32 8516   2.228   2.535   3.457  0.5116 -0.5657  1.1486
   43MOL    C33 8517   2.171   2.511   3.592  0.1814 -0.3359 -0.3754
   43MOL    O34 8518   2.032   2.543   3.583  0.5720 -0.1159 -0.0335
   43MOL    C35 8519   1.992   2.661   3.654  0.1868  0.1445 -0.1163
   43MOL    H36 8520   2.333   2.505   3.454  0.5174 -0.4861  0.4871
   43MOL    H37 8521   2.169   2.475   3.389  2.5476 -1.0206 -0.2823
   43MOL    H38 8522   2.224   2.578   3.660  0.3672 -0.9758  0.1056
   43MOL    H39 8523   1.887   2.681   3.631  0.3399  0.9744 -0.1032
   43MOL    H40 8524   2.003   2.647   3.761 -0.0578  0.1372 -0.0914
   43MOL    H41 8525   2.047   2.749   3.621 -1.2764  1.4830  0.9344
   43MOL    C42 8526   2.186   2.365   3.636 -0.1170  0.2077 -0.0832
   43MOL    C43 8527   2.326   2.314   3.663 -0.0457 -0.4669  0.6811
   43MOL    O44 8528   2.398   2.422   3.729 -0.5905 -0.4238  0.3509
   43MOL    C45 8529   2.538   2.430   3.700 -0.6049  0.2248 -0.1055
   43MOL    H46 8530   2.159   2.300   3.553  2.7291  0.2206 -1.0603
   43MOL    H47 8531   2.118   2.356   3.721 -1.2244 -2.3869 -1.2006
   43MOL    H48 8532   2.386   2.285   3.577 -1.5684  1.1736 -0.9499
   43MOL    H49 8533   2.593   2.501   3.762  1.3715 -0.5921 -0.8839
   43MOL    H50 8534   2.575   2.329   3.713  0.3275  0.6742  0.8272
   43MOL    H51 8535   2.564   2.456   3.597 -0.2370 -2.0388 -0.6158
   43MOL    C52 8536   2.332   2.205   3.764  0.3439  0.2325  0.1130
   43MOL    C53 8537   2.286   2.066   3.706 -0.2497  0.5800 -0.7685
   43MOL    O54 8538   2.355   1.968   3.783 -1.0271  0.8003 -0.6230
   43MOL    C55 8539   2.461   1.896   3.721  0.6966 -0.7998 -0.0090
   43MOL    H56 8540   2.264   2.248   3.838 -2.2433 -0.2865 -1.8948
   43MOL    H57 8541   2.433   2.197   3.805  0.1212  1.7868  1.0236
   43MOL    H58 8542   2.328   2.053   3.607  0.7140  0.1048 -0.3054
   43MOL    H59 8543   2.408   1.840   3.644 -0.0403  0.1450 -0.2019
   43MOL    H60 8544   2.542   1.950   3.672  1.0288 -0.9527  0.3672
   43MOL    H61 8545   2.506   1.825   3.790  0.3981 -0.8620  0.1220
   43MOL    C62 8546   2.140   2.044   3.720  0.5055 -0.2040 -0.0092
   43MOL    C63 8547   2.085   1.913   3.668  1.1406 -0.0556  0.3233
   43MOL    O64 8548   1.949   1.904   3.708 -0.2451  0.0200 -0.0295
   43MOL    C65 8549   1.915   1.848   3.839  0.6740  0.6145  0.3544
   43MOL    H66 8550   2.082   2.117   3.663  0.1242 -0.8765 -0.4888
   43MOL    H67 8551   2.121   2.054   3.827  0.2837  0.3582 -0.1030
   43MOL    H68 8552   2.144   1.833   3.713  1.2653 -0.3630 -0.3720
   43MOL    H69 8553   1.808   1.850   3.858  0.3741  0.9132 -1.2549
   43MOL    H70 8554   1.925   1.741   3.821 -0.0669  0.3997  1.1923
   43MOL    H71 8555   1.977   1.881   3.922  1.3561  1.2036 -0.3720
   43MOL    C72 8556   2.079   1.892   3.517 -0.0758  0.0820 -0.0227
   43MOL    C73 8557   2.022   1.749   3.479  0.1985  0.1489 -0.2448
   43MOL    O74 8558   1.996   1.757   3.341 -0.2537 -0.3691  0.1974
   43MOL    C75 8559   1.877   1.823   3.302 -0.0194  0.4815  0.8382
   43MOL    H76 8560   2.181   1.893   3.478  0.3464  0.4561  1.0840
   43MOL    H77 8561   2.015   1.966   3.469 -0.6050 -0.3170  0.0675
   43MOL    H78 8562   1.931   1.728   3.536  1.3938  0.2711  1.7296
   43MOL    H79 8563   1.857   1.917   3.353  0.7002 -1.1723  4.2937
   43MOL    H80 8564   1.873   1.843   3.195 -0.6059  0.9898  0.9496
   43MOL    H81 8565   1.799   1.751   3.326  1.8229 -2.0765 -0.6216
   43MOL    C82 8566   2.106   1.625   3.508  0.0660 -0.6939 -0.6640
   43MOL    C83 8567   2.058   1.489   3.457 -0.7152  0.8733  0.1511
   43MOL    O84 8568   2.177   1.405   3.449 -0.8274  0.0615 -0.2555
   43MOL    C85 8569   2.164   1.300   3.348 -0.3963  0.0438  0.3063
   43MOL    H86 8570   2.130   1.614   3.614 -2.3316 -1.9490 -0.2240
   43MOL    H87 8571   2.205   1.641   3.464  0.4439  0.0576  0.4316
   43MOL    H88 8572   2.015   1.492   3.357 -0.6432 -0.3350  0.0821
   43MOL    H89 8573   2.071   1.244   3.331  0.2750 -1.4870  1.5489
   43MOL    H90 8574   2.185   1.356   3.257 -0.3354  0.2578  0.4521
   43MOL    H91 8575   2.235   1.221   3.370 -1.3604 -0.7264  0.7367
   43MOL    C92 8576   1.959   1.410   3.547 -0.0660 -0.1914 -0.9372
   43MOL    C93 8577   1.823   1.477   3.573 -0.6998  0.4994 -0.0578
   43MOL    O94 8578   1.749   1.493   3.458  0.4783  0.2750  0.4766
   43MOL    C95 8579   1.634   1.577   3.468  0.3641 -0.2854  0.1453
   43MOL    H96 8580   2.015   1.399   3.640  3.0298  1.6046 -2.5120
   43MOL    H97 8581   1.948   1.304   3.525 -2.1522 -0.0370 -0.6969
   43MOL    H98 8582   1.836   1.569   3.630 -0.3561  0.9325 -0.8308
   43MOL    H99 8583   1.577   1.585   3.375 -3.1327 -0.2333  2.2040
   43MOL   H100 8584   1.558   1.544   3.539 -1.8767  2.4315 -0.9014
   43MOL   H101 8585   1.663   1.679   3.490  0.9503  0.0059 -1.8103
   43MOL   C102 8586   1.739   1.392   3.666 -0.1935  0.0282  0.0617
   43MOL   C103 8587   1.790   1.353   3.810 -0.0216 -0.5548 -0.0639
   43MOL   O104 8588   1.791   1.466   3.901  0.2097  0.1321  0.0242
   43MOL   C105 8589   1.917   1.475   3.971  0.1521 -0.3118 -0.3635
   43MOL   H106 8590   1.715   1.298   3.617 -1.0417 -0.8808  2.1298
   43MOL   H107 8591   1.652   1.452   3.693  1.2026  1.3637  1.7382
   43MOL   H108 8592   1.887   1.305   3.806  0.2269  0.0014 -0.6445
   43MOL   H109 8593   1.898   1.547   4.050 -0.6794  0.1017 -0.9323
   43MOL   H110 8594   1.946   1.389   4.032 -0.5810  1.0228  1.9136
   43MOL   H111 8595   1.996   1.498   3.900  1.4644 -0.4453  1.0169
   43MOL   C112 8596   1.698   1.251   3.873 -0.3377  0.9262 -0.4370
   43MOL   C113 8597   1.553   1.293   3.917 -0.3429 -0.5564  0.4769
   43MOL   O114 8598   1.477   1.273   3.803 -0.4453 -0.7218  0.3144
   43MOL   C115 8599   1.354   1.346   3.806 -0.3030  0.7885 -0.1333
   43MOL   H116 8600   1.756   1.218   3.959  0.8068 -0.3896 -1.6693
   43MOL   H117 8601   1.698   1.157   3.817  0.8766  2.1996 -2.6721
   43MOL   H118 8602   1.557   1.398   3.944 -2.1462 -0.7916  1.7938
   43MOL   H119 8603   1.344   1.426   3.879 -3.5423 -0.9124  1.3422
   43MOL   H120 8604   1.338   1.385   3.705  2.5008  1.4982 -0.3684
   43MOL   H121 8605   1.264   1.287   3.823 -1.0233  1.3615 -1.8100
   43MOL   C122 8606   1.491   1.200   4.028 -0.5661  0.6935  0.2139
   43MOL   C123 8607   1.564   1.171   4.158 -0.0405  0.1306  1.2079
   43MOL   O124 8608   1.670   1.077   4.142 -0.2908  0.3640 -0.0681
   43MOL   C125 8609   1.624   0.944   4.161 -0.1125  0.3014  0.6417
   43MOL   H126 8610   1.462   1.113   3.968 -1.2821  0.3788  1.0051
   43MOL   H127 8611   1.404   1.249   4.071 -1.2426 -0.5725  0.3036
   43MOL   H128 8612   1.488   1.138   4.228  0.7907  0.4425  2.2752
   43MOL   H129 8613   1.597   0.918   4.264 -1.0158  0.2264  0.3921
   43MOL   H130 8614   1.537   0.933   4.095 -0.4261 -1.7632  1.3566
   43MOL   H131 8615   1.700   0.874   4.127  1.9011  2.3871  0.7422
   43MOL   C132 8616   1.626   1.291   4.219  0.3983 -0.2257 -0.0177
   43MOL   C133 8617   1.687   1.269   4.362 -0.3618  0.1198 -0.2901
   43MOL   O134 8618   1.748   1.379   4.419  0.1615 -0.2076  0.8520
   43MOL   C135 8619   1.857   1.451   4.353  0.4502  0.6599 -0.1656
   43MOL   H136 8620   1.548   1.367   4.225  0.7624  0.2170 -0.8767
   43MOL   H137 8621   1.701   1.336   4.154  1.2121 -1.7031 -0.1126
   43MOL   H138 8622   1.773   1.204   4.344 -0.0616 -0.2646  2.3574
   43MOL   H139 8623   1.943   1.417   4.409  2.0701  2.8838 -1.2564
   43MOL   H140 8624   1.869   1.430   4.246  0.0799  3.2338 -0.7412
   43MOL   H141 8625   1.838   1.557   4.371  0.0253  0.5288  0.1703
   43MOL   C142 8626   1.612   1.204   4.477  0.1549 -0.2918 -0.4598
   43MOL   C143 8627   1.484   1.276   4.526 -0.4227  0.2016 -0.1647
   43MOL   O144 8628   1.398   1.268   4.415 -0.3829 -0.3525 -0.2245
   43MOL   C145 8629   1.280   1.346   4.427  0.5604  0.7482 -0.3852
   43MOL   H146 8630   1.678   1.189   4.562  0.9049  2.1929 -0.5711
   43MOL   H147 8631   1.598   1.103   4.440  2.1454 -0.6760 -0.1965
   43MOL   H148 8632   1.501   1.380   4.555  0.6526 -0.6742  2.5196
   43MOL   H149 8633   1.216   1.319   4.511  0.9535 -0.7890 -0.5540
   43MOL   H150 8634   1.287   1.454   4.428  0.8279  0.7492 -1.2488
   43MOL   H151 8635   1.214   1.322   4.343 -0.2960  2.4627 -0.2075
   43MOL   C152 8636   1.426   1.190   4.641 -0.0630 -0.1146  0.3356
   43MOL   C153 8637   1.514   1.179   4.766  0.0159  0.3685 -0.0317
   43MOL   O154 8638   1.448   1.232   4.880 -0.5463 -0.2342 -0.7526
   43MOL   C155 8639   1.467   1.368   4.929  0.6192  0.4178 -0.3299
   43MOL   H156 8640   1.386   1.092   4.615 -2.3306  1.0206 -0.6287
   43MOL   H157 8641   1.335   1.236   4.680 -1.3047 -1.5037 -0.8600
   43MOL   H158 8642   1.600   1.242   4.743 -0.6979  0.5673 -2.2729
   43MOL   H159 8643   1.390   1.394   5.002  0.6406 -1.3762  0.3620
   43MOL   H160 8644   1.565   1.379   4.975  0.8048 -0.3467 -0.5420
   43MOL   H161 8645   1.458   1.446   4.853  0.4879 -0.1848 -0.9314
   43MOL   C162 8646   1.558   1.038   4.794 -0.1717  0.9575  0.5914
   43MOL   C163 8647   1.684   1.038   4.881  0.5840  0.2491 -0.2254
   43MOL   O164 8648   1.690   0.911   4.941 -0.0136 -0.5179  0.5612
   43MOL   C165 8649   1.779   0.899   5.048  0.4145 -0.3209  0.2659
   43MOL   H166 8650   1.583   0.987   4.701  0.8756 -0.4876  1.6474
   43MOL   H167 8651   1.496   0.968   4.850  1.3456 -0.3699  0.6644
   43MOL   H168 8652   1.673   1.111   4.962  1.8351 -2.2213  2.2768
   43MOL   H169 8653   1.772   0.797   5.086  1.5151  0.3752  2.4324
   43MOL   H170 8654   1.882   0.920   5.019  0.7380 -0.3191  1.3770
   43MOL   H171 8655   1.759   0.965   5.133  0.3991  0.2641 -0.1940
   43MOL   C172 8656   1.812   1.076   4.810  0.5490  0.2131 -0.5754
   43MOL   C173 8657   1.861   1.004   4.688  0.1503  0.4422 -0.3449
   43MOL   O174 8658   1.988   1.051   4.652  0.2330 -0.3947  0.1627
   43MOL   C175 8659   1.994   1.137   4.539  0.3719 -0.6607  0.8185
   43MOL   H176 8660   1.899   1.091   4.874 -1.1220 -0.1150  1.8569
   43MOL   H177 8661   1.811   1.177   4.770  2.1625 -0.0348 -1.2925
   43MOL   H178 8662   1.791   1.016   4.606 -0.8530 -0.8686  0.2949
   43MOL   H179 8663   2.090   1.168   4.498 -0.6399  0.4730 -0.7924
   43MOL   H180 8664   1.947   1.090   4.452 -3.2534  2.1856  1.1011
   43MOL   H181 8665   1.941   1.232   4.550  1.5675  0.0361  0.6385
   43MOL   C182 8666   1.889   0.853   4.698 -0.1253 -0.1826 -0.1684
   43MOL   C183 8667   1.891   0.778   4.562 -0.1071 -0.2707 -1.1558
   43MOL   O184 8668   1.949   0.648   4.573  0.1428  0.6839  0.3522
   43MOL   C185 8669   2.092   0.638   4.549  0.0118  0.3637  0.9117
   43MOL   H186 8670   1.821   0.797   4.761  0.5855 -0.9583 -0.0777
   43MOL   H187 8671   1.989   0.845   4.741 -0.1086  1.5237  0.1356
   43MOL   H188 8672   1.955   0.843   4.501 -1.0841  0.9625 -0.8848
   43MOL   H189 8673   2.157   0.681   4.625  1.2026 -0.5062  0.3868
   43MOL   H190 8674   2.118   0.533   4.542 -0.5481  0.3157 -0.4848
   43MOL   H191 8675   2.114   0.674   4.449 -2.0484 -1.0364 -0.0828
   43MOL   C192 8676   1.750   0.751   4.517 -0.1368 -0.6496  0.2306
   43MOL   C193 8677   1.738   0.687   4.377 -0.4274  0.6230  0.6213
   43MOL   O194 8678   1.600   0.648   4.358  0.4211  0.3821 -0.2906
   43MOL   C195 8679   1.575   0.559   4.253 -0.3846 -0.1366 -0.0727
   43MOL   H196 8680   1.689   0.841   4.507 -1.4889 -1.3404  2.0138
   43MOL   H197 8681   1.694   0.692   4.589  0.3994 -0.0599  1.1379
   43MOL   H198 8682   1.816   0.611   4.368 -1.4271 -0.1882 -1.5951
   43MOL   H199 8683   1.626   0.464   4.268 -0.3708 -0.1428 -0.1604
   43MOL   H200 8684   1.468   0.540   4.244 -0.6717  1.4972 -0.3211
   43MOL   H201 8685   1.613   0.620   4.170 -0.2028 -0.9619 -0.5956
   43MOL   H202 8686   1.766   0.766   4.308  0.6132 -0.0397  0.2766
   44MOL     C1 8687   0.917   7.630   1.344 -0.1997  0.2372 -0.2846
   44MOL     C2 8688   0.769   7.588   1.368  0.7945 -0.7547  0.4785
   44MOL     O3 8689   0.770   7.533   1.499 -0.3373  0.1784 -0.0071
   44MOL     C4 8690   0.696   7.422   1.524  0.6616 -0.0191  0.6836
   44MOL     H5 8691   0.954   7.685   1.431  1.6654 -0.8850 -0.3581
   44MOL     H6 8692   0.984   7.548   1.321  2.1994  1.7052  1.2960
   44MOL     H7 8693   0.744   7.510   1.296  2.5949 -0.2299 -0.7582
   44MOL     H8 8694   0.751   7.331   1.502  0.0492  0.6438 -4.1339
   44MOL     H9 8695   0.673   7.420   1.631  1.1407 -1.9145  0.7805
   44MOL    H10 8696   0.595   7.425   1.482 -0.3176 -1.3742  2.8527
   44MOL    H11 8697   0.926   7.695   1.257  0.4975 -1.6208 -1.6204
   44MOL    C12 8698   0.681   7.714   1.369  0.2931 -0.2930  0.8758
   44MOL    C13 8699   0.529   7.698   1.365 -0.3004 -0.0546  0.7149
   44MOL    O14 8700   0.475   0.018   1.391 -0.3398 -0.3121  0.5954
   44MOL    C15 8701   0.343   0.021   1.446 -0.1040 -0.0123  0.0754
   44MOL    H16 8702   0.712   7.777   1.285 -1.8995 -1.6524 -1.0144
   44MOL    H17 8703   0.710   7.775   1.454 -1.1562  1.0788  0.4096
   44MOL    H18 8704   0.510   7.637   1.453 -0.9611 -0.4045  0.3363
   44MOL    H19 8705   0.267   7.802   1.374  0.7887  0.9502 -1.2810
   44MOL    H20 8706   0.339   7.777   1.541 -2.7110 -0.3578 -0.1767
   44MOL    H21 8707   0.311   0.121   1.477 -0.3208 -0.4504  1.2941
   44MOL    C22 8708   0.466   7.632   1.243 -0.3239 -0.5605  0.4781
   44MOL    C23 8709   0.484   7.705   1.108  0.6191  0.7333 -0.0603
   44MOL    O24 8710   0.474   7.606   1.012 -0.1744  0.7024  0.3604
   44MOL    C25 8711   0.597   7.570   0.954 -0.1753 -0.3089  0.5870
   44MOL    H26 8712   0.362   7.613   1.270 -1.1786 -0.6474 -2.6741
   44MOL    H27 8713   0.500   7.528   1.237 -0.2216 -0.4699 -0.6431
   44MOL    H28 8714   0.569   7.774   1.106  0.9869  0.2663 -0.4579
   44MOL    H29 8715   0.679   7.563   1.025 -0.1900  0.7645  0.7163
   44MOL    H30 8716   0.600   7.474   0.901  0.6834 -1.3762  2.5068
   44MOL    H31 8717   0.637   7.649   0.891 -0.7224 -0.6462 -0.2035
   44MOL    C32 8718   0.365   7.793   1.074 -0.7235  0.6226 -0.4375
   44MOL    C33 8719   0.357   0.068   0.947 -0.4943  0.5060 -0.3077
   44MOL    O34 8720   0.227   0.131   0.943  0.1609  0.0049 -0.2585
   44MOL    C35 8721   0.136   0.043   0.885  0.0031  0.3473  0.3419
   44MOL    H36 8722   0.353   0.054   1.155  1.1951  0.5629 -0.0812
   44MOL    H37 8723   0.272   7.737   1.088  0.0277 -0.5651 -0.1237
   44MOL    H38 8724   0.367   0.004   0.859 -1.2184 -0.8963  0.6145
   44MOL    H39 8725   0.114   7.768   0.949 -2.0835 -0.5582 -1.5294
   44MOL    H40 8726   0.041   0.096   0.880 -0.3071 -0.1639  0.8041
   44MOL    H41 8727   0.170   0.014   0.786  1.2477  1.7316  0.3495
   44MOL    C42 8728   0.453   0.191   0.953 -0.1275 -0.5042 -0.3695
   44MOL    C43 8729   0.501   0.247   0.819  0.1016  0.1706 -0.5844
   44MOL    O44 8730   0.397   0.335   0.775 -0.5137 -0.2078 -0.2135
   44MOL    C45 8731   0.376   0.317   0.635  0.6508  0.0812 -0.3803
   44MOL    H46 8732   0.537   0.158   1.014 -0.4156  1.5224  1.1988
   44MOL    H47 8733   0.425   0.268   1.025  0.8852  0.3392 -0.8691
   44MOL    H48 8734   0.514   0.163   0.750  3.9539 -0.8932  1.3026
   44MOL    H49 8735   0.472   0.311   0.583  1.3175  0.7004  0.7285
   44MOL    H50 8736   0.327   0.223   0.613 -2.0885  1.5393 -0.6212
   44MOL    H51 8737   0.314   0.397   0.596  0.6976 -0.4735 -1.6079
   44MOL    C52 8738   0.633   0.331   0.833 -0.7063 -0.1035  0.1633
   44MOL    C53 8739   0.761   0.248   0.871 -0.0520 -0.1444  0.3774
   44MOL    O54 8740   0.781   0.150   0.775  0.3044 -0.2883  0.0500
   44MOL    C55 8741   0.888   0.061   0.799  0.4788 -0.3326  1.3688
   44MOL    H56 8742   0.616   0.402   0.914  0.3094 -1.1705  1.3490
   44MOL    H57 8743   0.657   0.382   0.740  0.3327  1.2327  1.1490
   44MOL    H58 8744   0.745   0.194   0.964  2.9137  2.3482  2.4374
   44MOL    H59 8745   0.906   0.037   0.903  1.1649  0.6943  1.4931
   44MOL    H60 8746   0.858   7.777   0.754  0.2630  0.2276  0.3063
   44MOL    H61 8747   0.982   0.102   0.764 -0.0680 -0.0345  0.2095
   44MOL    C62 8748   0.892   0.329   0.884 -0.1964 -0.7645  0.3407
   44MOL    C63 8749   0.966   0.319   1.026 -0.1374  0.5017 -0.5373
   44MOL    O64 8750   1.041   0.199   1.035  0.1336  0.0391 -0.0359
   44MOL    C65 8751   1.056   0.148   1.171 -0.0962  0.3640 -0.0515
   44MOL    H66 8752   0.862   0.433   0.871  0.6228 -0.6213 -0.4093
   44MOL    H67 8753   0.957   0.315   0.798 -0.3795  2.5723 -0.3841
   44MOL    H68 8754   0.889   0.302   1.101 -0.2318  2.4076 -0.1961
   44MOL    H69 8755   0.966   0.163   1.230 -0.5135 -1.0871 -0.2859
   44MOL    H70 8756   1.086   0.043   1.161 -0.1434  0.5226 -2.0764
   44MOL    H71 8757   1.135   0.207   1.217 -1.4430  1.8939  0.3297
   44MOL    C72 8758   1.060   0.435   1.056 -0.2876 -0.4048 -0.0451
   44MOL    C73 8759   0.996   0.578   1.085  0.8148 -0.0382 -0.2405
   44MOL    O74 8760   0.930   0.555   1.208  0.5329 -0.1348 -0.0129
   44MOL    C75 8761   0.814   0.631   1.234  0.0469 -0.7886  0.3325
   44MOL    H76 8762   1.118   0.445   0.965  1.9606  0.5059  1.4557
   44MOL    H77 8763   1.123   0.412   1.142  1.1312 -0.2279 -1.0361
   44MOL    H78 8764   0.921   0.595   1.007  1.2672 -1.1952 -0.9482
   44MOL    H79 8765   0.744   0.620   1.151  0.1213  0.2217  0.1288
   44MOL    H80 8766   0.772   0.598   1.329  2.4628  0.5612  1.9263
   44MOL    H81 8767   0.834   0.737   1.249  2.2644 -1.1547  0.2433
   44MOL    C82 8768   1.103   0.689   1.093  0.6680 -0.8861 -0.2992
   44MOL    C83 8769   1.133   0.764   0.961  0.2685 -0.7164  0.2322
   44MOL    O84 8770   1.208   0.686   0.874 -0.0906 -0.4605  0.2531
   44MOL    C85 8771   1.349   0.697   0.873  0.2947 -0.3828 -0.0817
   44MOL    H86 8772   1.194   0.651   1.141 -0.6152 -2.0425  1.2914
   44MOL    H87 8773   1.060   0.761   1.162  0.4407 -1.0032 -0.3198
   44MOL    H88 8774   1.191   0.849   0.999 -0.4506 -0.4888  0.8218
   44MOL    H89 8775   1.385   0.734   0.969  0.4836 -1.3372  0.2244
   44MOL    H90 8776   1.398   0.600   0.868  0.1661 -0.4342 -0.3556
   44MOL    H91 8777   1.384   0.760   0.791  1.1762 -0.0840  0.5244
   44MOL    C92 8778   1.011   0.808   0.877 -0.7485  0.2712 -0.1949
   44MOL    C93 8779   0.914   0.897   0.958  0.4476 -0.1178 -0.3431
   44MOL    O94 8780   0.982   1.015   1.002 -0.0142 -0.3589  0.0205
   44MOL    C95 8781   0.923   1.085   1.115  0.3551  0.9598  0.1083
   44MOL    H96 8782   0.975   0.715   0.832  1.5223 -0.7466  0.0141
   44MOL    H97 8783   1.062   0.862   0.797 -0.7325  0.0234 -0.3527
   44MOL    H98 8784   0.894   0.848   1.053 -1.1004  1.4428  0.1828
   44MOL    H99 8785   0.815   1.097   1.109  0.1702 -0.8764 -0.8121
   44MOL   H100 8786   0.941   1.032   1.209  0.2198  0.9603  0.1343
   44MOL   H101 8787   0.973   1.181   1.125 -0.2868  1.2139  0.9008
   44MOL   C102 8788   0.780   0.921   0.892 -0.1452 -0.9697  0.4057
   44MOL   C103 8789   0.783   1.008   0.767  0.6853  0.0136  0.3405
   44MOL   O104 8790   0.853   0.938   0.669 -0.4507 -0.2601  0.2514
   44MOL   C105 8791   0.951   1.003   0.596  0.3706 -0.3725  0.1709
   44MOL   H106 8792   0.717   0.967   0.968  2.7767  2.7897  0.6250
   44MOL   H107 8793   0.728   0.828   0.866 -1.9492  0.6496 -1.9510
   44MOL   H108 8794   0.848   1.092   0.794 -1.0461  2.0998 -1.6943
   44MOL   H109 8795   1.034   1.031   0.661 -0.1074 -1.5284  1.3033
   44MOL   H110 8796   0.985   0.932   0.519  1.1349  0.9476 -0.7272
   44MOL   H111 8797   0.913   1.090   0.542 -0.5967 -1.3362 -0.7525
   44MOL   C112 8798   0.643   1.032   0.706 -1.0199 -0.0211 -0.0090
   44MOL   C113 8799   0.544   1.132   0.773  0.2212  0.6058  0.2346
   44MOL   O114 8800   0.588   1.264   0.755  0.2982 -0.4311 -0.2468
   44MOL   C115 8801   0.633   1.323   0.868  0.0846 -0.2911  0.9589
   44MOL   H116 8802   0.587   0.939   0.694 -1.2550  0.0924  0.2034
   44MOL   H117 8803   0.659   1.066   0.603  0.8029 -0.2535  0.1963
   44MOL   H118 8804   0.537   1.109   0.879 -1.2188  0.7637  0.1866
   44MOL   H119 8805   0.545   1.329   0.933  0.7306 -2.2895  2.0421
   44MOL   H120 8806   0.715   1.271   0.917 -0.2723 -0.9804  0.8274
   44MOL   H121 8807   0.666   1.423   0.838  0.0557 -0.2415  1.0892
   44MOL   C122 8808   0.400   1.132   0.716 -0.3671 -0.5027 -0.4426
   44MOL   C123 8809   0.298   1.039   0.780  0.0600 -0.2126  0.4098
   44MOL   O124 8810   0.273   1.055   0.920 -0.0894  0.2073  0.4190
   44MOL   C125 8811   0.228   1.186   0.953  0.8109  0.9430  0.6254
   44MOL   H126 8812   0.414   1.108   0.610  2.5608  0.9711 -0.4550
   44MOL   H127 8813   0.357   1.232   0.721  0.2330 -0.2915  0.7517
   44MOL   H128 8814   0.342   0.940   0.777  1.7606  0.5459 -0.1898
   44MOL   H129 8815   0.183   1.178   1.052 -0.6335  0.5480 -0.0457
   44MOL   H130 8816   0.309   1.258   0.963  1.3306  0.0917  2.9643
   44MOL   H131 8817   0.155   1.230   0.885  0.3173  0.6930  0.9861
   44MOL   C132 8818   0.160   1.029   0.706 -0.8181 -0.0857 -0.0734
   44MOL   C133 8819   0.165   0.975   0.560 -0.5639 -0.5860 -0.2611
   44MOL   O134 8820   0.107   0.846   0.547 -0.0909 -0.2581  0.1255
   44MOL   C135 8821   0.192   0.740   0.594 -0.2639 -0.1785 -0.7025
   44MOL   H136 8822   0.110   1.125   0.701  1.0260  0.9030  0.0327
   44MOL   H137 8823   0.097   0.957   0.758 -0.1460 -1.4603 -1.1105
   44MOL   H138 8824   0.270   0.967   0.531 -0.6214 -1.6606 -0.1784
   44MOL   H139 8825   0.223   0.750   0.698 -1.7996 -2.0916 -0.0272
   44MOL   H140 8826   0.133   0.648   0.593  0.9314 -0.9604  0.1121
   44MOL   H141 8827   0.276   0.718   0.528 -0.5355 -0.1499 -1.0616
   44MOL   C142 8828   0.095   1.073   0.463 -0.1156 -0.0006  0.2271
   44MOL   C143 8829   0.094   1.030   0.315 -0.3814 -0.2329  0.5079
   44MOL   O144 8830   7.800   1.087   0.243  0.0784 -0.5189 -0.6087
   44MOL   C145 8831   7.675   1.027   0.260 -0.2093  0.1139 -0.4849
   44MOL   H146 8832   0.138   1.173   0.472  0.0576  0.0283 -0.9629
   44MOL   H147 8833   7.805   1.091   0.502  0.2005  2.9817 -0.1793
   44MOL   H148 8834   0.086   0.923   0.296  1.4574 -0.1603 -0.8473
   44MOL   H149 8835   7.673   0.950   0.183 -0.3373 -1.2517  0.8354
   44MOL   H150 8836   7.657   0.975   0.355 -0.5275 -1.4296 -1.3770
   44MOL   H151 8837   7.586   1.087   0.239  0.3991  0.3377 -2.5036
   44MOL   C152 8838   0.227   1.057   0.229 -0.8083  0.7053 -0.0009
   44MOL   C153 8839   0.337   0.948   0.213  0.1373  0.6198 -0.2945
   44MOL   O154 8840   0.385   0.907   0.335  0.3639 -0.9745 -0.5047
   44MOL   C155 8841   0.518   0.861   0.337  0.3145 -0.1127 -0.0331
   44MOL   H156 8842   0.265   1.151   0.270 -2.1129  1.3462 -0.2444
   44MOL   H157 8843   0.192   1.082   0.129  1.7879  1.4453 -0.7626
   44MOL   H158 8844   0.415   0.991   0.150 -0.5746  0.4658 -1.3043
   44MOL   H159 8845   0.539   0.808   0.430 -3.1324 -0.1106  0.7998
   44MOL   H160 8846   0.518   0.796   0.249 -1.4102  0.9814 -0.8669
   44MOL   H161 8847   0.585   0.947   0.326  0.9016 -0.4937  0.5283
   44MOL   C162 8848   0.273   0.819   0.159  0.7284  0.3991  0.2918
   44MOL   C163 8849   0.181   0.835   0.034 -0.1297 -0.7122  0.2010
   44MOL   O164 8850   0.261   0.905   7.748  0.3597  0.0077 -0.3468
   44MOL   C165 8851   0.183   0.959   7.643  0.5872 -0.4091  0.2975
   44MOL   H166 8852   0.206   0.779   0.235 -0.4525  0.4828 -0.6907
   44MOL   H167 8853   0.340   0.733   0.152 -0.7116 -0.7094 -0.1354
   44MOL   H168 8854   0.090   0.891   0.053 -0.0431  0.4861 -2.5759
   44MOL   H169 8855   0.101   1.020   7.681 -0.1804 -0.8500 -0.6138
   44MOL   H170 8856   0.239   1.035   7.588  0.1430 -0.5082 -0.3044
   44MOL   H171 8857   0.141   0.888   7.571 -0.4229  2.0535 -1.6115
   44MOL   C172 8858   0.148   0.700   7.778  0.7111  0.1706  0.7136
   44MOL   C173 8859   0.056   0.611   0.056 -0.3055 -0.4057  0.3560
   44MOL   O174 8860   7.751   0.690   0.091 -0.4864 -0.0875 -0.3396
   44MOL   C175 8861   7.687   0.695   0.217  0.0071  0.0659 -0.4476
   44MOL   H176 8862   0.238   0.643   7.756  1.2501  0.1999  2.6902
   44MOL   H177 8863   0.092   0.716   7.686 -0.5397 -0.0791  1.4247
   44MOL   H178 8864   0.105   0.578   0.147 -0.8875 -0.6005  0.5965
   44MOL   H179 8865   7.740   0.763   0.285 -1.1147  0.3586  0.1508
   44MOL   H180 8866   7.583   0.728   0.219  0.4572  1.4925  1.2439
   44MOL   H181 8867   7.672   0.598   0.265  0.1763  0.9969  1.5441
   44MOL   C182 8868   0.002   0.495   7.790 -0.5573  1.0165 -0.7175
   44MOL   C183 8869   0.106   0.379   7.755 -0.2561  0.6409 -0.3788
   44MOL   O184 8870   0.169   0.345   0.069 -0.0358 -0.1002  0.4930
   44MOL   C185 8871   0.267   0.248   0.065 -0.4184  0.4031  0.2072
   44MOL   H186 8872   7.760   0.518   7.698  2.3158  0.5278 -2.5396
   44MOL   H187 8873   7.733   0.456   0.043 -2.5733  3.1737 -1.8491
   44MOL   H188 8874   0.181   0.409   7.682  0.7945 -1.6884 -0.3106
   44MOL   H189 8875   0.336   0.259   7.792  0.0056  0.6674  0.5952
   44MOL   H190 8876   0.339   0.257   0.146 -1.6534 -0.2202  1.3984
   44MOL   H191 8877   0.219   0.150   0.065  0.2144  0.0881 -0.4911
   44MOL   C192 8878   0.025   0.258   7.693 -0.2466 -0.7504 -0.2469
   44MOL   C193 8879   7.729   0.193   7.787  0.7824  0.1530 -0.0528
   44MOL   O194 8880   7.671   0.107   7.694  0.7423  0.8515  0.4975
   44MOL   C195 8881   7.556   0.044   7.758 -0.6787  0.6726  0.4506
   44MOL   H196 8882   0.092   0.179   7.658 -0.0635  0.6637 -3.2262
   44MOL   H197 8883   7.798   0.305   7.603 -1.1139 -1.1881 -0.1211
   44MOL   H198 8884   7.654   0.267   0.006 -1.4491 -0.8367 -2.9419
   44MOL   H199 8885   7.484   0.121   7.787 -1.3158 -0.3721  1.6643
   44MOL   H200 8886   7.523   7.778   7.688 -1.3533 -0.4940  2.0136
   44MOL   H201 8887   7.579   7.802   0.040 -0.1673 -2.1512 -1.2164
   44MOL   H202 8888   7.775   0.150   0.065  1.1540  2.2983  0.8409
   45MOL     C1 8889   3.054   5.272   5.000 -0.4453  0.1492  0.4258
   45MOL     C2 8890   3.086   5.411   4.958 -0.0218 -0.3867 -0.2596
   45MOL     O3 8891   2.972   5.461   4.882  0.5908 -0.1479 -0.6516
   45MOL     C4 8892   3.023   5.558   4.786 -0.5867 -0.9040  0.2243
   45MOL     H5 8893   3.139   5.225   5.050 -0.2254 -0.7090 -0.7462
   45MOL     H6 8894   2.965   5.262   5.063 -0.8257  1.1903  0.0579
   45MOL     H7 8895   3.177   5.413   4.897  0.2526  0.7506  0.1834
   45MOL     H8 8896   3.084   5.517   4.705 -1.3873  0.8391 -1.2957
   45MOL     H9 8897   2.950   5.628   4.743  0.5926  1.2660  1.6661
   45MOL    H10 8898   3.093   5.630   4.827 -2.4999  1.7052 -0.9525
   45MOL    H11 8899   3.033   5.202   4.919 -0.8217  0.0594  0.5996
   45MOL    C12 8900   3.115   5.494   5.078  0.3748 -0.7398 -0.3490
   45MOL    C13 8901   3.251   5.471   5.145 -0.8814 -0.4267  0.0481
   45MOL    O14 8902   3.349   5.546   5.071  0.1265 -0.4749 -0.4456
   45MOL    C15 8903   3.470   5.480   5.034 -1.4063  1.0579  0.2196
   45MOL    H16 8904   3.040   5.486   5.157  2.6656  2.1896  2.2647
   45MOL    H17 8905   3.113   5.600   5.050  0.8024  0.2724  3.1646
   45MOL    H18 8906   3.279   5.365   5.144 -0.7834 -0.4092  0.8329
   45MOL    H19 8907   3.546   5.547   4.992  0.0806 -0.3122  0.6564
   45MOL    H20 8908   3.507   5.445   5.130  1.6287 -0.4934 -1.4297
   45MOL    H21 8909   3.455   5.398   4.963  0.5052  1.9200 -1.2620
   45MOL    C22 8910   3.272   5.516   5.292 -0.1202  0.5395  0.2346
   45MOL    C23 8911   3.182   5.457   5.408  0.2231  0.3529 -0.3487
   45MOL    O24 8912   3.183   5.324   5.368 -0.0919 -0.1036  0.1982
   45MOL    C25 8913   3.054   5.253   5.374  0.0140 -0.2704 -0.1446
   45MOL    H26 8914   3.276   5.625   5.293  1.6128  0.5155 -1.5913
   45MOL    H27 8915   3.378   5.500   5.309  0.0128  1.6721  0.5314
   45MOL    H28 8916   3.083   5.502   5.415  0.1903  0.1981  0.2025
   45MOL    H29 8917   3.053   5.163   5.312 -3.0436 -1.4172  1.4348
   45MOL    H30 8918   3.031   5.228   5.478  0.0686  1.1591  0.2208
   45MOL    H31 8919   2.966   5.308   5.341  0.1636 -0.6481 -1.1787
   45MOL    C32 8920   3.245   5.439   5.552 -1.2187 -0.3101 -0.2014
   45MOL    C33 8921   3.257   5.577   5.629 -0.3500 -0.0067  0.4698
   45MOL    O34 8922   3.131   5.643   5.630 -0.6802  0.5533 -0.4235
   45MOL    C35 8923   3.144   5.785   5.636 -0.2138  0.5245 -0.2561
   45MOL    H36 8924   3.343   5.394   5.538 -0.8772  0.8893 -1.7387
   45MOL    H37 8925   3.191   5.367   5.614 -1.5501 -1.2196 -1.5193
   45MOL    H38 8926   3.315   5.651   5.574 -1.0414  1.6601  1.9045
   45MOL    H39 8927   3.185   5.833   5.547  0.7158 -1.3056 -0.8418
   45MOL    H40 8928   3.047   5.825   5.667 -0.8846 -3.3653  3.0741
   45MOL    H41 8929   3.210   5.808   5.719  1.5409  1.4645 -1.8786
   45MOL    C42 8930   3.308   5.553   5.770  0.3816  0.0180 -0.9013
   45MOL    C43 8931   3.444   5.481   5.788  0.3961  0.1134  0.4307
   45MOL    O44 8932   3.530   5.559   5.698 -0.4058  0.2015 -0.1346
   45MOL    C45 8933   3.631   5.479   5.636  1.0312 -0.3987  0.2250
   45MOL    H46 8934   3.234   5.497   5.829 -1.4398  1.2615 -1.9485
   45MOL    H47 8935   3.313   5.649   5.821  0.3132 -1.6831  2.4698
   45MOL    H48 8936   3.438   5.377   5.753 -0.4530  0.0819  0.6728
   45MOL    H49 8937   3.668   5.411   5.714  1.6137  1.3988  1.5541
   45MOL    H50 8938   3.579   5.432   5.553 -0.3423 -0.7270  1.2370
   45MOL    H51 8939   3.704   5.551   5.600 -0.1746  0.4137 -0.6565
   45MOL    C52 8940   3.500   5.498   5.929 -0.5107  0.0599  0.6658
   45MOL    C53 8941   3.427   5.424   6.046  0.2524  0.0787  0.1773
   45MOL    O54 8942   3.303   5.490   6.064  0.3409  0.2648 -0.3371
   45MOL    C55 8943   3.299   5.614   6.133  0.1463  0.4260  0.0267
   45MOL    H56 8944   3.507   5.606   5.943 -0.5854  0.4458 -1.9583
   45MOL    H57 8945   3.602   5.462   5.939 -0.4403 -0.0356 -0.3230
   45MOL    H58 8946   3.488   5.423   6.137 -0.5516 -0.2288  0.7192
   45MOL    H59 8947   3.193   5.621   6.158  0.1414 -1.6189  0.6652
   45MOL    H60 8948   3.356   5.609   6.226  0.8356  2.4617 -0.2583
   45MOL    H61 8949   3.330   5.691   6.062  0.1427  1.0053  0.6446
   45MOL    C62 8950   3.396   5.274   6.017 -0.1884  0.5210  0.1952
   45MOL    C63 8951   3.504   5.184   5.955 -0.1818  0.4858 -0.0724
   45MOL    O64 8952   3.613   5.173   6.053  0.0170 -0.3572 -0.5256
   45MOL    C65 8953   3.742   5.158   5.989  0.0115 -0.0100 -0.5496
   45MOL    H66 8954   3.315   5.272   5.944  0.1246 -1.1731 -0.1181
   45MOL    H67 8955   3.344   5.236   6.105 -0.1201  0.3063  0.1406
   45MOL    H68 8956   3.542   5.222   5.860 -0.2238  0.2303 -0.1908
   45MOL    H69 8957   3.751   5.066   5.933  0.8037  0.8882 -1.9348
   45MOL    H70 8958   3.763   5.250   5.933 -1.7954  0.7992  0.0651
   45MOL    H71 8959   3.799   5.153   6.082 -0.5841 -0.5080 -0.2104
   45MOL    C72 8960   3.457   5.037   5.940 -0.2485  0.3487 -0.2299
   45MOL    C73 8961   3.410   4.999   5.790  0.0310 -0.8291 -0.6018
   45MOL    O74 8962   3.304   5.084   5.750  0.1569  0.5151 -0.6245
   45MOL    C75 8963   3.171   5.036   5.791  0.0708 -0.2737 -0.1744
   45MOL    H76 8964   3.374   5.020   6.009  0.1812  0.0475  0.2128
   45MOL    H77 8965   3.532   4.966   5.972 -1.1497  0.5672  2.5029
   45MOL    H78 8966   3.388   4.893   5.799  0.5288 -0.7963  1.1973
   45MOL    H79 8967   3.155   4.931   5.768 -0.0981 -0.1116 -0.8158
   45MOL    H80 8968   3.136   5.069   5.889 -1.5274 -1.0484 -0.4720
   45MOL    H81 8969   3.101   5.085   5.723 -0.7391 -0.9968  0.1316
   45MOL    C82 8970   3.529   5.014   5.693  0.0657 -0.1713 -0.3413
   45MOL    C83 8971   3.522   4.936   5.560  0.5079 -0.8766  0.1742
   45MOL    O84 8972   3.533   5.038   5.458  0.1630  0.8540  0.7651
   45MOL    C85 8973   3.404   5.095   5.420 -0.6989  0.2944  0.0585
   45MOL    H86 8974   3.627   4.999   5.738 -0.0577  0.7581  0.2419
   45MOL    H87 8975   3.526   5.120   5.667 -0.3863  0.3218  1.6634
   45MOL    H88 8976   3.425   4.886   5.560  0.0796 -0.0541 -0.6932
   45MOL    H89 8977   3.326   5.019   5.422  1.4983 -2.0636 -1.4287
   45MOL    H90 8978   3.380   5.173   5.492  1.5995 -1.5689  2.9708
   45MOL    H91 8979   3.416   5.148   5.326 -0.9245 -1.0250 -0.7227
   45MOL    C92 8980   3.643   4.848   5.536 -0.7428 -0.1518 -0.5614
   45MOL    C93 8981   3.654   4.791   5.396 -0.4816  0.1765 -0.2637
   45MOL    O94 8982   3.767   4.708   5.407  0.3034  0.2670 -0.1515
   45MOL    C95 8983   3.843   4.693   5.290 -0.4139 -0.1199 -0.2081
   45MOL    H96 8984   3.647   4.773   5.615  0.2023  1.9345  1.4474
   45MOL    H97 8985   3.728   4.915   5.551  0.0678 -1.5119  1.1199
   45MOL    H98 8986   3.664   4.870   5.322 -0.6095  0.3590 -0.0862
   45MOL    H99 8987   3.926   4.627   5.315  1.1085  2.1325  0.7479
   45MOL   H100 8988   3.777   4.648   5.216 -1.4217 -0.7107  1.0208
   45MOL   H101 8989   3.879   4.786   5.247  0.3868  0.7000  2.1711
   45MOL   C102 8990   3.546   4.688   5.359 -0.7205 -0.0161  0.6668
   45MOL   C103 8991   3.492   4.708   5.218 -1.2906  0.3272 -0.0982
   45MOL   O104 8992   3.428   4.579   5.199 -0.0036 -0.1561 -0.2552
   45MOL   C105 8993   3.516   4.479   5.141 -0.6875 -0.1562  0.1644
   45MOL   H106 8994   3.469   4.687   5.437  0.0560 -0.3900  1.4315
   45MOL   H107 8995   3.596   4.593   5.373 -1.5892 -0.1590  3.1258
   45MOL   H108 8996   3.568   4.732   5.143 -0.5292  3.1656  1.5367
   45MOL   H109 8997   3.462   4.449   5.051 -1.3158 -4.0327  1.7753
   45MOL   H110 8998   3.601   4.528   5.094 -1.1886 -1.1408 -1.8274
   45MOL   H111 8999   3.543   4.391   5.198 -0.7059 -0.9773 -1.0668
   45MOL   C112 9000   3.386   4.819   5.216  0.3173 -0.0278 -0.1915
   45MOL   C113 9001   3.309   4.829   5.080 -0.6885 -0.0031 -0.0368
   45MOL   O114 9002   3.217   4.932   5.106  0.3356 -0.1569 -0.0093
   45MOL   C115 9003   3.105   4.945   5.012  0.1629  0.2516 -0.0952
   45MOL   H116 9004   3.423   4.919   5.236  1.9740 -0.3220 -1.5906
   45MOL   H117 9005   3.322   4.809   5.303  2.0939  1.2662  1.2841
   45MOL   H118 9006   3.253   4.736   5.068 -1.5481  0.6141 -0.9253
   45MOL   H119 9007   3.081   4.844   4.978 -1.3558  0.7012 -0.4260
   45MOL   H120 9008   3.023   5.006   5.052 -0.5373  0.4363 -1.7358
   45MOL   H121 9009   3.132   4.983   4.913 -1.4342  0.7176 -0.3835
   45MOL   C122 9010   3.392   4.875   4.951 -0.2201 -0.2865 -0.5468
   45MOL   C123 9011   3.480   5.002   4.971  0.8540 -0.4319  0.6252
   45MOL   O124 9012   3.601   4.962   5.035 -0.3339  1.2923  0.2592
   45MOL   C125 9013   3.679   5.074   5.087  0.6516  0.0519  0.0933
   45MOL   H126 9014   3.323   4.887   4.868 -2.2757 -1.1916  0.9819
   45MOL   H127 9015   3.450   4.785   4.929  0.7543 -0.1151  1.2015
   45MOL   H128 9016   3.422   5.069   5.035  0.3597 -1.3240  1.1165
   45MOL   H129 9017   3.696   5.150   5.011 -0.9384  2.1832  1.8376
   45MOL   H130 9018   3.628   5.124   5.169 -0.8539  0.8852 -1.3214
   45MOL   H131 9019   3.778   5.045   5.123  0.0593 -0.6404  1.1859
   45MOL   C132 9020   3.519   5.074   4.836  0.2315  0.7488 -0.2621
   45MOL   C133 9021   3.619   4.998   4.748 -0.2691  0.0867  0.2950
   45MOL   O134 9022   3.558   4.889   4.690  0.0215 -0.1226  0.2286
   45MOL   C135 9023   3.632   4.768   4.701 -0.0694  0.6296  0.0538
   45MOL   H136 9024   3.545   5.176   4.862  1.0887 -0.1787  2.7914
   45MOL   H137 9025   3.428   5.082   4.777 -1.7671 -0.9838  2.4524
   45MOL   H138 9026   3.705   4.960   4.802  0.7222 -0.0890 -1.3559
   45MOL   H139 9027   3.728   4.774   4.650  0.6140  2.4103  1.4737
   45MOL   H140 9028   3.656   4.728   4.800  1.6750  2.2989  0.3405
   45MOL   H141 9029   3.586   4.693   4.638 -0.7903 -0.1297  1.4729
   45MOL   C142 9030   3.666   5.098   4.641 -0.1770 -0.0544 -0.3517
   45MOL   C143 9031   3.788   5.068   4.553  0.1712 -0.4857 -0.0631
   45MOL   O144 9032   3.766   4.949   4.477 -0.0215  0.2915  0.0144
   45MOL   C145 9033   3.659   4.937   4.385  0.0970  0.5629  0.4944
   45MOL   H146 9034   3.689   5.193   4.689 -0.8021  0.7325 -1.5972
   45MOL   H147 9035   3.585   5.122   4.572  0.1552  2.4698  0.0736
   45MOL   H148 9036   3.866   5.056   4.629  0.1840  2.1826  0.4084
   45MOL   H149 9037   3.561   4.914   4.428 -0.0651 -1.3926 -0.8235
   45MOL   H150 9038   3.648   5.019   4.315 -2.3334 -0.7132 -0.6771
   45MOL   H151 9039   3.677   4.852   4.319  1.8647  1.6612 -0.4624
   45MOL   C152 9040   3.826   5.182   4.465 -0.2882  0.5389  0.2708
   45MOL   C153 9041   3.937   5.139   4.369 -0.0515 -0.2475 -0.1312
   45MOL   O154 9042   3.976   5.255   4.304 -0.5259 -0.0357 -0.1560
   45MOL   C155 9043   3.893   5.282   4.190 -0.5515  0.3801  0.2561
   45MOL   H156 9044   3.857   5.266   4.525  1.4035 -0.2956  0.5841
   45MOL   H157 9045   3.744   5.219   4.403 -1.0105 -2.9221 -1.0061
   45MOL   H158 9046   3.899   5.068   4.296  0.9982 -1.3955  0.4157
   45MOL   H159 9047   3.787   5.278   4.215 -0.7129  0.9967 -0.2853
   45MOL   H160 9048   3.922   5.382   4.157  0.2607  1.3460  3.6902
   45MOL   H161 9049   3.921   5.203   4.120 -0.4229  0.0910  0.6368
   45MOL   C162 9050   4.064   5.069   4.431  0.2762 -0.0595  0.8049
   45MOL   C163 9051   4.158   5.027   4.319 -0.6572  0.4522  0.1700
   45MOL   O164 9052   4.273   5.109   4.343 -0.2136 -0.1524  0.5161
   45MOL   C165 9053   4.261   5.251   4.313  0.2295 -0.5042  0.0613
   45MOL   H166 9054   4.029   4.982   4.486 -0.8109 -0.0412  0.1576
   45MOL   H167 9055   4.108   5.123   4.515  0.2421 -0.2940  0.9738
   45MOL   H168 9056   4.123   5.054   4.219  0.3983 -0.1741 -0.3851
   45MOL   H169 9057   4.190   5.305   4.376  1.6981  3.5264 -1.5560
   45MOL   H170 9058   4.353   5.309   4.321 -1.0914  1.5062  1.3183
   45MOL   H171 9059   4.226   5.262   4.210  0.0390  1.7327  0.3356
   45MOL   C172 9060   4.193   4.876   4.322 -0.5104 -0.3282 -0.6725
   45MOL   C173 9061   4.075   4.791   4.274  0.6990  0.4356  0.1281
   45MOL   O174 9062   4.048   4.822   4.139 -0.0868  0.0716  0.1798
   45MOL   C175 9063   3.915   4.811   4.091 -0.0547  0.6520 -0.3050
   45MOL   H176 9064   4.200   4.843   4.426 -2.0641 -0.9979 -0.7682
   45MOL   H177 9065   4.281   4.844   4.266  0.3022  2.2321 -0.9394
   45MOL   H178 9066   3.987   4.814   4.334 -0.0968 -0.3815 -0.7027
   45MOL   H179 9067   3.913   4.827   3.983  1.4187 -0.6008 -0.5448
   45MOL   H180 9068   3.879   4.713   4.122 -0.6480  0.5466 -1.3078
   45MOL   H181 9069   3.838   4.877   4.130 -1.9686 -2.7787  1.9382
   45MOL   C182 9070   4.099   4.639   4.285 -0.1234  0.1971 -0.8625
   45MOL   C183 9071   4.077   4.561   4.411  0.3575  0.6371 -0.6212
   45MOL   O184 9072   4.159   4.602   4.517  0.3080  0.0376 -0.0249
   45MOL   C185 9073   4.294   4.557   4.510  0.0076  0.9316  0.4394
   45MOL   H186 9074   4.200   4.623   4.247 -0.9023 -0.3757 -2.7432
   45MOL   H187 9075   4.028   4.597   4.214  0.2028 -0.6084 -0.7242
   45MOL   H188 9076   4.083   4.454   4.387  2.0250  0.3227  1.0885
   45MOL   H189 9077   4.285   4.451   4.486 -1.1822  1.1071  0.1046
   45MOL   H190 9078   4.349   4.598   4.425 -1.4883  1.3051 -0.3558
   45MOL   H191 9079   4.350   4.581   4.600  1.5442 -0.3331 -0.1529
   45MOL   C192 9080   3.935   4.587   4.458 -0.2511  0.2325 -0.0548
   45MOL   C193 9081   3.875   4.470   4.543 -0.5124 -0.4892  0.0097
   45MOL   O194 9082   3.740   4.483   4.556 -0.6524 -0.1557 -0.0480
   45MOL   C195 9083   3.683   4.382   4.637 -0.3423 -0.1407 -0.1470
   45MOL   H196 9084   3.863   4.595   4.377 -0.9796 -0.3223  0.5402
   45MOL   H197 9085   3.916   4.680   4.511 -2.0394 -0.2709  0.2069
   45MOL   H198 9086   3.929   4.491   4.636  2.1567  0.5616 -1.7191
   45MOL   H199 9087   3.577   4.372   4.614 -0.1495 -3.5110  0.1742
   45MOL   H200 9088   3.712   4.280   4.611 -3.2523 -1.8601  2.8403
   45MOL   H201 9089   3.712   4.390   4.742  1.3048 -0.8721 -0.5324
   45MOL   H202 9090   3.907   4.375   4.500 -0.7788 -0.5219 -0.1132
   46MOL     C1 9091   2.446   4.719   5.390  0.0836 -0.3945  0.4225
   46MOL     C2 9092   2.351   4.649   5.493 -0.2884 -0.4728  0.1251
   46MOL     O3 9093   2.319   4.736   5.599 -0.3310 -0.3564 -0.4216
   46MOL     C4 9094   2.295   4.664   5.725 -0.1511 -0.1474 -0.0646
   46MOL     H5 9095   2.401   4.813   5.357  1.7207  0.5357  0.8046
   46MOL     H6 9096   2.543   4.732   5.437  0.9317 -0.0001 -1.3954
   46MOL     H7 9097   2.406   4.561   5.524 -0.8536 -1.0985 -0.6524
   46MOL     H8 9098   2.206   4.601   5.725 -0.3561  0.1086 -1.8471
   46MOL     H9 9099   2.380   4.606   5.759 -1.4502 -1.6252  0.7314
   46MOL    H10 9100   2.268   4.741   5.798  1.4217  1.6608 -1.3256
   46MOL    H11 9101   2.463   4.659   5.301  1.1249  2.7803 -1.6196
   46MOL    C12 9102   2.225   4.611   5.421  0.3368 -0.2746 -0.2198
   46MOL    C13 9103   2.135   4.500   5.477 -0.7618 -0.4485 -0.5220
   46MOL    O14 9104   2.042   4.478   5.369 -0.3933  0.1263 -0.1979
   46MOL    C15 9105   1.942   4.578   5.344 -0.0604 -0.1339 -0.0235
   46MOL    H16 9106   2.253   4.573   5.323  0.3094 -1.2540  0.1520
   46MOL    H17 9107   2.171   4.702   5.394 -1.4296 -0.9267  1.0881
   46MOL    H18 9108   2.073   4.536   5.559  1.3702  3.5078 -0.5343
   46MOL    H19 9109   1.978   4.665   5.291 -3.0575  0.3545 -1.3720
   46MOL    H20 9110   1.870   4.532   5.276 -0.1075 -0.3124  0.1440
   46MOL    H21 9111   1.906   4.620   5.438 -0.1128 -0.0354 -0.0866
   46MOL    C22 9112   2.214   4.361   5.502  0.6102  0.1400  0.0199
   46MOL    C23 9113   2.111   4.266   5.558 -0.1534  0.3111 -0.4326
   46MOL    O24 9114   2.126   4.125   5.513 -0.1824  0.2141 -0.2533
   46MOL    C25 9115   2.228   4.045   5.577 -0.3170 -0.1046  0.3512
   46MOL    H26 9116   2.312   4.373   5.548  0.6023  3.3844 -0.7357
   46MOL    H27 9117   2.248   4.331   5.403  0.8856 -2.0784  0.7416
   46MOL    H28 9118   2.011   4.299   5.529 -0.3408  1.5990  1.6388
   46MOL    H29 9119   2.261   3.972   5.503 -1.6608  1.3631 -1.7395
   46MOL    H30 9120   2.317   4.098   5.613 -2.0821  1.9013  1.8963
   46MOL    H31 9121   2.189   3.991   5.664 -2.3089  0.7723  0.0061
   46MOL    C32 9122   2.105   4.276   5.714 -0.0124 -0.4424 -0.1432
   46MOL    C33 9123   1.972   4.215   5.773 -0.5921 -0.5480  0.7379
   46MOL    O34 9124   1.978   4.182   5.912  1.4131 -0.0864  0.9807
   46MOL    C35 9125   2.045   4.067   5.946  0.2220  0.0368  0.4694
   46MOL    H36 9126   2.114   4.374   5.760  2.8693 -0.9795  0.4959
   46MOL    H37 9127   2.192   4.219   5.745  0.0773  0.6947  1.7958
   46MOL    H38 9128   1.967   4.119   5.721 -0.2668  0.0427 -0.4224
   46MOL    H39 9129   2.149   4.054   5.916 -0.1795 -1.0819 -0.5272
   46MOL    H40 9130   2.036   4.068   6.054 -1.5948  0.1995  0.3319
   46MOL    H41 9131   1.982   3.985   5.911 -0.0871  0.7047 -0.5615
   46MOL    C42 9132   1.855   4.312   5.774 -0.0287 -0.1856  0.2551
   46MOL    C43 9133   1.714   4.267   5.827  0.8171  0.1215 -0.2384
   46MOL    O44 9134   1.615   4.360   5.780 -0.0880 -0.0175 -0.3105
   46MOL    C45 9135   1.609   4.484   5.844  0.1473  0.1049 -0.4648
   46MOL    H46 9136   1.835   4.346   5.673  0.2017 -1.3289 -0.1754
   46MOL    H47 9137   1.888   4.403   5.826 -0.5991 -0.3609  0.9338
   46MOL    H48 9138   1.708   4.262   5.935 -2.1896  1.3866 -0.2914
   46MOL    H49 9139   1.625   4.476   5.952 -0.9406  1.5041 -0.1873
   46MOL    H50 9140   1.689   4.543   5.799 -0.0871  0.2816 -0.6482
   46MOL    H51 9141   1.513   4.535   5.833 -1.0446 -2.1126 -0.6133
   46MOL    C52 9142   1.681   4.128   5.776  0.6078  1.1233  0.4997
   46MOL    C53 9143   1.552   4.061   5.815 -0.2654  0.1107 -0.2787
   46MOL    O54 9144   1.552   3.922   5.777 -0.1979  0.2845 -0.1515
   46MOL    C55 9145   1.432   3.868   5.726 -0.1146  0.3342  0.1525
   46MOL    H56 9146   1.759   4.063   5.816 -0.5119 -0.9668 -0.6494
   46MOL    H57 9147   1.700   4.125   5.669 -1.4046  1.2168  0.1260
   46MOL    H58 9148   1.485   4.116   5.748 -1.5959 -0.5830  0.4636
   46MOL    H59 9149   1.340   3.888   5.781 -0.4063 -0.0513 -0.1896
   46MOL    H60 9150   1.417   3.924   5.633 -1.0802  1.6506  1.0783
   46MOL    H61 9151   1.434   3.762   5.701 -0.9244  0.6539 -1.3975
   46MOL    C62 9152   1.503   4.067   5.959  0.1261  0.2941  0.5969
   46MOL    C63 9153   1.434   4.194   6.005 -0.6576 -0.7498 -0.0492
   46MOL    O64 9154   1.306   4.169   5.961 -0.0257  0.2914 -0.4464
   46MOL    C65 9155   1.245   4.275   5.886  0.1788 -0.3134 -0.1885
   46MOL    H66 9156   1.592   4.048   6.019  0.4238 -1.0702 -0.2506
   46MOL    H67 9157   1.441   3.979   5.978  0.0230 -0.1998 -1.8734
   46MOL    H68 9158   1.474   4.282   5.955  2.4382 -0.8519  2.1214
   46MOL    H69 9159   1.292   4.298   5.790 -0.2027  0.6748 -0.1492
   46MOL    H70 9160   1.145   4.235   5.868 -0.2318  0.6637 -0.1396
   46MOL    H71 9161   1.234   4.368   5.942  0.4429  0.4199 -1.3379
   46MOL    C72 9162   1.433   4.224   6.165 -0.3064 -0.2913 -0.0326
   46MOL    C73 9163   1.574   4.253   6.235  0.5113  0.3613  0.4073
   46MOL    O74 9164   1.618   4.379   6.180  0.1443  0.7408 -0.7862
   46MOL    C75 9165   1.754   4.409   6.194  0.1248 -1.0468 -0.0296
   46MOL    H76 9166   1.389   4.137   6.214 -0.6681 -0.8132 -1.2686
   46MOL    H77 9167   1.368   4.309   6.184  1.1122  0.8893 -0.3616
   46MOL    H78 9168   1.632   4.175   6.185  1.0497 -0.3462  2.0930
   46MOL    H79 9169   1.787   4.502   6.148  0.1591 -1.2433 -0.4014
   46MOL    H80 9170   1.769   4.422   6.302 -1.5234 -0.0422  0.0978
   46MOL    H81 9171   1.810   4.323   6.158 -0.2762 -1.0978 -0.5211
   46MOL    C82 9172   1.572   4.250   6.387 -0.2970 -0.3548  0.0533
   46MOL    C83 9173   1.510   4.124   6.447  1.2728  0.1051  0.3609
   46MOL    O84 9174   1.580   4.019   6.388 -0.2207 -0.4628 -0.0142
   46MOL    C85 9175   1.509   3.893   6.386 -0.2426 -0.6540 -0.3408
   46MOL    H86 9176   1.514   4.324   6.443  1.1763 -0.4491  1.7679
   46MOL    H87 9177   1.674   4.259   6.425 -0.8695  2.1472  1.0953
   46MOL    H88 9178   1.406   4.116   6.418  1.0172 -0.2714  1.3452
   46MOL    H89 9179   1.432   3.895   6.309 -0.9752  0.4761  0.4188
   46MOL    H90 9180   1.583   3.820   6.352  0.7675  0.6294 -0.8998
   46MOL    H91 9181   1.479   3.863   6.486  1.9436  1.0535  0.8718
   46MOL    C92 9182   1.517   4.118   6.604 -0.0731  0.1464  0.3105
   46MOL    C93 9183   1.408   4.207   6.669 -0.6190 -0.7898 -0.4173
   46MOL    O94 9184   1.275   4.156   6.644 -0.1549 -0.1112 -0.1236
   46MOL    C95 9185   1.186   4.245   6.576 -0.3930  0.4270  0.3876
   46MOL    H96 9186   1.620   4.147   6.626 -0.5668 -0.8490  4.3782
   46MOL    H97 9187   1.511   4.014   6.635  2.3533 -0.4063 -1.0302
   46MOL    H98 9188   1.411   4.309   6.632  2.3149 -0.5916  0.2593
   46MOL    H99 9189   1.100   4.185   6.545 -0.1778 -1.0243  2.5382
   46MOL   H100 9190   1.153   4.317   6.651  2.0281  0.2769  1.6361
   46MOL   H101 9191   1.227   4.300   6.491 -1.3588 -1.7766 -1.5761
   46MOL   C102 9192   1.423   4.217   6.824  0.0785  0.2000 -0.3239
   46MOL   C103 9193   1.559   4.281   6.877  0.8272  0.5585  0.2076
   46MOL   O104 9194   1.679   4.206   6.852 -0.2482  0.0255 -0.2858
   46MOL   C105 9195   1.677   4.073   6.911  0.4683 -0.7662  0.0105
   46MOL   H106 9196   1.396   4.121   6.868 -0.3969  0.3902 -0.2008
   46MOL   H107 9197   1.339   4.281   6.850 -0.7414 -0.1447 -2.1014
   46MOL   H108 9198   1.554   4.290   6.985 -3.1288  1.4373  0.0335
   46MOL   H109 9199   1.601   4.011   6.864  0.6718 -1.7726  0.9861
   46MOL   H110 9200   1.773   4.025   6.889 -1.0977 -2.5279 -3.3793
   46MOL   H111 9201   1.652   4.068   7.017 -1.6608  0.0320 -0.4439
   46MOL   C112 9202   1.595   4.427   6.833 -0.2517  0.6388  0.6169
   46MOL   C113 9203   1.485   4.534   6.845  0.2265 -0.0672 -0.0827
   46MOL   O114 9204   1.451   4.545   6.984 -0.4043 -0.4903  0.3838
   46MOL   C115 9205   1.319   4.600   7.004 -0.9818  0.4328 -0.2157
   46MOL   H116 9206   1.626   4.416   6.730 -0.3021 -1.0055  0.7636
   46MOL   H117 9207   1.681   4.459   6.893  0.9351 -2.0757  0.4236
   46MOL   H118 9208   1.397   4.499   6.790  0.6038 -1.0240 -0.0849
   46MOL   H119 9209   1.240   4.532   6.972 -1.5029  2.0516 -2.4832
   46MOL   H120 9210   1.305   4.622   7.110  0.5663 -0.5336  0.2214
   46MOL   H121 9211   1.312   4.691   6.944  2.2405  0.2643 -0.9352
   46MOL   C122 9212   1.534   4.678   6.796  0.1765  0.3437  0.1496
   46MOL   C123 9213   1.531   4.686   6.641  0.0827  0.1242 -0.0074
   46MOL   O124 9214   1.406   4.651   6.591 -0.7334  0.1041  0.9097
   46MOL   C125 9215   1.382   4.636   6.453  0.3570 -0.1431  0.4567
   46MOL   H126 9216   1.631   4.707   6.836 -0.1315 -0.5723  1.5685
   46MOL   H127 9217   1.478   4.761   6.837 -0.1195  0.8909 -1.3164
   46MOL   H128 9218   1.604   4.612   6.611 -0.7889  0.1442 -2.2676
   46MOL   H129 9219   1.307   4.557   6.447 -0.1672  0.3264  0.7898
   46MOL   H130 9220   1.338   4.720   6.398  2.2628  0.6767  0.1494
   46MOL   H131 9221   1.468   4.602   6.395  0.7583  2.7630 -0.7352
   46MOL   C132 9222   1.586   4.820   6.589 -0.1838  0.0269  0.1205
   46MOL   C133 9223   1.643   4.825   6.444 -0.0096  0.8602  0.1774
   46MOL   O134 9224   1.694   4.955   6.410 -0.1434  0.1915 -0.2704
   46MOL   C135 9225   1.595   5.052   6.413 -0.1024  0.1393  0.0581
   46MOL   H136 9226   1.653   4.861   6.665 -0.5690  0.5993  0.1567
   46MOL   H137 9227   1.500   4.886   6.593  0.6529  1.1435 -0.1814
   46MOL   H138 9228   1.575   4.809   6.359 -0.3453  0.8525  0.4457
   46MOL   H139 9229   1.635   5.139   6.360 -1.0564 -0.2419 -1.3127
   46MOL   H140 9230   1.500   5.032   6.363 -0.2115 -0.7376  0.6069
   46MOL   H141 9231   1.571   5.083   6.515 -1.0512  1.0879 -0.4378
   46MOL   C142 9232   1.756   4.716   6.412 -0.5844 -0.2691  0.0548
   46MOL   C143 9233   1.879   4.738   6.494 -0.3404 -0.2464 -0.3903
   46MOL   O144 9234   1.852   4.666   6.612  0.3961  0.4644  0.0706
   46MOL   C145 9235   1.904   4.725   6.724  0.1952 -0.1678  0.0649
   46MOL   H146 9236   1.786   4.725   6.308 -1.1241 -0.7972 -0.1490
   46MOL   H147 9237   1.726   4.613   6.429  1.0564 -1.2213 -2.5913
   46MOL   H148 9238   1.898   4.840   6.525 -0.3664 -0.4337  0.2576
   46MOL   H149 9239   1.902   4.656   6.808  2.9193 -0.9511 -0.4732
   46MOL   H150 9240   2.009   4.750   6.733  0.2069  0.2616 -1.2180
   46MOL   H151 9241   1.843   4.811   6.753  0.7162  0.2965 -0.2322
   46MOL   C152 9242   2.001   4.667   6.420  0.1591  0.5366  0.8045
   46MOL   C153 9243   2.137   4.649   6.486 -0.2392 -0.3276 -0.0015
   46MOL   O154 9244   2.226   4.591   6.387 -0.5796  0.0544 -0.1371
   46MOL   C155 9245   2.245   4.459   6.400  0.2413 -0.4439 -0.3662
   46MOL   H156 9246   2.026   4.729   6.334 -2.1814  1.2291  0.6045
   46MOL   H157 9247   1.967   4.571   6.382 -0.9191  1.1143  0.3004
   46MOL   H158 9248   2.135   4.591   6.579 -0.3219 -0.6926 -0.2303
   46MOL   H159 9249   2.292   4.446   6.498 -0.3731  1.0212  0.1407
   46MOL   H160 9250   2.155   4.402   6.377  1.1810 -1.0272 -2.6651
   46MOL   H161 9251   2.319   4.442   6.322 -0.0619  0.0390 -0.7611
   46MOL   C162 9252   2.201   4.782   6.539 -0.1700  0.4035 -0.0863
   46MOL   C163 9253   2.326   4.774   6.630  0.6198  0.4973 -0.1033
   46MOL   O164 9254   2.400   4.896   6.615  0.0368  0.0315  0.7238
   46MOL   C165 9255   2.495   4.904   6.505 -0.4782 -0.5489  0.0121
   46MOL   H166 9256   2.132   4.852   6.586 -1.2719  0.5706 -1.8932
   46MOL   H167 9257   2.222   4.829   6.443  1.5659 -0.5739 -0.2067
   46MOL   H168 9258   2.384   4.683   6.611  0.1432  0.1935 -0.1135
   46MOL   H169 9259   2.466   4.840   6.421 -0.8337 -0.1539 -0.1718
   46MOL   H170 9260   2.499   5.009   6.476  1.2056 -0.9134 -1.1228
   46MOL   H171 9261   2.601   4.891   6.524 -0.4290 -1.5683 -0.9088
   46MOL   C172 9262   2.286   4.762   6.779 -0.6293  0.7030  0.3883
   46MOL   C173 9263   2.405   4.783   6.877  0.2050  0.1227 -0.8288
   46MOL   O174 9264   2.347   4.768   7.000  0.6602  0.5910  0.1087
   46MOL   C175 9265   2.264   4.881   7.042  0.2434 -0.2896  0.3994
   46MOL   H176 9266   2.232   4.670   6.799  1.0619  0.1186  2.3509
   46MOL   H177 9267   2.213   4.842   6.791 -0.2588  1.1230 -0.1056
   46MOL   H178 9268   2.455   4.878   6.857  1.7385 -0.1598  1.5077
   46MOL   H179 9269   2.170   4.898   6.990  0.8597  3.4316  0.4098
   46MOL   H180 9270   2.250   4.877   7.150  0.5530  2.8531  0.5780
   46MOL   H181 9271   2.317   4.975   7.030  1.3366 -0.5065  3.2327
   46MOL   C182 9272   2.521   4.688   6.854  0.0361  0.3173 -0.1304
   46MOL   C183 9273   2.651   4.739   6.914 -0.6460 -0.2603 -0.3393
   46MOL   O184 9274   2.655   4.723   7.058  0.7487  0.2424  0.3542
   46MOL   C185 9275   2.645   4.847   7.120 -0.2598 -0.2397  0.4006
   46MOL   H186 9276   2.537   4.687   6.746 -0.6078 -2.2188 -0.2398
   46MOL   H187 9277   2.496   4.587   6.885  3.4069 -0.5826 -0.1352
   46MOL   H188 9278   2.677   4.839   6.880 -0.7216 -0.3530 -0.6738
   46MOL   H189 9279   2.671   4.835   7.225 -0.4681  0.6322  0.5567
   46MOL   H190 9280   2.708   4.925   7.076  1.3772 -1.5707  0.3105
   46MOL   H191 9281   2.543   4.886   7.122 -0.9290 -1.7146 -2.6516
   46MOL   C192 9282   2.770   4.649   6.856  0.3804  0.4265  0.4119
   46MOL   C193 9283   2.901   4.678   6.935  0.4206  0.3819  0.1652
   46MOL   O194 9284   3.017   4.635   6.859  0.7730 -0.0220 -0.5750
   46MOL   C195 9285   3.042   4.493   6.865  0.1611  0.0600 -0.2840
   46MOL   H196 9286   2.776   4.669   6.749  1.4343  1.5777  0.6674
   46MOL   H197 9287   2.745   4.544   6.871  0.2590  0.5991  1.4695
   46MOL   H198 9288   2.898   4.641   7.038  2.6946 -0.5432 -0.0527
   46MOL   H199 9289   2.947   4.439   6.861 -0.4565  1.2175 -2.1334
   46MOL   H200 9290   3.110   4.442   6.797 -0.0714 -0.5654 -0.0486
   46MOL   H201 9291   3.082   4.468   6.963 -0.5856  1.9999  0.5437
   46MOL   H202 9292   2.921   4.784   6.944 -0.4417  0.6787 -1.3774
   47MOL     C1 9293   4.067   1.217   4.531 -0.7783 -0.0341 -0.3654
   47MOL     C2 9294   4.176   1.312   4.480  0.1228  0.0861  0.6064
   47MOL     O3 9295   4.221   1.388   4.590 -0.1460 -0.3211 -0.2122
   47MOL     C4 9296   4.164   1.515   4.614 -0.0567  0.8270  0.2531
   47MOL     H5 9297   3.971   1.256   4.564 -0.9859  0.5008 -1.5798
   47MOL     H6 9298   4.055   1.139   4.456  1.8470 -1.9564  1.0997
   47MOL     H7 9299   4.139   1.380   4.404  0.3947  1.3327  1.5604
   47MOL     H8 9300   4.066   1.504   4.661 -1.2416  1.0643 -2.0887
   47MOL     H9 9301   4.228   1.564   4.688 -1.3894  0.3498  1.7368
   47MOL    H10 9302   4.156   1.578   4.525 -1.2126  2.1678  1.2700
   47MOL    H11 9303   4.104   1.153   4.612 -0.2559  1.7177  0.8116
   47MOL    C12 9304   4.298   1.233   4.439  0.2197  0.0458  1.0011
   47MOL    C13 9305   4.291   1.137   4.318 -0.2815 -0.1774 -0.4431
   47MOL    O14 9306   4.280   1.210   4.198 -0.3563  0.3102 -0.1317
   47MOL    C15 9307   4.201   1.152   4.089  0.3122  0.5618 -0.1422
   47MOL    H16 9308   4.321   1.170   4.525  2.3491  0.7136  0.9310
   47MOL    H17 9309   4.383   1.299   4.430 -1.6732  2.4448  0.0865
   47MOL    H18 9310   4.207   1.068   4.326 -1.2667  0.5369 -3.7250
   47MOL    H19 9311   4.189   1.223   4.008 -1.1158 -0.9393 -1.2875
   47MOL    H20 9312   4.249   1.061   4.053  0.5279  1.1319 -1.3054
   47MOL    H21 9313   4.101   1.124   4.123  1.4447  0.0244  2.9790
   47MOL    C22 9314   4.411   1.037   4.302  0.5068 -0.3936  0.5765
   47MOL    C23 9315   4.435   0.932   4.408  0.0973  0.7107 -0.2926
   47MOL    O24 9316   4.311   0.870   4.429  0.0142 -0.2304 -0.4698
   47MOL    C25 9317   4.289   0.818   4.561 -0.6881 -1.1085 -0.2355
   47MOL    H26 9318   4.507   1.089   4.307 -0.2040  1.0714 -0.5040
   47MOL    H27 9319   4.401   1.000   4.200 -0.6186 -1.2086  0.9785
   47MOL    H28 9320   4.472   0.980   4.499 -1.1989 -0.6697  0.9959
   47MOL    H29 9321   4.219   0.735   4.554 -1.4290 -0.5432  0.3337
   47MOL    H30 9322   4.375   0.779   4.617 -0.5451 -2.2341 -1.2235
   47MOL    H31 9323   4.243   0.902   4.613 -0.8509  0.6025 -3.0782
   47MOL    C32 9324   4.540   0.829   4.351 -0.3402  0.2911 -0.0005
   47MOL    C33 9325   4.691   0.872   4.340 -0.0019 -0.1218 -0.5938
   47MOL    O34 9326   4.732   0.922   4.474 -0.2075 -0.0646 -1.1341
   47MOL    C35 9327   4.772   0.824   4.574  0.2920 -0.0458 -0.0847
   47MOL    H36 9328   4.503   0.795   4.255  2.2894  2.3043 -1.8074
   47MOL    H37 9329   4.534   0.746   4.421  0.3054 -0.8780 -1.3070
   47MOL    H38 9330   4.684   0.954   4.268 -2.2334  0.4476  0.2003
   47MOL    H39 9331   4.711   0.734   4.582 -1.4659  0.9535 -1.7405
   47MOL    H40 9332   4.875   0.797   4.552  1.0242  2.0355  0.7249
   47MOL    H41 9333   4.793   0.863   4.673  2.1207 -0.4976 -0.2664
   47MOL    C42 9334   4.792   0.769   4.285  0.0793 -0.3857  0.1238
   47MOL    C43 9335   4.929   0.831   4.236  0.5246  0.2091 -0.2580
   47MOL    O44 9336   5.014   0.719   4.217  0.0273 -0.2871  0.0862
   47MOL    C45 9337   5.093   0.685   4.330 -0.6970 -0.1933 -0.1292
   47MOL    H46 9338   4.752   0.721   4.196 -1.0124  0.0455  0.3751
   47MOL    H47 9339   4.806   0.690   4.359  2.8655 -0.3039 -0.2340
   47MOL    H48 9340   4.971   0.891   4.316  2.9557 -1.9080  0.1047
   47MOL    H49 9341   5.149   0.775   4.354 -0.3012 -0.3385 -0.5110
   47MOL    H50 9342   5.044   0.666   4.426 -2.0430  1.5038 -0.4605
   47MOL    H51 9343   5.157   0.600   4.304 -1.4582  0.4777 -4.4212
   47MOL    C52 9344   4.911   0.908   4.106  0.6318  0.6898 -0.5385
   47MOL    C53 9345   5.037   0.962   4.035 -0.6104 -0.5144  0.0787
   47MOL    O54 9346   5.006   1.025   3.907 -0.6525  0.6538  0.1404
   47MOL    C55 9347   5.115   1.022   3.808 -0.0895 -0.1030  0.4768
   47MOL    H56 9348   4.865   1.006   4.114 -0.9592 -0.1864  1.5508
   47MOL    H57 9349   4.860   0.847   4.032 -1.3147 -1.6520  2.5937
   47MOL    H58 9350   5.093   0.869   4.029 -1.3073 -0.8651 -0.9865
   47MOL    H59 9351   5.168   0.927   3.812  0.0235 -0.0042  1.3252
   47MOL    H60 9352   5.060   1.040   3.716  0.6010 -0.1601  0.0445
   47MOL    H61 9353   5.174   1.114   3.814  2.1225 -1.4480 -0.2553
   47MOL    C62 9354   5.128   1.044   4.127 -0.1507 -0.2706 -0.5188
   47MOL    C63 9355   5.066   1.171   4.181  0.3779  0.6510  0.3186
   47MOL    O64 9356   4.976   1.140   4.286 -0.2516 -0.5241  0.2320
   47MOL    C65 9357   4.873   1.229   4.315  0.3362  0.1155  0.3865
   47MOL    H66 9358   5.211   1.075   4.064  0.9321 -1.7009  0.1910
   47MOL    H67 9359   5.170   0.981   4.205  1.5357  0.1775 -1.0433
   47MOL    H68 9360   5.013   1.220   4.099  0.3873 -1.3483 -0.8942
   47MOL    H69 9361   4.832   1.278   4.227  0.9302 -0.7220 -0.3591
   47MOL    H70 9362   4.792   1.175   4.364 -0.3552 -0.5421 -1.4539
   47MOL    H71 9363   4.907   1.310   4.380 -1.9994  0.8678  0.7248
   47MOL    C72 9364   5.166   1.282   4.235  0.2988 -0.2148  0.1097
   47MOL    C73 9365   5.239   1.355   4.120 -0.7735 -0.6477  0.1620
   47MOL    O74 9366   5.142   1.441   4.057  0.1401  0.4962 -0.1668
   47MOL    C75 9367   5.140   1.449   3.914  0.2923 -0.1281  0.1695
   47MOL    H76 9368   5.234   1.243   4.312  1.6966  0.1716 -0.9063
   47MOL    H77 9369   5.099   1.349   4.288  0.6260 -2.0085  2.8953
   47MOL    H78 9370   5.281   1.276   4.058 -3.7625  0.1283 -3.0087
   47MOL    H79 9371   5.092   1.359   3.878 -1.7003 -1.2012  5.1127
   47MOL    H80 9372   5.085   1.533   3.873 -2.2859 -0.8750  1.9996
   47MOL    H81 9373   5.242   1.453   3.873 -0.8607 -1.9729 -3.0251
   47MOL    C82 9374   5.362   1.440   4.157  0.3728  0.2220 -0.1584
   47MOL    C83 9375   5.482   1.360   4.220 -0.7146 -0.0333 -0.2212
   47MOL    O84 9376   5.534   1.276   4.118  0.1863 -0.1458  0.4690
   47MOL    C85 9377   5.575   1.142   4.168  0.1658  0.2269 -0.0890
   47MOL    H86 9378   5.339   1.501   4.244 -2.2869 -3.4284  1.8431
   47MOL    H87 9379   5.403   1.498   4.075 -0.8607 -0.3776 -1.2241
   47MOL    H88 9380   5.438   1.302   4.301  2.9215 -1.7942  0.5919
   47MOL    H89 9381   5.666   1.155   4.227  0.2402 -0.7650  0.0163
   47MOL    H90 9382   5.499   1.081   4.217  1.3970 -1.9799 -0.8321
   47MOL    H91 9383   5.612   1.092   4.079 -0.3725  0.9752 -0.7342
   47MOL    C92 9384   5.579   1.476   4.274  0.2288  0.6028 -0.1679
   47MOL    C93 9385   5.701   1.425   4.359 -0.3550 -0.1519 -0.7220
   47MOL    O94 9386   5.780   1.529   4.412 -0.2581  0.5246 -0.1302
   47MOL    C95 9387   5.858   1.599   4.314 -0.1129  0.2661 -0.8163
   47MOL    H96 9388   5.522   1.543   4.338  1.4576 -0.2533  1.8739
   47MOL    H97 9389   5.608   1.546   4.195 -1.5235  1.0769 -0.4151
   47MOL    H98 9390   5.761   1.355   4.301  0.1128 -0.8806  0.6217
   47MOL    H99 9391   5.943   1.548   4.268 -1.5352 -2.7312 -0.2575
   47MOL   H100 9392   5.800   1.634   4.227 -0.0386 -1.3462 -1.5327
   47MOL   H101 9393   5.898   1.690   4.358 -0.1394 -0.7134  1.2942
   47MOL   C102 9394   5.644   1.357   4.489  0.1922  0.5352 -0.0553
   47MOL   C103 9395   5.757   1.308   4.584 -0.0007 -0.3270  0.1342
   47MOL   O104 9396   5.792   1.404   4.681 -0.3543  0.1492 -0.0732
   47MOL   C105 9397   5.923   1.402   4.730 -0.4845  0.2345  0.4329
   47MOL   H106 9398   5.563   1.288   4.465  1.4745 -0.5968 -1.2499
   47MOL   H107 9399   5.591   1.432   4.548  0.7464  1.0075 -0.1493
   47MOL   H108 9400   5.831   1.269   4.514  1.8230  0.6218  1.5054
   47MOL   H109 9401   5.928   1.333   4.814 -1.1222 -0.5624 -0.1791
   47MOL   H110 9402   5.990   1.369   4.650 -0.3634 -0.6776  0.9059
   47MOL   H111 9403   5.949   1.502   4.765 -1.9833 -0.2291  2.9891
   47MOL   C112 9404   5.731   1.179   4.663 -0.2631 -1.0450 -0.0232
   47MOL   C113 9405   5.739   1.048   4.581  0.3703  0.2938 -0.5788
   47MOL   O114 9406   5.883   1.029   4.562  0.2526  0.2838  0.2936
   47MOL   C115 9407   5.902   0.968   4.436  0.0867 -0.1082 -0.1665
   47MOL   H116 9408   5.631   1.195   4.703 -0.2878 -0.8237 -0.1761
   47MOL   H117 9409   5.797   1.154   4.745 -0.3400  1.1903  0.7401
   47MOL   H118 9410   5.686   1.064   4.488 -0.9305  3.3654  0.6138
   47MOL   H119 9411   5.888   1.041   4.357 -1.0700 -0.5368 -0.3670
   47MOL   H120 9412   6.002   0.931   4.414  0.7324  1.8113 -0.5526
   47MOL   H121 9413   5.825   0.893   4.416 -0.2115  0.2769 -0.4501
   47MOL   C122 9414   5.680   0.928   4.657  0.2224  0.9171 -0.1515
   47MOL   C123 9415   5.530   0.918   4.644  0.0270  0.1294 -0.7475
   47MOL   O124 9416   5.497   0.919   4.509 -0.0015  0.2411 -0.1550
   47MOL   C125 9417   5.368   0.957   4.470  0.0227  0.4111  0.3622
   47MOL   H126 9418   5.712   0.945   4.760  1.4179  3.2204 -0.8687
   47MOL   H127 9419   5.710   0.829   4.624 -0.6160  1.3236 -2.2093
   47MOL   H128 9420   5.495   1.010   4.691 -1.4395 -0.9181  0.2575
   47MOL   H129 9421   5.369   0.961   4.361  1.7733 -2.0941  0.2406
   47MOL   H130 9422   5.289   0.889   4.502 -0.6289  0.6641 -0.6653
   47MOL   H131 9423   5.360   1.057   4.511 -1.6201  0.2376  0.4948
   47MOL   C132 9424   5.455   0.806   4.725 -0.1148 -0.0354  0.1226
   47MOL   C133 9425   5.478   0.810   4.877 -0.2782 -0.0008  0.9040
   47MOL   O134 9426   5.361   0.779   4.946 -0.1780  0.6552 -0.1713
   47MOL   C135 9427   5.260   0.884   4.949 -0.4080 -0.2309 -0.0080
   47MOL   H136 9428   5.477   0.708   4.684 -0.0304 -0.0745  0.2623
   47MOL   H137 9429   5.348   0.813   4.707  0.0550  0.0169 -0.8601
   47MOL   H138 9430   5.503   0.911   4.909 -0.2557  0.5061 -0.6464
   47MOL   H139 9431   5.170   0.845   4.998 -0.5988  0.9101  0.5757
   47MOL   H140 9432   5.296   0.971   5.004 -0.7062 -1.1338  1.6651
   47MOL   H141 9433   5.234   0.923   4.851 -1.9017  1.6000  1.0879
   47MOL   C142 9434   5.586   0.707   4.919  0.0490 -0.6102 -0.1418
   47MOL   C143 9435   5.627   0.715   5.068 -0.0934 -0.2426 -0.5889
   47MOL   O144 9436   5.698   0.595   5.105 -0.7757  0.1360 -0.4578
   47MOL   C145 9437   5.655   0.535   5.217 -0.2016 -0.5933  0.4740
   47MOL   H146 9438   5.677   0.711   4.859  0.8534 -1.0532  1.0343
   47MOL   H147 9439   5.543   0.607   4.922 -3.1077  0.6943 -0.1320
   47MOL   H148 9440   5.529   0.719   5.115 -0.3036 -0.5284 -0.9963
   47MOL   H149 9441   5.671   0.612   5.292 -0.4884  2.6897 -2.7248
   47MOL   H150 9442   5.549   0.515   5.208 -0.1970 -0.2593 -0.4324
   47MOL   H151 9443   5.706   0.441   5.242 -0.8094 -1.6505 -2.0879
   47MOL   C152 9444   5.707   0.842   5.112 -0.1877  0.5132  1.0168
   47MOL   C153 9445   5.855   0.845   5.063 -0.4251 -0.5151 -0.1661
   47MOL   O154 9446   5.851   0.928   4.949 -0.0667  0.2872 -0.0428
   47MOL   C155 9447   5.966   0.910   4.868  0.0483 -0.2141 -0.7213
   47MOL   H156 9448   5.701   0.848   5.221 -0.6437  1.4789  0.9372
   47MOL   H157 9449   5.650   0.927   5.076 -0.2514 -0.0937 -0.3122
   47MOL   H158 9450   5.893   0.745   5.042  1.3718  0.0453  0.3662
   47MOL   H159 9451   5.976   0.981   4.786  1.0077 -0.2349 -0.6297
   47MOL   H160 9452   6.061   0.917   4.920  0.8357  0.9391 -2.3049
   47MOL   H161 9453   5.963   0.806   4.834  0.2855 -1.0188  1.5853
   47MOL   C162 9454   5.960   0.888   5.172  0.0103 -0.1747  0.2250
   47MOL   C163 9455   5.978   0.795   5.293  0.3551 -0.4682  0.3882
   47MOL   O164 9456   6.044   0.670   5.258  0.1054 -0.2898 -0.6083
   47MOL   C165 9457   5.999   0.556   5.324  1.1242 -0.3975 -0.2682
   47MOL   H166 9458   5.923   0.982   5.212 -1.9862  0.4780 -2.9272
   47MOL   H167 9459   6.056   0.903   5.123 -0.4057  1.1362 -0.2089
   47MOL   H168 9460   5.879   0.778   5.334 -0.0744 -2.2294 -1.3054
   47MOL   H169 9461   6.039   0.466   5.277  1.2689 -0.0269 -0.8477
   47MOL   H170 9462   6.016   0.554   5.432 -0.9619 -0.6716  0.0780
   47MOL   H171 9463   5.891   0.541   5.321  1.1223 -0.9778  1.5213
   47MOL   C172 9464   6.061   0.862   5.397 -0.2503  0.2487 -0.3373
   47MOL   C173 9465   5.994   0.977   5.470  0.1228  1.2776 -0.6928
   47MOL   O174 9466   5.984   0.936   5.609  0.5633 -0.0859 -0.6596
   47MOL   C175 9467   5.853   0.942   5.660  0.3472  0.2072  0.2727
   47MOL   H176 9468   6.158   0.884   5.354  0.6206  2.6172  2.6750
   47MOL   H177 9469   6.083   0.779   5.464 -1.0368 -0.9216 -1.5047
   47MOL   H178 9470   5.895   0.996   5.429  0.0434 -0.3566 -1.2977
   47MOL   H179 9471   5.849   0.911   5.764  0.5419 -1.4192 -0.1835
   47MOL   H180 9472   5.821   1.045   5.671 -0.9077 -0.3148  1.7217
   47MOL   H181 9473   5.785   0.880   5.600 -1.9485  2.8393  0.0305
   47MOL   C182 9474   6.070   1.111   5.460  0.0659  0.4336  0.0536
   47MOL   C183 9475   5.998   1.240   5.508 -0.0259 -0.2239  0.2710
   47MOL   O184 9476   6.073   1.355   5.464  0.0373 -0.2068 -0.0750
   47MOL   C185 9477   6.086   1.453   5.565 -0.3257  0.4871 -0.0529
   47MOL   H186 9478   6.110   1.133   5.361 -1.8401  1.2471 -0.5465
   47MOL   H187 9479   6.155   1.093   5.526 -0.3051  1.9352  0.9620
   47MOL   H188 9480   5.987   1.247   5.617  0.6287  0.7319  0.2797
   47MOL   H189 9481   5.995   1.506   5.592  0.8199  1.8058  1.3381
   47MOL   H190 9482   6.148   1.432   5.652  0.6477  2.6665 -0.1856
   47MOL   H191 9483   6.141   1.542   5.534  2.9219 -0.1707  3.4675
   47MOL   C192 9484   5.857   1.263   5.441 -0.2005 -0.2826  0.2634
   47MOL   C193 9485   5.866   1.290   5.292 -0.1049  0.0141  0.4706
   47MOL   O194 9486   5.729   1.290   5.248  0.0442  0.7622 -0.6600
   47MOL   C195 9487   5.705   1.266   5.109 -0.3564  0.6959 -0.4663
   47MOL   H196 9488   5.820   1.361   5.472 -2.1331 -0.7157 -0.5657
   47MOL   H197 9489   5.782   1.192   5.477 -2.5016  1.5071 -0.8731
   47MOL   H198 9490   5.928   1.211   5.249  0.9635  1.5701 -0.8812
   47MOL   H199 9491   5.749   1.174   5.072  1.2870  0.5418  1.7031
   47MOL   H200 9492   5.601   1.276   5.079 -0.5277  2.9023  0.7433
   47MOL   H201 9493   5.767   1.337   5.055  2.1897 -0.3353  0.9795
   47MOL   H202 9494   5.919   1.385   5.283  0.8030 -0.4607  0.6744
   48MOL     C1 9495   0.713   6.720   6.450  0.2273  0.1169 -0.2554
   48MOL     C2 9496   0.831   6.773   6.539  0.0488  0.4586  1.2472
   48MOL     O3 9497   0.783   6.764   6.673  0.1434 -0.0292  0.1863
   48MOL     C4 9498   0.846   6.837   6.773 -0.0729  0.3102  0.5407
   48MOL     H5 9499   0.638   6.799   6.445  0.9860  0.7355 -3.2971
   48MOL     H6 9500   0.743   6.718   6.345 -0.6098 -0.9326 -0.4793
   48MOL     H7 9501   0.851   6.877   6.512 -3.1453  0.8501  0.2315
   48MOL     H8 9502   0.828   6.799   6.873 -1.2875 -1.1372 -0.2112
   48MOL     H9 9503   0.953   6.847   6.754  0.0188 -2.6940 -0.7845
   48MOL    H10 9504   0.813   6.940   6.784 -3.3284 -0.3975 -1.8725
   48MOL    H11 9505   0.671   6.622   6.470 -0.3941  0.3851 -0.2292
   48MOL    C12 9506   0.959   6.684   6.519 -0.7044 -0.4139  0.3398
   48MOL    C13 9507   1.045   6.706   6.391 -0.3618  0.2520 -0.9815
   48MOL    O14 9508   1.148   6.788   6.423  0.0395 -0.5322  0.1146
   48MOL    C15 9509   1.193   6.866   6.314  0.2292 -0.3605 -0.6330
   48MOL    H16 9510   0.918   6.583   6.524  2.5094 -1.6995  2.7471
   48MOL    H17 9511   1.019   6.692   6.609  0.2338  2.4127 -0.4642
   48MOL    H18 9512   0.981   6.744   6.311 -1.2967  2.4699  0.7823
   48MOL    H19 9513   1.281   6.928   6.328  1.2029 -1.3441 -2.2162
   48MOL    H20 9514   1.211   6.810   6.222  3.5935 -0.8287  0.2742
   48MOL    H21 9515   1.121   6.946   6.296  2.1313  1.2974 -0.9726
   48MOL    C22 9516   1.106   6.564   6.350  0.8134  0.1338  0.0258
   48MOL    C23 9517   1.014   6.486   6.247  0.4243  0.1673 -0.1862
   48MOL    O24 9518   1.010   6.563   6.129 -0.3144  0.0164  0.2533
   48MOL    C25 9519   0.885   6.568   6.060 -0.9439  0.7134 -0.2875
   48MOL    H26 9520   1.139   6.508   6.438  2.7768  3.0955  1.2753
   48MOL    H27 9521   1.197   6.579   6.292  0.2465  1.4860 -0.5208
   48MOL    H28 9522   0.921   6.457   6.295  0.2138  1.5635  0.2446
   48MOL    H29 9523   0.867   6.482   5.996 -2.0999  1.4258 -0.9561
   48MOL    H30 9524   0.800   6.556   6.128 -1.0946 -0.8954 -0.7540
   48MOL    H31 9525   0.887   6.663   6.006  0.2287  1.0611  0.3578
   48MOL    C32 9526   1.073   6.350   6.215  0.5558 -0.0365  0.1459
   48MOL    C33 9527   1.062   6.254   6.330  0.2924 -0.4481  0.6574
   48MOL    O34 9528   0.919   6.234   6.342 -0.4575  0.6132 -0.1524
   48MOL    C35 9529   0.875   6.187   6.468  0.0680  0.2719 -0.2478
   48MOL    H36 9530   1.170   6.373   6.172  0.5565  0.3684  0.3588
   48MOL    H37 9531   1.009   6.305   6.138  0.4319 -0.4194  0.4722
   48MOL    H38 9532   1.105   6.302   6.418 -0.8376  1.7303  0.0681
   48MOL    H39 9533   0.905   6.248   6.554  1.3491  0.6900 -0.9723
   48MOL    H40 9534   0.766   6.191   6.460  0.0710  1.2837  0.1399
   48MOL    H41 9535   0.905   6.084   6.483  0.5096  0.2447 -1.2924
   48MOL    C42 9536   1.117   6.111   6.300 -0.6204 -1.0400  0.1124
   48MOL    C43 9537   1.267   6.118   6.245  0.0949 -0.0493 -0.3723
   48MOL    O44 9538   1.342   6.190   6.341 -0.2344  0.3551 -0.5206
   48MOL    C45 9539   1.469   6.236   6.315 -0.3107 -0.2675  0.4873
   48MOL    H46 9540   1.066   6.055   6.221 -1.4457 -1.6284  1.0536
   48MOL    H47 9541   1.118   6.050   6.390  0.8944 -2.6403 -0.9521
   48MOL    H48 9542   1.270   6.170   6.150 -1.9792  1.7369  0.5013
   48MOL    H49 9543   1.548   6.162   6.330  0.7672  0.5278 -1.1284
   48MOL    H50 9544   1.479   6.289   6.220 -1.5436  2.3711  1.7967
   48MOL    H51 9545   1.482   6.316   6.387  1.9735 -0.0916 -0.0662
   48MOL    C52 9546   1.331   5.976   6.232  0.6304  0.1613 -0.4733
   48MOL    C53 9547   1.294   5.913   6.099 -0.2161 -0.4914 -0.0504
   48MOL    O54 9548   1.370   5.984   6.003  0.2581  0.0943 -0.1343
   48MOL    C55 9549   1.310   6.026   5.887  0.0094 -0.6658 -0.2444
   48MOL    H56 9550   1.281   5.922   6.312  0.8253  2.7232  1.4259
   48MOL    H57 9551   1.436   5.963   6.261 -0.0816 -0.2756  2.0160
   48MOL    H58 9552   1.185   5.919   6.091  0.0277  0.3511 -3.2628
   48MOL    H59 9553   1.386   6.084   5.834  0.9690 -1.4705  0.2506
   48MOL    H60 9554   1.271   5.942   5.830  0.2251 -1.9238  1.4334
   48MOL    H61 9555   1.228   6.098   5.900 -0.2380 -0.7945 -1.0847
   48MOL    C62 9556   1.334   5.767   6.083 -0.1212 -1.1947 -0.0125
   48MOL    C63 9557   1.279   5.671   6.196 -0.5626  0.0344 -0.7054
   48MOL    O64 9558   1.143   5.702   6.211  0.5584  0.3859 -0.5496
   48MOL    C65 9559   1.074   5.665   6.329  0.4727 -0.5799  1.0351
   48MOL    H66 9560   1.441   5.757   6.063 -0.1484 -0.5654 -0.4826
   48MOL    H67 9561   1.279   5.736   5.994  1.7145  1.0444 -1.9994
   48MOL    H68 9562   1.324   5.690   6.294 -0.1858  1.2244 -1.1003
   48MOL    H69 9563   1.058   5.747   6.400 -1.3125 -0.1954  0.2054
   48MOL    H70 9564   0.976   5.629   6.300  0.4176 -1.4192  2.2316
   48MOL    H71 9565   1.118   5.582   6.384  3.6105  0.0911 -0.3441
   48MOL    C72 9566   1.290   5.522   6.154  0.3874  1.1043  0.1871
   48MOL    C73 9567   1.398   5.438   6.235 -0.1339 -0.7265  0.7708
   48MOL    O74 9568   1.523   5.516   6.238  0.0510  0.3945  0.4148
   48MOL    C75 9569   1.602   5.513   6.122  0.1011 -0.5051 -0.6438
   48MOL    H76 9570   1.318   5.509   6.049 -0.2215  0.9221  0.0491
   48MOL    H77 9571   1.192   5.476   6.156  0.4393  0.9796 -0.1652
   48MOL    H78 9572   1.417   5.343   6.184  0.6444 -0.0294 -0.2558
   48MOL    H79 9573   1.691   5.573   6.144 -2.0152  2.4562  0.0306
   48MOL    H80 9574   1.634   5.413   6.091 -2.8728 -0.7702 -3.0893
   48MOL    H81 9575   1.555   5.560   6.036 -2.3042 -0.7147  0.5279
   48MOL    C82 9576   1.364   5.411   6.380 -0.7260 -0.1735 -0.4298
   48MOL    C83 9577   1.249   5.312   6.414 -0.1331 -0.1056  0.0027
   48MOL    O84 9578   1.287   5.190   6.354  0.6932  0.4811 -0.1667
   48MOL    C85 9579   1.207   5.157   6.241  0.5142 -0.0411  0.0166
   48MOL    H86 9580   1.342   5.501   6.437 -0.0385  0.3172 -0.9490
   48MOL    H87 9581   1.459   5.372   6.415 -0.2687  1.0160 -0.3415
   48MOL    H88 9582   1.157   5.360   6.379  0.8463 -0.7338 -3.6088
   48MOL    H89 9583   1.246   5.217   6.159 -2.5552  1.9189 -0.0951
   48MOL    H90 9584   1.199   5.053   6.210  1.2261 -0.4010  1.0282
   48MOL    H91 9585   1.103   5.186   6.257  0.3055 -1.2136  0.7879
   48MOL    C92 9586   1.246   5.285   6.573 -0.3309 -0.2180 -0.3046
   48MOL    C93 9587   1.198   5.149   6.626 -0.3699 -0.3293 -0.1405
   48MOL    O94 9588   1.207   5.160   6.765 -0.5223 -0.7872 -0.1198
   48MOL    C95 9589   1.219   5.045   6.841  0.7299 -0.5272 -0.4314
   48MOL    H96 9590   1.190   5.365   6.620 -0.6570 -1.8023  2.0711
   48MOL    H97 9591   1.347   5.302   6.611 -0.3160  1.4902 -1.0752
   48MOL    H98 9592   1.259   5.068   6.586  0.8436  0.5081 -0.0001
   48MOL    H99 9593   1.164   4.964   6.794  0.4915  0.9095 -2.6957
   48MOL   H100 9594   1.325   5.026   6.857  0.8918 -0.3651 -1.3148
   48MOL   H101 9595   1.181   5.053   6.943 -0.6139 -0.7024 -0.9098
   48MOL   C102 9596   1.056   5.122   6.586  0.5380 -0.4297 -1.0370
   48MOL   C103 9597   0.945   5.205   6.664 -0.6868 -0.2272  0.5589
   48MOL   O104 9598   0.940   5.338   6.596  0.6573  0.3577 -0.7464
   48MOL   C105 9599   0.878   5.441   6.669 -0.1567 -0.0516  0.1974
   48MOL   H106 9600   1.024   5.023   6.619 -0.2890 -0.8471 -3.0117
   48MOL   H107 9601   1.049   5.123   6.477 -0.5142 -1.1783 -0.9895
   48MOL   H108 9602   0.959   5.209   6.772 -1.3722 -0.6124  0.6631
   48MOL   H109 9603   0.928   5.457   6.765  0.1415  1.2938 -0.1836
   48MOL   H110 9604   0.872   5.529   6.606 -0.1057 -0.5163 -0.4649
   48MOL   H111 9605   0.779   5.406   6.700  0.1729 -1.6428 -0.5123
   48MOL   C112 9606   0.803   5.133   6.647 -0.1194  0.2070 -0.1375
   48MOL   C113 9607   0.762   5.106   6.501 -0.3827 -0.4447  0.6499
   48MOL   O114 9608   0.848   5.007   6.438 -0.3958 -0.2392 -0.1258
   48MOL   C115 9609   0.829   4.993   6.297  0.2390 -0.3680  0.2801
   48MOL   H116 9610   0.727   5.189   6.702  0.4385  0.9421 -0.1115
   48MOL   H117 9611   0.806   5.031   6.686 -2.5410  0.0079 -0.3632
   48MOL   H118 9612   0.782   5.194   6.440 -0.9337  0.4249  1.6906
   48MOL   H119 9613   0.754   5.055   6.247 -0.4868 -1.5846 -0.1399
   48MOL   H120 9614   0.918   5.013   6.237  0.0899 -3.4587 -1.0252
   48MOL   H121 9615   0.799   4.890   6.281 -0.1228 -0.1351 -0.5550
   48MOL   C122 9616   0.612   5.071   6.508 -0.0668 -0.3788 -0.5684
   48MOL   C123 9617   0.499   5.184   6.510 -0.0550  0.3961  0.8778
   48MOL   O124 9618   0.487   5.227   6.645  0.3462 -0.5745  0.5342
   48MOL   C125 9619   0.385   5.154   6.712 -0.0872 -0.3440 -0.1367
   48MOL   H126 9620   0.597   4.984   6.571  1.0523 -1.4219 -1.7183
   48MOL   H127 9621   0.588   5.021   6.414 -1.7782 -2.6339  1.0135
   48MOL   H128 9622   0.401   5.146   6.484 -0.9004  1.5138  2.2985
   48MOL   H129 9623   0.281   5.178   6.688 -0.1920  0.5621  1.1539
   48MOL   H130 9624   0.393   5.045   6.712  0.7454 -0.2898  0.7291
   48MOL   H131 9625   0.395   5.178   6.818  0.5593 -0.7702 -0.0981
   48MOL   C132 9626   0.517   5.314   6.434 -0.1709 -0.0567  0.6960
   48MOL   C133 9627   0.462   5.321   6.292 -0.4775  0.1355 -0.6142
   48MOL   O134 9628   0.372   5.427   6.291 -0.6954 -0.4455 -0.1634
   48MOL   C135 9629   0.235   5.400   6.325 -0.4293  0.3698 -0.4451
   48MOL   H136 9630   0.625   5.332   6.434 -0.1693  0.3992 -3.6823
   48MOL   H137 9631   0.467   5.389   6.496  1.3979  2.2617 -0.7617
   48MOL   H138 9632   0.407   5.228   6.276  0.0995 -0.2060 -0.6335
   48MOL   H139 9633   0.177   5.491   6.314 -2.1764 -0.6527  0.0813
   48MOL   H140 9634   0.191   5.351   6.238  0.2397  1.0012 -1.1554
   48MOL   H141 9635   0.232   5.350   6.422 -0.5488  0.2192 -0.5261
   48MOL   C142 9636   0.580   5.353   6.186  0.2424 -0.4063 -0.1913
   48MOL   C143 9637   0.517   5.385   6.051 -0.2098 -0.3798  0.3117
   48MOL   O144 9638   0.616   5.453   5.973  0.4642 -0.6343  0.1488
   48MOL   C145 9639   0.633   5.588   5.986  0.3720  0.0958  0.4240
   48MOL   H146 9640   0.651   5.269   6.186  0.8136  0.0767 -0.7606
   48MOL   H147 9641   0.630   5.441   6.226 -0.7445  1.1308 -2.2532
   48MOL   H148 9642   0.429   5.448   6.063  0.3579 -0.1357  3.7261
   48MOL   H149 9643   0.690   5.615   5.898  1.0285  0.5319  0.9787
   48MOL   H150 9644   0.543   5.650   5.988  0.6236  0.4903 -0.2471
   48MOL   H151 9645   0.696   5.610   6.073  0.1072  2.3986  0.0555
   48MOL   C152 9646   0.475   5.265   5.968  0.3490  0.2290  0.5178
   48MOL   C153 9647   0.378   5.307   5.859 -0.0470 -0.6027 -0.7572
   48MOL   O154 9648   0.387   5.204   5.759  0.1828 -0.4228 -0.3952
   48MOL   C155 9649   0.468   5.231   5.647 -0.3423 -0.7947 -0.6093
   48MOL   H156 9650   0.436   5.182   6.028  0.2361  0.5233  0.8525
   48MOL   H157 9651   0.556   5.213   5.916 -0.1227 -0.0956  0.1081
   48MOL   H158 9652   0.402   5.406   5.819 -0.2718 -0.2974 -0.1456
   48MOL   H159 9653   0.521   5.327   5.647  0.5317 -1.2461 -2.8599
   48MOL   H160 9654   0.548   5.158   5.635  2.3470  1.9879 -0.5387
   48MOL   H161 9655   0.420   5.233   5.549  0.4421 -1.0058 -1.0079
   48MOL   C162 9656   0.227   5.321   5.896  0.0909 -0.0764  0.1509
   48MOL   C163 9657   0.147   5.372   5.768 -0.1736 -0.6784 -0.5211
   48MOL   O164 9658   0.039   5.284   5.753 -0.3437 -0.0582  0.3906
   48MOL   C165 9659   0.011   5.275   5.614 -0.0919 -0.2103 -0.0050
   48MOL   H166 9660   0.207   5.378   5.986 -1.9456 -0.8357  0.2014
   48MOL   H167 9661   0.199   5.219   5.921 -0.4856  0.9114  3.7906
   48MOL   H168 9662   0.217   5.380   5.685  0.6218  2.3616  0.3930
   48MOL   H169 9663   0.084   5.214   5.561  1.0178  1.2911 -0.2375
   48MOL   H170 9664   7.734   5.210   5.609 -0.2542  0.0358 -0.3611
   48MOL   H171 9665   7.802   5.363   5.553  2.5651  1.2726  1.2071
   48MOL   C172 9666   0.092   5.514   5.794 -0.4285 -0.2175 -0.1958
   48MOL   C173 9667   0.195   5.632   5.795  0.3034  0.1889 -0.3079
   48MOL   O174 9668   0.243   5.633   5.657 -0.8615 -1.0110  0.0942
   48MOL   C175 9669   0.385   5.650   5.659 -0.2422  0.1934  0.7666
   48MOL   H176 9670   0.056   5.504   5.896 -0.4526 -1.1200 -0.2915
   48MOL   H177 9671   0.009   5.529   5.725  0.0152 -0.8199 -0.8716
   48MOL   H178 9672   0.279   5.620   5.863  0.3658  0.9500 -0.2522
   48MOL   H179 9673   0.435   5.559   5.689 -1.2303 -0.9573 -0.9642
   48MOL   H180 9674   0.424   5.677   5.561 -3.1507 -2.4933 -1.2320
   48MOL   H181 9675   0.412   5.730   5.729 -1.1879  1.9455 -0.8021
   48MOL   C182 9676   0.123   5.773   5.830  0.3473 -0.1513  0.2234
   48MOL   C183 9677   0.047   5.788   5.965 -0.1062 -0.1051 -0.1746
   48MOL   O184 9678   0.131   5.761   6.078  0.5732 -0.4564  1.1937
   48MOL   C185 9679   0.063   5.727   6.200 -0.3576 -0.2316 -0.6917
   48MOL   H186 9680   0.055   5.794   5.747 -1.6054 -1.4856  1.4346
   48MOL   H187 9681   0.203   5.847   5.840  0.7459 -0.8756  2.8779
   48MOL   H188 9682   7.779   5.712   5.959  1.1896 -1.4446 -0.4582
   48MOL   H189 9683   7.790   5.793   6.221  1.0789  1.3733  0.0998
   48MOL   H190 9684   0.009   5.633   6.194  0.1995 -0.7402  1.8995
   48MOL   H191 9685   0.127   5.716   6.288 -1.3688 -0.3693  0.0360
   48MOL   C192 9686   7.780   5.921   5.984 -0.0007  0.0540  0.4583
   48MOL   C193 9687   0.051   6.044   6.026  0.3322  0.1390 -0.3064
   48MOL   O194 9688   7.765   6.141   6.063  0.0358 -0.3134  0.4382
   48MOL   C195 9689   0.011   6.269   6.071 -0.3745  0.0663 -0.0278
   48MOL   H196 9690   7.691   5.914   6.046 -0.0922  0.0962  0.3321
   48MOL   H197 9691   7.750   5.935   5.880 -0.9068 -0.0020  0.7100
   48MOL   H198 9692   0.118   6.076   5.946 -0.9933 -1.1782 -1.9859
   48MOL   H199 9693   7.746   6.343   6.096  2.4383  3.3594 -0.9583
   48MOL   H200 9694   0.091   6.279   6.144 -0.1828  1.3623 -0.4091
   48MOL   H201 9695   0.043   6.296   5.970  1.3333 -1.4263  0.0778
   48MOL   H202 9696   0.122   6.025   6.106 -2.5377 -2.6329  1.6803
   49MOL     C1 9697   0.508   5.280   4.694 -0.2901 -0.1829  0.0281
   49MOL     C2 9698   0.460   5.190   4.580 -0.1509 -0.4167 -0.3145
   49MOL     O3 9699   0.418   5.272   4.464 -0.4233 -0.2828  0.2547
   49MOL     C4 9700   0.319   5.364   4.478  0.0268  0.3602  0.2799
   49MOL     H5 9701   0.555   5.373   4.661  0.4364 -0.6982 -0.3971
   49MOL     H6 9702   0.429   5.315   4.760  0.3906  0.7962  0.3500
   49MOL     H7 9703   0.366   5.146   4.613 -0.8545 -0.4598 -2.3127
   49MOL     H8 9704   0.347   5.462   4.517  0.4221  0.8942 -1.3031
   49MOL     H9 9705   0.281   5.404   4.384  0.7051 -1.9225 -1.0029
   49MOL    H10 9706   0.239   5.323   4.540 -0.0021 -2.2463 -1.4003
   49MOL    H11 9707   0.582   5.233   4.760  0.1502 -1.5267 -1.4006
   49MOL    C12 9708   0.560   5.079   4.528  0.1850  0.9015 -0.8887
   49MOL    C13 9709   0.489   4.963   4.464  0.4805  0.5805  0.2490
   49MOL    O14 9710   0.410   5.016   4.356 -0.5503  0.1392 -0.3475
   49MOL    C15 9711   0.347   4.920   4.279  0.6805 -0.3098  0.3296
   49MOL    H16 9712   0.621   5.049   4.613 -1.2282 -0.0137 -0.1800
   49MOL    H17 9713   0.621   5.111   4.443 -0.7539  1.2352 -1.4413
   49MOL    H18 9714   0.415   4.924   4.535  1.6918 -2.6812 -0.1581
   49MOL    H19 9715   0.299   4.837   4.332 -1.1853  1.8580  2.1168
   49MOL    H20 9716   0.281   4.976   4.213  1.4295  1.0804  0.7526
   49MOL    H21 9717   0.416   4.866   4.212  0.9686  0.9996 -0.4448
   49MOL    C22 9718   0.575   4.842   4.436 -0.0702  0.7784 -0.1916
   49MOL    C23 9719   0.625   4.759   4.561 -0.0473 -0.1279 -0.2607
   49MOL    O24 9720   0.512   4.700   4.629  0.3116  0.3342 -0.3557
   49MOL    C25 9721   0.531   4.715   4.769 -0.2323  0.0195  0.8839
   49MOL    H26 9722   0.661   4.893   4.390  0.2062  2.0153  1.6675
   49MOL    H27 9723   0.534   4.773   4.362  1.0596  0.0953 -0.2030
   49MOL    H28 9724   0.690   4.823   4.620 -1.0641 -0.2156  0.9839
   49MOL    H29 9725   0.618   4.665   4.811 -1.3070 -2.8628 -0.1557
   49MOL    H30 9726   0.539   4.819   4.801 -2.8520  0.8603 -0.9545
   49MOL    H31 9727   0.442   4.664   4.805 -0.0812 -0.8111  0.1228
   49MOL    C32 9728   0.708   4.633   4.509  0.1838  0.0612  0.4433
   49MOL    C33 9729   0.837   4.673   4.441  0.5897 -0.7982  0.0771
   49MOL    O34 9730   0.934   4.725   4.530 -0.3817  0.0717 -0.4279
   49MOL    C35 9731   1.018   4.824   4.476 -0.1876 -0.6075  0.1514
   49MOL    H36 9732   0.641   4.579   4.443  0.9136 -3.9697  2.8748
   49MOL    H37 9733   0.729   4.562   4.589 -0.2350 -0.8480 -0.2482
   49MOL    H38 9734   0.811   4.749   4.367  0.3187 -0.3594  0.6113
   49MOL    H39 9735   1.070   4.783   4.389 -0.8602  0.2491 -0.6742
   49MOL    H40 9736   0.970   4.919   4.452 -0.4473 -0.0125  2.8819
   49MOL    H41 9737   1.092   4.852   4.551 -1.3711  1.5195  0.5854
   49MOL    C42 9738   0.894   4.559   4.355 -0.0316  0.4736 -0.0547
   49MOL    C43 9739   0.833   4.544   4.218  0.0894  0.0612  0.5706
   49MOL    O44 9740   0.915   4.636   4.148 -0.0863  0.5019  0.5091
   49MOL    C45 9741   0.849   4.724   4.066  0.1654  0.0011 -0.8889
   49MOL    H46 9742   0.874   4.463   4.404 -0.2320  0.7807  0.4616
   49MOL    H47 9743   1.002   4.569   4.350  0.1101 -1.2422 -1.1433
   49MOL    H48 9744   0.732   4.583   4.225  0.6499  1.5915  0.5102
   49MOL    H49 9745   0.924   4.760   3.996  2.1588  0.0013  1.1943
   49MOL    H50 9746   0.776   4.675   4.001 -1.9799  0.8690  0.7794
   49MOL    H51 9747   0.801   4.802   4.126 -1.6827 -1.9692  0.2832
   49MOL    C52 9748   0.854   4.403   4.155  0.3392 -0.4482  0.9274
   49MOL    C53 9749   0.771   4.377   4.024  0.3767  0.1273 -0.1896
   49MOL    O54 9750   0.792   4.245   3.980 -0.6116  0.5338 -0.0140
   49MOL    C55 9751   0.918   4.228   3.922  0.2724 -0.1644 -0.4789
   49MOL    H56 9752   0.840   4.325   4.229  0.1243  1.3703  2.8518
   49MOL    H57 9753   0.961   4.389   4.141  0.4551  1.8819 -0.8333
   49MOL    H58 9754   0.791   4.443   3.939  0.6839  0.0430 -0.1841
   49MOL    H59 9755   0.926   4.131   3.874 -0.9456  0.1736 -1.3930
   49MOL    H60 9756   0.937   4.305   3.847  0.9377 -0.0487 -0.1917
   49MOL    H61 9757   1.002   4.237   3.990  0.0153  2.4564 -0.4539
   49MOL    C62 9758   0.612   4.379   4.051 -0.1672 -0.2099 -0.5896
   49MOL    C63 9759   0.562   4.318   4.191 -0.5342 -0.5859  0.8640
   49MOL    O64 9760   0.423   4.335   4.211  0.3974  0.4939  0.4821
   49MOL    C65 9761   0.380   4.464   4.229 -0.4248  0.0826 -0.1973
   49MOL    H66 9762   0.571   4.333   3.961 -0.1213  0.2603 -0.8527
   49MOL    H67 9763   0.589   4.484   4.034  2.3805  0.5077  0.1483
   49MOL    H68 9764   0.617   4.366   4.273  2.3375  0.5738 -1.6498
   49MOL    H69 9765   0.407   4.518   4.138  3.8111 -0.7919  0.4167
   49MOL    H70 9766   0.272   4.476   4.231 -0.0880  3.4579  1.1574
   49MOL    H71 9767   0.423   4.507   4.319 -1.0925  1.5208 -0.5426
   49MOL    C72 9768   0.585   4.167   4.206 -0.5071  0.0985 -0.0121
   49MOL    C73 9769   0.555   4.111   4.347 -0.4547 -0.5437  0.1114
   49MOL    O74 9770   0.548   3.964   4.352 -0.2160  0.2662 -0.0237
   49MOL    C75 9771   0.425   3.919   4.289  0.2676 -0.2599 -0.0948
   49MOL    H76 9772   0.688   4.133   4.194 -0.6832 -0.7194  0.7328
   49MOL    H77 9773   0.547   4.106   4.124  0.2262  0.6778 -0.7824
   49MOL    H78 9774   0.460   4.154   4.377 -0.5310 -0.3929 -0.3462
   49MOL    H79 9775   0.339   3.958   4.343  0.0001 -0.2640 -0.5150
   49MOL    H80 9776   0.424   3.943   4.182  2.4663 -2.5294 -0.6503
   49MOL    H81 9777   0.434   3.812   4.307  0.9397  0.0478  1.4790
   49MOL    C82 9778   0.660   4.149   4.458  0.7431  0.9159 -0.4406
   49MOL    C83 9779   0.616   4.116   4.601  0.2798 -0.1150 -0.0559
   49MOL    O84 9780   0.697   4.011   4.653 -0.0038 -0.1866 -0.1477
   49MOL    C85 9781   0.654   3.884   4.608  0.2631  0.2836 -0.2502
   49MOL    H86 9782   0.682   4.256   4.457  0.6543  0.9525  0.7206
   49MOL    H87 9783   0.754   4.101   4.432 -0.5611 -2.4903  0.7384
   49MOL    H88 9784   0.513   4.082   4.607  0.5953 -1.4153 -1.7835
   49MOL    H89 9785   0.714   3.857   4.521  0.9533 -0.5639  0.4844
   49MOL    H90 9786   0.699   3.819   4.683 -0.9072  1.3857  1.4602
   49MOL    H91 9787   0.547   3.865   4.612  0.6925 -2.1589  0.2024
   49MOL    C92 9788   0.641   4.236   4.696  0.2497  0.0722  0.2097
   49MOL    C93 9789   0.594   4.233   4.841 -0.6533 -0.2279 -0.0814
   49MOL    O94 9790   0.599   4.357   4.909  0.1349  0.8044  0.0903
   49MOL    C95 9791   0.720   4.367   4.988 -0.0804  0.1459 -0.0921
   49MOL    H96 9792   0.587   4.314   4.641 -2.7207 -1.6353  0.5986
   49MOL    H97 9793   0.744   4.272   4.690  0.0424  0.5125 -0.7609
   49MOL    H98 9794   0.665   4.167   4.892  0.7595  2.4958  1.6436
   49MOL    H99 9795   0.814   4.378   4.933 -1.4935  1.0454 -2.3958
   49MOL   H100 9796   0.715   4.466   5.034 -2.5557 -0.2558  0.5599
   49MOL   H101 9797   0.730   4.287   5.061 -1.7605  1.0228  1.1482
   49MOL   C102 9798   0.458   4.168   4.863 -0.5550  0.1292  0.3253
   49MOL   C103 9799   0.334   4.238   4.811  0.6642  0.2298  0.7310
   49MOL   O104 9800   0.346   4.259   4.671  0.3239  0.5619 -0.4661
   49MOL   C105 9801   0.333   4.396   4.632 -0.4759 -0.7163 -0.0667
   49MOL   H106 9802   0.450   4.155   4.971  2.5421 -2.5669  0.2918
   49MOL   H107 9803   0.475   4.068   4.824 -0.6639  0.1548  0.2088
   49MOL   H108 9804   0.309   4.328   4.867 -0.6477  0.4928 -0.2515
   49MOL   H109 9805   0.262   4.450   4.694  0.5257 -1.8286  2.0996
   49MOL   H110 9806   0.426   4.451   4.650 -0.0612 -0.8892 -1.6017
   49MOL   H111 9807   0.306   4.415   4.529 -0.6242  0.5121  0.1965
   49MOL   C112 9808   0.206   4.143   4.831 -0.2668 -0.0710  0.9104
   49MOL   C113 9809   0.173   4.123   4.978  0.1341 -0.5653 -0.1943
   49MOL   O114 9810   0.131   4.248   5.037  0.4120  0.2483  0.5560
   49MOL   C115 9811   0.210   4.293   5.148 -0.1609 -0.2148 -0.3685
   49MOL   H116 9812   0.230   4.041   4.798  0.7813  0.2674  0.6110
   49MOL   H117 9813   0.122   4.167   4.765  1.9335 -0.8755 -2.3483
   49MOL   H118 9814   0.253   4.074   5.033 -0.1297  0.4735  1.1337
   49MOL   H119 9815   0.224   4.227   5.234 -1.3218  1.7115  1.3503
   49MOL   H120 9816   0.308   4.332   5.125 -0.1142  0.1765  0.4739
   49MOL   H121 9817   0.165   4.382   5.191  0.2812 -1.0195  1.8590
   49MOL   C122 9818   0.049   4.031   4.994  0.4393 -0.4100 -0.1567
   49MOL   C123 9819   0.037   3.898   4.925  0.3934 -0.8790  0.1288
   49MOL   O124 9820   0.161   3.829   4.955 -0.0020  0.6132  0.5117
   49MOL   C125 9821   0.198   3.723   4.865  0.2848 -0.5808  0.5928
   49MOL   H126 9822   7.774   4.091   4.963 -0.0507 -1.0521 -0.0495
   49MOL   H127 9823   0.043   4.017   5.101  0.4617  5.1612  0.7447
   49MOL   H128 9824   0.031   3.911   4.817  1.9313  1.2648  0.2736
   49MOL   H129 9825   0.109   3.667   4.838 -0.6579  0.4034  1.5554
   49MOL   H130 9826   0.234   3.771   4.774 -2.2973 -2.3443 -1.4159
   49MOL   H131 9827   0.270   3.655   4.910 -0.0420  0.4418  2.7286
   49MOL   C132 9828   7.726   3.823   4.980  0.5580 -0.5315  0.5068
   49MOL   C133 9829   7.594   3.872   4.920 -0.4829 -0.4284 -0.2404
   49MOL   O134 9830   7.597   3.822   4.787 -0.3165 -0.3684  0.3369
   49MOL   C135 9831   7.525   3.905   4.698  0.1231  0.1013  0.3162
   49MOL   H136 9832   7.721   3.832   5.089  0.8243  1.3979  0.3882
   49MOL   H137 9833   7.722   3.717   4.957 -1.6410 -0.5021  0.6686
   49MOL   H138 9834   7.604   3.981   4.927 -0.0083 -0.6218  3.1382
   49MOL   H139 9835   7.572   4.003   4.691 -0.2977  0.3096  0.3994
   49MOL   H140 9836   7.537   3.853   4.603 -2.8802 -1.8699  0.9450
   49MOL   H141 9837   7.416   3.899   4.704  0.1082  1.1685  1.5428
   49MOL   C142 9838   7.467   3.814   4.987 -0.0966 -0.2779  0.2108
   49MOL   C143 9839   7.436   3.837   5.137  0.5114 -0.3804  0.0709
   49MOL   O144 9840   7.354   3.960   5.147  0.2065  0.5018  0.0932
   49MOL   C145 9841   7.364   4.007   5.278 -0.1557 -0.0565 -0.4481
   49MOL   H146 9842   7.476   3.706   4.975  0.8256 -0.0121 -1.6980
   49MOL   H147 9843   7.379   3.845   4.930 -1.0624 -0.1888  1.7156
   49MOL   H148 9844   7.531   3.845   5.190 -0.0295  1.3871  0.8114
   49MOL   H149 9845   7.294   4.089   5.288 -0.2114 -0.4923  3.4134
   49MOL   H150 9846   7.321   3.933   5.344  1.1215 -1.2951 -0.9685
   49MOL   H151 9847   7.467   4.032   5.305  0.4913 -1.0259 -1.9223
   49MOL   C152 9848   7.333   3.727   5.187 -0.3607  0.1525  0.5115
   49MOL   C153 9849   7.396   3.610   5.264  0.0234 -0.0678 -1.0659
   49MOL   O154 9850   7.290   3.545   5.319 -0.4975 -0.7954 -0.2693
   49MOL   C155 9851   7.283   3.542   5.462 -0.0121  0.5642 -0.1010
   49MOL   H156 9852   7.295   3.678   5.098  1.5583 -0.0254 -0.2317
   49MOL   H157 9853   7.245   3.757   5.244 -0.3929 -1.4181  1.3222
   49MOL   H158 9854   7.448   3.660   5.346  0.8958 -0.9692 -1.0640
   49MOL   H159 9855   7.230   3.453   5.495 -0.4365  1.7632  2.5350
   49MOL   H160 9856   7.386   3.537   5.496  0.6696 -0.5628 -2.2681
   49MOL   H161 9857   7.225   3.632   5.487 -1.4274  0.1180 -1.6606
   49MOL   C162 9858   7.483   3.516   5.183 -0.0984  0.5569 -0.3000
   49MOL   C163 9859   7.518   3.377   5.248 -0.0971  0.6261 -0.1750
   49MOL   O164 9860   7.577   3.299   5.142 -0.5912 -0.1285  0.0170
   49MOL   C165 9861   7.490   3.204   5.088 -0.2533 -0.3444 -0.0904
   49MOL   H166 9862   7.577   3.566   5.160  0.0256  0.0850 -0.8341
   49MOL   H167 9863   7.431   3.490   5.092  0.2651 -2.0386  0.1957
   49MOL   H168 9864   7.430   3.327   5.289  0.0715  0.8999  0.5330
   49MOL   H169 9865   7.406   3.241   5.029 -0.2848 -0.6621 -0.2447
   49MOL   H170 9866   7.547   3.146   5.015  1.1847  2.3824 -1.1998
   49MOL   H171 9867   7.454   3.123   5.151  0.2768  0.1709  0.8855
   49MOL   C172 9868   7.628   3.391   5.350  0.2993 -0.1970  0.0333
   49MOL   C173 9869   7.643   3.273   5.450 -0.4852 -0.3929  0.1208
   49MOL   O174 9870   7.773   3.274   5.511 -0.5176 -0.0841  0.8792
   49MOL   C175 9871   0.032   3.148   5.503 -0.1098 -0.0302 -0.0468
   49MOL   H176 9872   7.626   3.481   5.411  3.6045 -0.5696  0.7694
   49MOL   H177 9873   7.725   3.411   5.304 -0.2491  0.9222 -0.6754
   49MOL   H178 9874   7.625   3.183   5.390 -2.2867  0.1398 -0.1928
   49MOL   H179 9875   7.791   3.058   5.537  0.1018 -0.1843 -0.1291
   49MOL   H180 9876   0.062   3.137   5.399 -0.7667 -0.5363 -0.1818
   49MOL   H181 9877   0.121   3.163   5.565  0.2897  0.9719 -0.8534
   49MOL   C182 9878   7.535   3.284   5.563 -0.3159  0.1933 -0.0370
   49MOL   C183 9879   7.492   3.173   5.642  0.5169  0.1305 -0.3831
   49MOL   O184 9880   7.394   3.229   5.736  0.0809  0.4352  0.9343
   49MOL   C185 9881   7.450   3.256   5.864 -0.0709 -0.3599  0.6600
   49MOL   H186 9882   7.441   3.323   5.526 -0.8893 -1.2613 -0.1622
   49MOL   H187 9883   7.576   3.365   5.623  0.3396 -1.1023  1.2905
   49MOL   H188 9884   7.577   3.144   5.704  1.3618  2.6397 -0.3009
   49MOL   H189 9885   7.539   3.318   5.850 -1.5919  1.7159 -0.0384
   49MOL   H190 9886   7.374   3.302   5.927 -0.1571 -0.2258  0.4611
   49MOL   H191 9887   7.488   3.171   5.921  0.9963  0.4971  1.2429
   49MOL   C192 9888   7.434   3.051   5.571  0.3153 -0.7145 -0.7505
   49MOL   C193 9889   7.318   3.082   5.476 -0.4591  0.2562  0.3648
   49MOL   O194 9890   7.269   2.959   5.415 -0.4856 -0.5137 -0.1349
   49MOL   C195 9891   7.175   2.987   5.308  0.4786  0.2327 -0.1615
   49MOL   H196 9892   7.397   2.992   5.655  1.3672  0.7611  0.7763
   49MOL   H197 9893   7.506   3.000   5.508  2.0306 -0.8863  1.3003
   49MOL   H198 9894   7.343   3.162   5.407  0.6832  1.4352  2.1161
   49MOL   H199 9895   7.089   3.047   5.339 -0.0241 -1.3046  1.5016
   49MOL   H200 9896   7.229   3.043   5.231  0.5474 -1.5085 -1.4131
   49MOL   H201 9897   7.152   2.892   5.259  0.2047  1.2890 -2.1210
   49MOL   H202 9898   7.241   3.117   5.546  0.8213  0.8865  1.4869
   50MOL     C1 9899   2.757   6.265   1.700 -0.5167  0.2803  0.0938
   50MOL     C2 9900   2.798   6.368   1.816 -0.7018 -0.2940  0.4265
   50MOL     O3 9901   2.724   6.480   1.814  0.4489 -0.2496 -0.5198
   50MOL     C4 9902   2.758   6.572   1.702  0.2220  1.0876  0.1206
   50MOL     H5 9903   2.819   6.176   1.704  1.4722  1.5842 -1.3260
   50MOL     H6 9904   2.652   6.235   1.705  0.3574 -2.9774  0.2127
   50MOL     H7 9905   2.905   6.386   1.805 -0.3899 -2.9846 -1.4616
   50MOL     H8 9906   2.702   6.665   1.702  0.4154  1.2034  0.2023
   50MOL     H9 9907   2.865   6.592   1.713  0.2886  1.7503 -1.6021
   50MOL    H10 9908   2.745   6.523   1.606 -0.7614  0.8294  0.3787
   50MOL    H11 9909   2.776   6.313   1.604  0.3022  1.1239  0.6665
   50MOL    C12 9910   2.779   6.309   1.958  0.5708 -0.1896  0.2128
   50MOL    C13 9911   2.850   6.387   2.074 -0.7103  0.0395 -0.4884
   50MOL    O14 9912   2.823   6.317   2.198  0.0237 -0.1159  0.0932
   50MOL    C15 9913   2.784   6.398   2.307 -0.1854  0.0805 -0.2595
   50MOL    H16 9914   2.815   6.206   1.958  2.3494  0.4171  0.8562
   50MOL    H17 9915   2.671   6.303   1.971  0.3393  0.9807 -1.0618
   50MOL    H18 9916   2.807   6.487   2.075 -0.5877  0.1038 -1.2202
   50MOL    H19 9917   2.846   6.487   2.313 -0.2865  0.2361 -1.3360
   50MOL    H20 9918   2.678   6.420   2.293 -0.2320  1.1004  1.5557
   50MOL    H21 9919   2.799   6.351   2.404  0.4945  0.1845 -0.3148
   50MOL    C22 9920   3.006   6.408   2.071 -0.3544 -0.1148 -0.9923
   50MOL    C23 9921   3.090   6.276   2.064  0.4843  0.6477 -0.5392
   50MOL    O24 9922   3.066   6.220   1.933 -0.1881 -0.1052  0.0383
   50MOL    C25 9923   3.059   6.070   1.942 -0.0713 -0.2873  0.1607
   50MOL    H26 9924   3.033   6.466   2.160  2.4926 -1.9481 -0.5978
   50MOL    H27 9925   3.033   6.464   1.981  0.5502 -2.1758 -2.0433
   50MOL    H28 9926   3.059   6.210   2.146 -0.0532 -0.1337 -1.3623
   50MOL    H29 9927   3.050   6.029   1.841 -0.4614 -1.0989  0.5190
   50MOL    H30 9928   3.159   6.041   1.974 -0.7511 -1.8484  0.8985
   50MOL    H31 9929   2.979   6.028   2.004  1.0571 -0.3400  1.5939
   50MOL    C32 9930   3.240   6.298   2.075 -0.1339  0.5614 -0.2414
   50MOL    C33 9931   3.313   6.254   2.210 -0.4120 -0.1445  0.0339
   50MOL    O34 9932   3.451   6.272   2.183  0.5501  0.4876  0.2246
   50MOL    C35 9933   3.543   6.164   2.207  0.5783  0.0671  0.3773
   50MOL    H36 9934   3.282   6.393   2.041  0.4780 -0.0759 -1.2934
   50MOL    H37 9935   3.288   6.225   2.010  1.0019  0.1581  1.0342
   50MOL    H38 9936   3.287   6.148   2.211 -0.1007 -0.2159  0.7916
   50MOL    H39 9937   3.489   6.069   2.209  0.4841  0.1038 -0.2988
   50MOL    H40 9938   3.612   6.156   2.123  1.2562 -0.6066  0.9946
   50MOL    H41 9939   3.589   6.180   2.305 -2.2191  1.0429  1.5884
   50MOL    C42 9940   3.279   6.327   2.339 -0.2442 -0.1360  0.2548
   50MOL    C43 9941   3.155   6.284   2.427 -1.0997 -0.1307  0.3683
   50MOL    O44 9942   3.179   6.162   2.475 -0.1285 -0.5473  0.1436
   50MOL    C45 9943   3.061   6.075   2.466 -0.1850 -0.2944 -0.5027
   50MOL    H46 9944   3.276   6.435   2.325  1.0229 -0.0813  0.3397
   50MOL    H47 9945   3.370   6.315   2.398 -0.1961  0.0664  0.2201
   50MOL    H48 9946   3.076   6.275   2.352  0.3503  2.6575 -1.5914
   50MOL    H49 9947   3.077   5.976   2.509 -1.0898 -0.0894  0.3235
   50MOL    H50 9948   2.971   6.121   2.506 -1.2310 -1.9331 -0.9344
   50MOL    H51 9949   3.045   6.049   2.362  0.2284 -4.1624  0.3403
   50MOL    C52 9950   3.111   6.386   2.537  0.4300 -0.2216  1.0600
   50MOL    C53 9951   3.213   6.393   2.650  0.8989 -0.1634 -0.0579
   50MOL    O54 9952   3.227   6.528   2.694 -0.3480 -0.3244 -0.0944
   50MOL    C55 9953   3.350   6.593   2.646 -0.2791  0.3931  0.1330
   50MOL    H56 9954   3.013   6.352   2.571 -0.2606  0.8153  0.1361
   50MOL    H57 9955   3.106   6.485   2.492  0.6580  0.0718  1.6744
   50MOL    H58 9956   3.306   6.351   2.612  0.3010 -0.8125 -0.8231
   50MOL    H59 9957   3.352   6.699   2.670  0.9463  0.3732  0.1376
   50MOL    H60 9958   3.438   6.557   2.698 -0.8756  0.6604  1.3410
   50MOL    H61 9959   3.358   6.578   2.538  0.5894  0.1506  0.2330
   50MOL    C62 9960   3.171   6.311   2.773 -0.9375 -0.2057 -0.7512
   50MOL    C63 9961   3.285   6.278   2.871  0.1361 -0.3342  0.1575
   50MOL    O64 9962   3.222   6.266   3.000 -0.0757 -0.7148  0.5243
   50MOL    C65 9963   3.306   6.306   3.108  0.3509 -0.0714  0.3405
   50MOL    H66 9964   3.120   6.220   2.743 -1.4872  0.4300 -1.7955
   50MOL    H67 9965   3.108   6.371   2.839  3.9944  2.5210  1.7044
   50MOL    H68 9966   3.348   6.367   2.867 -1.6194  0.8868 -1.0526
   50MOL    H69 9967   3.311   6.414   3.101 -1.9340  0.2414  2.7451
   50MOL    H70 9968   3.264   6.283   3.206 -5.1077 -0.0384 -1.8499
   50MOL    H71 9969   3.404   6.258   3.102  0.9349  1.2353 -0.7912
   50MOL    C72 9970   3.388   6.171   2.832  0.1557  0.0441  0.2324
   50MOL    C73 9971   3.327   6.034   2.809 -0.0637  0.1568 -0.7835
   50MOL    O74 9972   3.430   5.968   2.737  0.1167  0.1948 -0.3180
   50MOL    C75 9973   3.400   5.925   2.606 -0.6625  0.2286  0.5849
   50MOL    H76 9974   3.468   6.164   2.905  0.1085  0.1694  0.2962
   50MOL    H77 9975   3.435   6.203   2.739  1.5288  1.9979  1.5629
   50MOL    H78 9976   3.236   6.043   2.750 -0.9459  0.1595  0.5446
   50MOL    H79 9977   3.371   5.999   2.531  2.0603  0.9272  0.1869
   50MOL    H80 9978   3.499   5.892   2.575 -1.1634 -0.4057 -0.3857
   50MOL    H81 9979   3.324   5.847   2.610  0.6481 -1.0039  1.7217
   50MOL    C82 9980   3.296   5.952   2.932 -0.0399  0.0317 -0.0502
   50MOL    C83 9981   3.399   5.944   3.041 -0.1968 -0.6964 -0.2291
   50MOL    O84 9982   3.320   5.874   3.140  0.4277  0.8892 -0.0624
   50MOL    C85 9983   3.331   5.926   3.265  0.1966  0.2607 -1.0917
   50MOL    H86 9984   3.270   5.853   2.894 -1.1621  0.8913 -1.5675
   50MOL    H87 9985   3.207   5.999   2.973  0.2808 -0.2889  1.0266
   50MOL    H88 9986   3.418   6.042   3.086 -2.9263 -1.5347  2.9349
   50MOL    H89 9987   3.293   6.028   3.267  1.3395  0.6803  0.2277
   50MOL    H90 9988   3.267   5.881   3.341  2.1019 -0.6432  0.0263
   50MOL    H91 9989   3.435   5.915   3.295  0.3523  0.9032 -1.3853
   50MOL    C92 9990   3.525   5.859   3.019 -0.5350  0.3995  0.2332
   50MOL    C93 9991   3.659   5.930   3.014  0.1364  0.1480 -0.3767
   50MOL    O94 9992   3.680   5.991   3.147  0.1679 -0.4534  0.4757
   50MOL    C95 9993   3.781   6.090   3.143  0.1142 -0.5405 -0.5509
   50MOL    H96 9994   3.516   5.798   2.929 -1.3169 -1.6148  1.6302
   50MOL    H97 9995   3.531   5.788   3.102  3.1630 -0.6865 -0.8333
   50MOL    H98 9996   3.659   6.006   2.936  0.1981  0.1050 -0.4186
   50MOL    H99 9997   3.883   6.051   3.145 -0.4112 -1.8785  1.0419
   50MOL   H100 9998   3.770   6.153   3.055  1.3482 -0.4296 -0.6375
   50MOL   H101 9999   3.772   6.150   3.234 -1.5682 -1.3082 -0.2015
   50MOL   C10210000   3.776   5.827   2.974  0.5403  0.6572 -0.3377
   50MOL   C10310001   3.849   5.867   2.840 -0.8983 -0.1893 -0.1940
   50MOL   O10410002   3.973   5.798   2.831  0.3077  0.0550  0.4557
   50MOL   C10510003   4.073   5.837   2.919 -0.8505  0.4703  0.3242
   50MOL   H10610004   3.748   5.722   2.975 -0.5662  0.9448 -0.6445
   50MOL   H10710005   3.841   5.839   3.060  0.1934 -0.6898  0.1240
   50MOL   H10810006   3.871   5.973   2.850 -0.5159 -0.2501 -0.3863
   50MOL   H10910007   4.153   5.763   2.919 -0.1955  1.1830  0.3102
   50MOL   H11010008   4.115   5.929   2.880  0.4688  0.1445  0.9733
   50MOL   H11110009   4.050   5.866   3.021 -3.5939 -0.0069 -0.1113
   50MOL   C11210010   3.762   5.831   2.716 -0.0981 -0.3721 -0.1163
   50MOL   C11310011   3.809   5.904   2.582 -0.8320 -0.1674 -0.4141
   50MOL   O11410012   3.744   5.849   2.466 -0.2612 -0.4748  0.5117
   50MOL   C11510013   3.808   5.734   2.421 -0.2147 -0.6367  0.4644
   50MOL   H11610014   3.658   5.856   2.735  0.2797  0.7231  0.5295
   50MOL   H11710015   3.769   5.723   2.704 -0.7343 -0.1698 -2.5328
   50MOL   H11810016   3.917   5.890   2.584 -0.9258 -0.7693  0.6935
   50MOL   H11910017   3.788   5.651   2.488  2.7110 -2.5789 -0.9396
   50MOL   H12010018   3.757   5.700   2.331  1.5795  0.8579 -1.1577
   50MOL   H12110019   3.914   5.744   2.398 -0.3986  1.2586  0.3625
   50MOL   C12210020   3.787   6.056   2.575  0.2397  0.1234 -0.0700
   50MOL   C12310021   3.877   6.139   2.482 -0.6331  0.4339 -0.2179
   50MOL   O12410022   3.825   6.116   2.353 -0.5302  0.0461 -0.0549
   50MOL   C12510023   3.925   6.080   2.248  0.2159 -0.0646  0.7468
   50MOL   H12610024   3.801   6.089   2.678 -1.3181 -1.2555  0.6169
   50MOL   H12710025   3.685   6.083   2.546  0.9023  0.6884 -1.9206
   50MOL   H12810026   3.983   6.112   2.487 -1.0518 -1.3429 -0.9488
   50MOL   H12910027   3.882   6.097   2.149 -1.1208 -1.3681  1.0950
   50MOL   H13010028   4.019   6.135   2.253 -0.2415  0.5931  2.6004
   50MOL   H13110029   3.942   5.973   2.260 -2.7350 -0.4659  1.6366
   50MOL   C13210030   3.849   6.292   2.512  0.0065 -0.4291  0.2532
   50MOL   C13310031   3.958   6.343   2.616 -0.5952 -0.6191 -0.7654
   50MOL   O13410032   4.082   6.335   2.558  0.1834  0.2616 -0.3999
   50MOL   C13510033   4.190   6.277   2.626 -0.4068 -0.0209  0.1744
   50MOL   H13610034   3.742   6.307   2.525  0.1282  0.9317 -0.1741
   50MOL   H13710035   3.869   6.348   2.421  3.4736 -0.8934  0.6634
   50MOL   H13810036   3.951   6.275   2.701  0.3471 -0.7568 -0.7954
   50MOL   H13910037   4.282   6.264   2.568 -0.1131 -1.7150  0.9879
   50MOL   H14010038   4.217   6.325   2.720 -0.8900  0.7016 -0.0614
   50MOL   H14110039   4.156   6.174   2.642  0.0601 -0.0072  1.2548
   50MOL   C14210040   3.941   6.489   2.670  0.3414  0.8228  0.4959
   50MOL   C14310041   3.807   6.520   2.747 -0.5141 -0.3410 -0.2974
   50MOL   O14410042   3.845   6.502   2.884  0.3108  0.4934 -0.1750
   50MOL   C14510043   3.759   6.403   2.944 -0.1141  0.4130  0.0467
   50MOL   H14610044   3.952   6.563   2.591 -0.2133  0.0976 -0.2739
   50MOL   H14710045   4.023   6.521   2.735 -0.4405  2.3038  0.7452
   50MOL   H14810046   3.729   6.455   2.708 -3.6400  0.5223  4.1373
   50MOL   H14910047   3.791   6.388   3.047  0.7381  0.3337 -0.2262
   50MOL   H15010048   3.652   6.421   2.953 -0.9116 -3.4074 -0.8322
   50MOL   H15110049   3.765   6.307   2.892 -0.3645  1.5523 -2.1724
   50MOL   C15210050   3.769   6.667   2.732  0.5827 -0.3762 -0.0455
   50MOL   C15310051   3.710   6.710   2.596 -0.2945  0.0875 -0.3678
   50MOL   O15410052   3.633   6.598   2.560 -0.5471 -0.1882 -0.3110
   50MOL   C15510053   3.633   6.589   2.420  0.4790 -0.3371 -0.0651
   50MOL   H15610054   3.849   6.741   2.742 -1.2980  1.9958 -2.0093
   50MOL   H15710055   3.695   6.691   2.808  0.9928 -0.0111  0.2419
   50MOL   H15810056   3.794   6.728   2.529  0.4142 -1.5274  0.0674
   50MOL   H15910057   3.589   6.492   2.396 -0.1755 -0.2022  0.5930
   50MOL   H16010058   3.566   6.663   2.376 -0.4761 -0.6315  0.8650
   50MOL   H16110059   3.728   6.598   2.368  0.3471 -0.2088 -0.2836
   50MOL   C16210060   3.633   6.841   2.611 -0.0967  0.1781 -0.7576
   50MOL   C16310061   3.720   6.965   2.653  0.3403 -0.3248  0.0878
   50MOL   O16410062   3.838   6.947   2.574  0.1432 -0.0184 -0.0626
   50MOL   C16510063   3.956   7.019   2.618  0.6712  0.4921  0.0617
   50MOL   H16610064   3.550   6.838   2.681  2.1961  0.1084  2.0517
   50MOL   H16710065   3.586   6.865   2.515  0.1774  1.0468 -0.6846
   50MOL   H16810066   3.740   6.955   2.760  0.6795 -1.3746 -0.0658
   50MOL   H16910067   4.006   6.983   2.708 -0.2664 -1.3911 -0.1455
   50MOL   H17010068   4.030   7.015   2.539 -1.5329 -1.9976 -1.9954
   50MOL   H17110069   3.937   7.126   2.631 -2.0729  0.0997 -0.3558
   50MOL   C17210070   3.653   7.107   2.626  0.1648 -0.5183  0.5172
   50MOL   C17310071   3.514   7.127   2.681  0.2322  0.4024  0.2333
   50MOL   O17410072   3.514   7.071   2.818 -0.2967 -0.4046 -0.6571
   50MOL   C17510073   3.590   7.129   2.917 -0.6505  0.3333  0.0445
   50MOL   H17610074   3.654   7.127   2.519  3.4881  0.6373  0.7060
   50MOL   H17710075   3.713   7.191   2.661 -2.1335  1.3061  0.1675
   50MOL   H17810076   3.451   7.069   2.614  1.7241  1.5842 -2.2667
   50MOL   H17910077   3.555   7.088   3.011  0.4554 -0.8869 -0.0726
   50MOL   H18010078   3.697   7.112   2.901 -0.6320  0.1598  0.3597
   50MOL   H18110079   3.568   7.236   2.918  0.0187  0.4704  0.1168
   50MOL   C18210080   3.462   7.271   2.669 -0.2873 -0.1064 -0.5074
   50MOL   C18310081   3.316   7.291   2.708  0.0656 -0.1195  1.0201
   50MOL   O18410082   3.288   7.432   2.697 -0.2303 -0.1930  0.6813
   50MOL   C18510083   3.179   7.477   2.773  0.0360 -0.0394  0.0623
   50MOL   H18610084   3.474   7.292   2.562  2.6958 -1.9915 -0.6113
   50MOL   H18710085   3.518   7.340   2.732 -0.0703 -0.4207 -0.3537
   50MOL   H18810086   3.322   7.263   2.813 -1.6943  1.2096  1.4999
   50MOL   H18910087   3.195   7.581   2.801 -1.1312  0.0665  0.3449
   50MOL   H19010088   3.091   7.486   2.710 -0.8756 -2.8113  0.8989
   50MOL   H19110089   3.158   7.422   2.865  2.5202 -0.0326  0.6650
   50MOL   C19210090   3.211   7.208   2.630  0.3924  0.1309 -0.2832
   50MOL   C19310091   3.147   7.088   2.712 -0.1738  0.3684 -0.1125
   50MOL   O19410092   3.050   7.022   2.634  0.0133 -0.4037 -0.7933
   50MOL   C19510093   3.026   6.891   2.688  0.0141  0.5118  0.3229
   50MOL   H19610094   3.260   7.176   2.538 -1.0877  1.1586 -1.4501
   50MOL   H19710095   3.143   7.278   2.584  1.7028  0.0654 -2.3600
   50MOL   H19810096   3.089   7.131   2.794  1.6802  0.4214  1.2148
   50MOL   H19910097   3.116   6.831   2.704  0.0813  0.7070  0.6623
   50MOL   H20010098   2.981   6.895   2.787  0.1320  0.3441  0.3836
   50MOL   H20110099   2.974   6.820   2.623 -0.6605 -0.4165  1.8683
   50MOL   H20210100   3.227   7.022   2.746 -2.1304 -1.9944  0.0514
   51MOL     C110101   5.558   5.654   7.672  0.5078 -0.1005 -0.0277
   51MOL     C210102   5.563   5.719   7.532  0.3004  0.3899  0.0789
   51MOL     O310103   5.619   5.619   7.445 -0.2476  0.5834 -0.0583
   51MOL     C410104   5.665   5.663   7.315  0.2912  0.0369 -0.0243
   51MOL     H510105   5.642   5.612   7.727 -0.6277 -2.1482  0.2011
   51MOL     H610106   5.505   5.720   7.740  0.1896  1.0686 -1.3947
   51MOL     H710107   5.641   5.794   7.533  0.4755  0.2420 -1.4184
   51MOL     H810108   5.704   5.575   7.263 -1.6751 -1.1327  0.3878
   51MOL     H910109   5.592   5.721   7.258  2.3719  2.0542 -0.6917
   51MOL    H1010110   5.751   5.728   7.328 -0.7504  1.1826  1.1839
   51MOL    H1110111   5.498   5.562   7.669 -0.5133  0.5498  0.3173
   51MOL    C1210112   5.430   5.765   7.477 -0.5685 -0.3361 -0.2731
   51MOL    C1310113   5.349   5.865   7.563  0.3441 -0.0747  0.3403
   51MOL    O1410114   5.450   5.972   7.571 -0.2449  0.4123  0.0094
   51MOL    C1510115   5.429   6.086   7.652 -0.0723  0.1412  0.2485
   51MOL    H1610116   5.379   5.668   7.477  1.5050 -1.4557  0.2368
   51MOL    H1710117   5.437   5.812   7.379 -0.8241 -0.9515 -0.5896
   51MOL    H1810118   5.331   5.831   7.665  1.4012 -2.1520 -0.1489
   51MOL    H1910119   5.519   6.147   7.657  0.9877 -1.5207  1.7609
   51MOL    H2010120   5.346   6.145   7.613  0.4128 -0.3190 -1.5542
   51MOL    H2110121   5.403   6.061   7.754  1.7529 -0.8498  0.4925
   51MOL    C2210122   5.227   5.918   7.494 -0.8921  0.4473  0.1418
   51MOL    C2310123   5.112   5.822   7.480  0.4566 -0.1520 -0.1377
   51MOL    O2410124   5.061   5.808   7.616  0.2033 -0.7584 -0.0791
   51MOL    C2510125   4.971   5.700   7.642  0.0839 -0.2872  0.2823
   51MOL    H2610126   5.261   5.946   7.395  0.6742  0.0667  0.5515
   51MOL    H2710127   5.184   6.007   7.539 -0.3402  1.6653 -1.6804
   51MOL    H2810128   5.133   5.720   7.448  0.2919 -1.0995  2.6603
   51MOL    H2910129   4.943   5.709   7.747 -1.3181 -2.9297  0.1796
   51MOL    H3010130   4.881   5.715   7.584 -0.8141 -0.4555  1.6063
   51MOL    H3110131   5.005   5.601   7.612  1.2090  0.2503 -0.2372
   51MOL    C3210132   5.000   5.881   7.384  0.6157  0.2305  0.1321
   51MOL    C3310133   5.054   5.898   7.245  0.3939 -0.5343  0.2167
   51MOL    O3410134   5.135   5.787   7.208 -0.1571  0.1242 -0.5715
   51MOL    C3510135   5.242   5.828   7.122  0.5666 -0.0072 -0.5102
   51MOL    H3610136   4.961   5.975   7.421 -3.0832 -2.3651  3.1694
   51MOL    H3710137   4.914   5.814   7.382 -0.1338  1.1007  2.1207
   51MOL    H3810138   5.115   5.988   7.236 -0.8211  0.3765  0.9861
   51MOL    H3910139   5.319   5.753   7.137 -0.6994 -1.3499 -0.6907
   51MOL    H4010140   5.222   5.837   7.015  0.0910 -0.9887 -0.5020
   51MOL    H4110141   5.289   5.920   7.159 -0.3525  0.2605  0.0290
   51MOL    C4210142   4.941   5.902   7.137 -0.1680 -0.4523 -0.1997
   51MOL    C4310143   4.876   6.041   7.145  0.5935 -0.2690 -0.1390
   51MOL    O4410144   4.970   6.132   7.095  0.0153  0.0417 -0.0729
   51MOL    C4510145   4.938   6.267   7.112 -0.3037 -0.0777 -0.3770
   51MOL    H4610146   4.868   5.826   7.167  0.6201 -0.3866  2.0115
   51MOL    H4710147   4.971   5.870   7.037  0.2162 -2.1098  0.4271
   51MOL    H4810148   4.859   6.059   7.251  0.8939  0.0877 -0.1529
   51MOL    H4910149   5.021   6.337   7.108 -1.4714  1.3918  0.6031
   51MOL    H5010150   4.864   6.304   7.041  0.1195  1.5251  0.0039
   51MOL    H5110151   4.892   6.294   7.207  0.7954 -0.6802  0.3373
   51MOL    C5210152   4.741   6.053   7.066  0.4654 -0.4107 -0.2212
   51MOL    C5310153   4.622   6.118   7.138 -0.6144  0.6560 -0.1797
   51MOL    O5410154   4.526   6.151   7.041 -0.0084  0.3587  0.5937
   51MOL    C5510155   4.457   6.276   7.067  0.0746  0.3989 -0.1716
   51MOL    H5610156   4.703   5.955   7.037 -0.0737 -1.0782  2.6161
   51MOL    H5710157   4.761   6.099   6.970  2.4967 -1.6917 -0.4557
   51MOL    H5810158   4.663   6.204   7.191  4.4537 -0.6998 -1.5545
   51MOL    H5910159   4.413   6.271   7.166 -1.6320 -0.3425 -0.9495
   51MOL    H6010160   4.521   6.365   7.063  0.5297  0.0727 -0.2112
   51MOL    H6110161   4.378   6.296   6.995 -2.1652  0.2128  2.1866
   51MOL    C6210162   4.553   6.029   7.253 -0.0060  0.3717  0.0063
   51MOL    C6310163   4.617   6.038   7.395 -0.2660 -0.3314 -0.4862
   51MOL    O6410164   4.622   6.172   7.432 -0.0648 -0.0564  0.0972
   51MOL    C6510165   4.738   6.191   7.523 -0.0183  0.0092 -0.0491
   51MOL    H6610166   4.549   5.926   7.219  0.6468 -0.1813  1.5690
   51MOL    H6710167   4.450   6.057   7.277 -0.4112 -1.2499  0.1912
   51MOL    H6810168   4.715   5.989   7.395 -1.3473 -2.5548 -0.7739
   51MOL    H6910169   4.742   6.139   7.619  1.6465  0.6490  0.2394
   51MOL    H7010170   4.833   6.167   7.477  0.3797  0.6065  0.4568
   51MOL    H7110171   4.741   6.299   7.533  1.1784  0.2591 -2.7228
   51MOL    C7210172   4.536   5.957   7.493  0.4676 -0.0004  0.2318
   51MOL    C7310173   4.519   5.804   7.464 -0.2000 -0.7204 -0.2374
   51MOL    O7410174   4.646   5.761   7.419  0.4104  0.1698  0.0150
   51MOL    C7510175   4.648   5.665   7.320 -0.7560 -0.5763 -0.1101
   51MOL    H7610176   4.434   5.993   7.504  0.0210 -0.8193 -1.1056
   51MOL    H7710177   4.570   5.974   7.595 -1.8559  0.3887  0.9598
   51MOL    H7810178   4.445   5.801   7.383 -0.6793  0.6973  0.1309
   51MOL    H7910179   4.736   5.603   7.338  0.0062  0.5119 -0.0608
   51MOL    H8010180   4.565   5.596   7.307 -0.3884 -1.3635  1.5396
   51MOL    H8110181   4.659   5.723   7.228 -1.9400 -0.7466 -0.3581
   51MOL    C8210182   4.477   5.727   7.588 -0.4426 -0.2073 -0.7616
   51MOL    C8310183   4.327   5.753   7.631  0.0200 -0.0026 -0.3609
   51MOL    O8410184   4.252   5.690   7.517  0.4873 -0.2635 -0.2615
   51MOL    C8510185   4.126   5.748   7.491 -0.4308  0.8938 -0.2976
   51MOL    H8610186   4.540   5.752   7.674 -1.8212  0.1819  0.1598
   51MOL    H8710187   4.495   5.622   7.566 -0.2403 -0.3835  0.1858
   51MOL    H8810188   4.299   5.858   7.617 -2.9584 -1.0525 -2.8180
   51MOL    H8910189   4.140   5.848   7.449  1.0360  0.9746  0.3432
   51MOL    H9010190   4.073   5.683   7.421  1.8026 -1.9650  0.5664
   51MOL    H9110191   4.071   5.748   7.584  0.3224  1.0339  0.1541
   51MOL    C9210192   4.284   5.691   7.772  0.0653  0.9088  0.5165
   51MOL    C9310193   4.281   5.775   0.086 -0.3280  0.1039  0.0359
   51MOL    O9410194   4.194   5.720   0.186 -0.2239  0.3145 -0.4481
   51MOL    C9510195   4.063   5.771   0.203  0.1382 -0.1998 -0.5521
   51MOL    H9610196   4.340   5.602   7.799 -0.9785  0.3004  0.7298
   51MOL    H9710197   4.182   5.651   7.765  0.1186  0.8501  0.0559
   51MOL    H9810198   4.245   5.870   0.048  0.7421  1.0230  1.2703
   51MOL    H9910199   4.068   5.863   0.261  2.2232 -0.1658 -0.7538
   51MOL   H10010200   4.019   5.789   0.105 -0.1287 -0.0133 -0.3982
   51MOL   H10110201   3.995   5.705   0.255 -0.9029  1.1399 -0.1778
   51MOL   C10210202   4.417   5.792   0.150 -0.7708  0.3512  0.6162
   51MOL   C10310203   4.414   5.879   0.279  0.3823  0.2354 -0.0001
   51MOL   O10410204   4.543   5.915   0.336 -0.1309  0.3316  0.2084
   51MOL   C10510205   4.613   5.807   0.379 -0.7762  0.0153 -0.2698
   51MOL   H10610206   4.496   5.834   0.087  1.1196 -0.5438  2.3317
   51MOL   H10710207   4.434   5.689   0.180 -2.5840  0.3588  1.6689
   51MOL   H10810208   4.360   5.822   0.355  0.0717  0.3447 -0.1372
   51MOL   H10910209   4.689   5.852   0.442 -0.8602 -1.8079  1.1667
   51MOL   H11010210   4.551   5.742   0.441  0.4941  1.0641  2.1563
   51MOL   H11110211   4.657   5.741   0.304 -0.5996 -0.0426 -0.1121
   51MOL   C11210212   4.336   6.015   0.266  0.3000  0.0063  0.3601
   51MOL   C11310213   4.326   6.093   0.392 -0.2078  0.7280 -0.0382
   51MOL   O11410214   4.263   6.218   0.367 -0.1834 -0.2679 -0.0343
   51MOL   C11510215   4.353   6.321   0.333  0.3037  0.3382 -0.4343
   51MOL   H11610216   4.233   5.995   0.234  0.0803  1.7151 -0.0670
   51MOL   H11710217   4.372   6.068   0.178 -1.1180  2.2290  1.0812
   51MOL   H11810218   4.430   6.099   0.424 -0.1841  0.5647 -0.0829
   51MOL   H11910219   4.398   6.316   0.233 -0.2567  1.6351 -0.7563
   51MOL   H12010220   4.295   6.413   0.343 -0.0582  0.4606 -3.1605
   51MOL   H12110221   4.441   6.321   0.397  0.1422  0.1054 -0.2106
   51MOL   C12210222   4.236   6.023   0.499  1.0844 -0.3044  0.4893
   51MOL   C12310223   4.247   6.072   0.645 -0.6689 -0.9509 -0.1574
   51MOL   O12410224   4.130   6.018   0.712 -0.6433  0.5848 -0.0201
   51MOL   C12510225   4.038   6.108   0.768  0.8076 -0.2229 -0.2936
   51MOL   H12610226   4.252   5.916   0.504 -0.7434 -0.5247  2.0602
   51MOL   H12710227   4.133   6.036   0.466  0.9040  0.4380  1.3210
   51MOL   H12810228   4.234   6.180   0.632 -1.7203 -1.1796 -1.1172
   51MOL   H12910229   3.975   6.141   0.685 -1.6992 -2.3505  0.6921
   51MOL   H13010230   3.969   6.059   0.836  0.6820 -3.4160 -2.5935
   51MOL   H13110231   4.093   6.191   0.812 -0.3408  1.7587 -2.4711
   51MOL   C13210232   4.376   6.031   0.717 -0.5786 -0.3009  0.4176
   51MOL   C13310233   4.411   6.110   0.849  0.3602 -0.2176  0.5555
   51MOL   O13410234   4.386   6.025   0.967 -0.6428  0.4360 -0.4712
   51MOL   C13510235   4.326   6.102   1.070  0.0498  0.9513 -0.4618
   51MOL   H13610236   4.459   6.039   0.648 -0.2414  0.1887  0.8717
   51MOL   H13710237   4.370   5.925   0.740 -0.0296 -0.6228 -0.9261
   51MOL   H13810238   4.354   6.203   0.854  0.8090  0.1750 -1.5521
   51MOL   H13910239   4.218   6.110   1.056  0.0106  0.6661 -0.3342
   51MOL   H14010240   4.350   6.055   1.165  1.6629  1.8899 -0.4001
   51MOL   H14110241   4.354   6.205   1.088  0.6292  0.6535  0.3580
   51MOL   C14210242   4.564   6.157   0.841  0.4267 -0.0460 -0.1822
   51MOL   C14310243   4.587   6.267   0.734  0.8518  0.1962  0.1085
   51MOL   O14410244   4.488   6.370   0.775  0.4888 -0.4893 -0.1688
   51MOL   C14510245   4.464   6.472   0.681  0.3406 -0.1004  0.0350
   51MOL   H14610246   4.630   6.074   0.817  2.5340  1.3781  0.4903
   51MOL   H14710247   4.600   6.203   0.934  0.2591 -0.0655 -0.1078
   51MOL   H14810248   4.549   6.233   0.638 -0.7101 -0.0644  0.8058
   51MOL   H14910249   4.532   6.557   0.690 -0.9729  1.1943 -1.9161
   51MOL   H15010250   4.443   6.434   0.580  1.1980  0.8477 -0.5078
   51MOL   H15110251   4.370   6.518   0.710  1.1938  2.2075 -0.7275
   51MOL   C15210252   4.728   6.329   0.724  0.1586 -0.0289 -0.8996
   51MOL   C15310253   4.838   6.237   0.662  0.8273  0.2446 -0.0003
   51MOL   O15410254   4.871   6.125   0.745 -0.4134  0.6588 -0.0821
   51MOL   C15510255   4.959   6.161   0.849 -0.2787  0.1085 -0.2252
   51MOL   H15610256   4.752   6.357   0.826 -1.4812  0.6189 -0.6757
   51MOL   H15710257   4.723   6.418   0.661 -2.1120 -0.2326 -1.0371
   51MOL   H15810258   4.928   6.295   0.646  0.5376  0.6243 -0.2536
   51MOL   H15910259   4.902   6.195   0.936  0.4759  2.0016 -0.4608
   51MOL   H16010260   5.021   6.075   0.874  0.4349 -0.0244 -2.3411
   51MOL   H16110261   5.037   6.229   0.816 -0.2430  0.4620  0.5632
   51MOL   C16210262   4.808   6.181   0.522  0.9298  0.0244  0.0342
   51MOL   C16310263   4.777   6.294   0.416  0.2266  0.7473  0.4735
   51MOL   O16410264   4.893   6.375   0.399  0.3069 -0.3338 -0.4394
   51MOL   C16510265   4.867   6.516   0.397 -0.0731 -0.3974 -1.4536
   51MOL   H16610266   4.723   6.117   0.546 -0.6707  1.5886 -1.3392
   51MOL   H16710267   4.882   6.110   0.486 -1.8217 -1.6175 -2.6405
   51MOL   H16810268   4.695   6.351   0.459 -0.8875 -0.2035 -0.3154
   51MOL   H16910269   4.896   6.576   0.484 -3.3443  1.8811 -1.8254
   51MOL   H17010270   4.923   6.555   0.313  1.5376 -0.3730 -0.3827
   51MOL   H17110271   4.763   6.543   0.379 -0.0364 -0.2240 -1.4178
   51MOL   C17210272   4.725   6.253   0.278  0.3502 -0.9225 -0.5045
   51MOL   C17310273   4.824   6.147   0.207  0.1338  0.3940 -0.2590
   51MOL   O17410274   4.767   6.109   0.085 -0.0330 -0.7320  0.8477
   51MOL   C17510275   4.796   5.970   0.051  0.5275 -0.6274 -0.4716
   51MOL   H17610276   4.719   6.345   0.220  0.9811 -0.0869  0.7478
   51MOL   H17710277   4.629   6.202   0.278  0.8077 -1.8042  0.6024
   51MOL   H17810278   4.828   6.060   0.273 -0.8293  0.8209  0.3799
   51MOL   H17910279   4.901   5.955   0.030  0.7497  0.5386 -0.2251
   51MOL   H18010280   4.763   5.897   0.125  0.1373  1.5100  1.5588
   51MOL   H18110281   4.745   5.960   7.766  1.0027  0.5229 -0.8597
   51MOL   C18210282   4.977   6.183   0.198 -0.3888 -0.6367 -0.3754
   51MOL   C18310283   5.019   6.304   0.107 -0.1480 -0.5508  0.2436
   51MOL   O18410284   5.161   6.329   0.097 -0.2471  0.3307  0.4032
   51MOL   C18510285   5.201   6.436   0.189 -0.3440 -0.3840 -0.3630
   51MOL   H18610286   5.028   6.096   0.157  1.2032  0.2653 -0.3704
   51MOL   H18710287   5.021   6.191   0.297  0.5102 -0.3501 -0.7954
   51MOL   H18810288   4.974   6.393   0.151  0.6218  0.4389 -0.9305
   51MOL   H18910289   5.294   6.487   0.163  0.6365 -1.1192  1.6021
   51MOL   H19010290   5.143   6.527   0.171 -0.7825 -0.9162 -1.7186
   51MOL   H19110291   5.200   6.416   0.296  0.4695 -2.0086 -0.6422
   51MOL   C19210292   4.993   6.289   7.766  0.5068 -0.1842 -0.9329
   51MOL   C19310293   5.028   6.413   7.677 -0.0583  0.0690  0.1303
   51MOL   O19410294   4.981   6.396   7.548 -0.0049  0.3229  0.2018
   51MOL   C19510295   5.042   6.500   7.466 -0.3556  0.0519 -0.5348
   51MOL   H19610296   4.892   6.258   7.739  0.0686  0.5493 -0.1641
   51MOL   H19710297   5.052   6.204   7.732 -0.0149 -1.5504  1.4759
   51MOL   H19810298   5.136   6.428   7.670  0.2548 -0.4675  3.2266
   51MOL   H19910299   5.001   6.497   7.365 -0.7165  0.5857 -0.4066
   51MOL   H20010300   5.011   6.599   7.500 -0.9745 -0.8877  1.7462
   51MOL   H20110301   5.151   6.502   7.462 -0.4289  2.9740 -2.0699
   51MOL   H20210302   4.982   6.498   7.727  0.3392  0.0668  0.5050
   52MOL     C110303   3.360   2.308   2.464 -0.3250  0.4915 -0.3183
   52MOL     C210304   3.406   2.447   2.413 -0.9810  0.3055 -0.2125
   52MOL     O310305   3.421   2.530   2.528  0.0063 -0.0721 -0.3716
   52MOL     C410306   3.306   2.610   2.549  0.8626 -0.0606 -0.2845
   52MOL     H510307   3.306   2.247   2.392 -1.0882  0.8270 -0.0347
   52MOL     H610308   3.443   2.248   2.501 -1.2283 -1.4665 -1.3869
   52MOL     H710309   3.344   2.484   2.330  1.1734  1.6354 -1.2815
   52MOL     H810310   3.257   2.639   2.456  0.5827  1.4757  0.3203
   52MOL     H910311   3.236   2.549   2.606 -0.7259  2.3383  0.4089
   52MOL    H1010312   3.331   2.696   2.611 -1.8612  0.4331  0.1964
   52MOL    H1110313   3.287   2.329   2.543 -1.4071  1.3355 -1.5245
   52MOL    C1210314   3.549   2.433   2.344  0.4458  0.0752  0.2089
   52MOL    C1310315   3.632   2.560   2.338  0.0761  0.2280  0.3169
   52MOL    O1410316   3.761   2.536   2.282 -0.3207 -0.4580 -0.5357
   52MOL    C1510317   3.866   2.593   2.360  0.2176 -0.0198 -0.1830
   52MOL    H1610318   3.532   2.409   2.239 -0.1159 -0.3874  0.4021
   52MOL    H1710319   3.610   2.353   2.387 -0.7100 -1.5161 -1.0092
   52MOL    H1810320   3.647   2.582   2.444 -0.0535 -1.5739  0.7109
   52MOL    H1910321   3.889   2.527   2.444  1.9629 -0.1059 -0.6937
   52MOL    H2010322   3.958   2.592   2.301 -0.0003  1.6747 -0.5677
   52MOL    H2110323   3.858   2.697   2.391  0.1015  0.2331 -1.0448
   52MOL    C2210324   3.555   2.673   2.268  0.3102  0.5941 -0.5369
   52MOL    C2310325   3.622   2.818   2.262  0.1744  0.5205 -0.7819
   52MOL    O2410326   3.551   2.895   2.162 -0.0349 -0.2297  0.2677
   52MOL    C2510327   3.591   2.873   2.034  0.4889 -0.3179  0.3153
   52MOL    H2610328   3.462   2.690   2.321  0.6602  0.7482  0.0329
   52MOL    H2710329   3.529   2.635   2.169 -0.5855  0.1558 -0.1394
   52MOL    H2810330   3.718   2.793   2.218  0.5866  1.3609 -0.3828
   52MOL    H2910331   3.625   2.773   2.006 -1.4032 -1.3205  1.4674
   52MOL    H3010332   3.503   2.877   1.970  0.7139 -2.0454 -0.1311
   52MOL    H3110333   3.666   2.949   2.011  1.1032 -1.3808 -1.2387
   52MOL    C3210334   3.621   2.888   2.402 -0.1900  0.2087 -0.0081
   52MOL    C3310335   3.690   3.035   2.401  0.3157 -0.0196 -0.6490
   52MOL    O3410336   3.734   3.062   2.527  0.0911 -0.3558 -0.3103
   52MOL    C3510337   3.635   3.099   2.618  0.0063 -0.5288  0.1264
   52MOL    H3610338   3.674   2.820   2.469 -1.2586  1.7094  2.4430
   52MOL    H3710339   3.517   2.898   2.434 -0.7267 -4.2334 -0.1548
   52MOL    H3810340   3.616   3.114   2.388 -0.1599  0.3947  3.6331
   52MOL    H3910341   3.679   3.105   2.717  0.1743  1.2579 -0.0475
   52MOL    H4010342   3.586   3.194   2.597 -2.3935 -1.2240  2.3462
   52MOL    H4110343   3.556   3.024   2.609 -0.3441 -0.0990 -0.4702
   52MOL    C4210344   3.815   3.042   2.314  0.0822 -0.3055 -0.9628
   52MOL    C4310345   3.895   3.174   2.322  0.4329 -0.7155 -0.0214
   52MOL    O4410346   3.975   3.186   2.214  0.1983  0.2954  0.2034
   52MOL    C4510347   4.081   3.094   2.209 -0.0516 -0.5932  0.6111
   52MOL    H4610348   3.785   3.030   2.210 -0.1175 -1.8574 -0.7320
   52MOL    H4710349   3.880   2.956   2.328  2.0914  1.2738 -0.3701
   52MOL    H4810350   3.969   3.184   2.402 -1.1136  0.5948  1.2700
   52MOL    H4910351   4.134   3.098   2.305 -1.5828  0.8789  1.4255
   52MOL    H5010352   4.045   2.991   2.208 -1.8699  0.0234  0.2629
   52MOL    H5110353   4.151   3.115   2.128 -0.0180  1.1857  1.0876
   52MOL    C5210354   3.806   3.296   2.313  0.8171 -0.1823 -1.1042
   52MOL    C5310355   3.878   3.432   2.318 -0.7128  0.3180  0.6084
   52MOL    O5410356   3.784   3.534   2.326 -0.1737  0.2857  0.1148
   52MOL    C5510357   3.783   3.630   2.230  0.4991  0.0386 -0.0090
   52MOL    H5610358   3.726   3.294   2.388 -2.9975 -3.1644 -5.0137
   52MOL    H5710359   3.738   3.294   2.228 -2.8433  1.1987  1.6684
   52MOL    H5810360   3.927   3.456   2.223 -2.0063  1.3847  0.2042
   52MOL    H5910361   3.778   3.576   2.136 -0.0958 -1.8939  1.1004
   52MOL    H6010362   3.691   3.689   2.243 -1.7599 -3.1745 -0.8417
   52MOL    H6110363   3.871   3.695   2.225  0.3083  0.3820  0.8493
   52MOL    C6210364   3.984   3.461   2.436 -0.3530 -0.2142  0.0915
   52MOL    C6310365   4.123   3.419   2.394  0.0452  0.4114  0.0650
   52MOL    O6410366   4.157   3.496   2.285 -0.0519  0.1655 -0.0964
   52MOL    C6510367   4.223   3.425   2.180  0.8476 -0.2519  0.0063
   52MOL    H6610368   3.948   3.410   2.525 -2.6860  0.0788 -0.6670
   52MOL    H6710369   3.989   3.567   2.461 -0.0107 -0.3911  0.7881
   52MOL    H6810370   4.135   3.312   2.376  1.0834  0.0628  2.5924
   52MOL    H6910371   4.144   3.366   2.133 -0.2918  1.2706 -0.0479
   52MOL    H7010372   4.273   3.490   2.108  1.0296 -1.8273 -1.3114
   52MOL    H7110373   4.295   3.356   2.222 -0.8252 -2.1924 -0.2377
   52MOL    C7210374   4.223   3.452   2.500  0.2506  0.5712 -0.6193
   52MOL    C7310375   4.204   3.384   2.629 -0.6714 -1.0184  0.3550
   52MOL    O7410376   4.196   3.245   2.594 -0.0054 -0.1869 -0.0946
   52MOL    C7510377   4.111   3.153   2.657 -0.0255  0.3192  0.0052
   52MOL    H7610378   4.231   3.560   2.516  1.5659  0.0520  2.5241
   52MOL    H7710379   4.321   3.423   2.461  0.5245 -0.2687  0.7076
   52MOL    H7810380   4.112   3.420   2.676 -0.8828  1.3501 -1.7606
   52MOL    H7910381   4.148   3.150   2.759 -0.3380  1.0499  0.1407
   52MOL    H8010382   4.008   3.188   2.652  0.2663  1.1158 -0.8544
   52MOL    H8110383   4.129   3.054   2.617 -1.3600  0.3988 -0.8059
   52MOL    C8210384   4.313   3.408   2.734 -0.6340  0.0214 -0.2334
   52MOL    C8310385   4.290   3.530   2.829  0.1264 -0.0337 -0.0316
   52MOL    O8410386   4.292   3.476   2.965 -0.2050 -0.0604  0.2018
   52MOL    C8510387   4.170   3.419   3.003  0.2314  0.4823  0.6536
   52MOL    H8610388   4.410   3.424   2.687 -0.9710  3.1799  0.0661
   52MOL    H8710389   4.331   3.316   2.791  1.0869  0.6703  0.3115
   52MOL    H8810390   4.193   3.580   2.821  0.8440  1.8619  2.4273
   52MOL    H8910391   4.140   3.334   2.942  0.3362  0.2415  0.9341
   52MOL    H9010392   4.166   3.392   3.109 -1.8242  0.2314  0.5284
   52MOL    H9110393   4.084   3.485   3.005 -1.9232 -2.0856 -2.1802
   52MOL    C9210394   4.396   3.643   2.820 -0.2034  0.1924 -0.3962
   52MOL    C9310395   4.340   3.785   2.837  0.9544  0.0028 -0.4317
   52MOL    O9410396   4.282   3.782   2.966 -0.4234 -0.0303  0.0973
   52MOL    C9510397   4.153   3.825   2.979  0.2019  0.0569 -0.1693
   52MOL    H9610398   4.459   3.633   2.731 -0.4729  0.2554 -0.5936
   52MOL    H9710399   4.471   3.632   2.898 -2.0008  0.2245  1.3798
   52MOL    H9810400   4.264   3.795   2.760 -0.6691  1.7151  1.3305
   52MOL    H9910401   4.092   3.761   2.914 -0.2559 -0.2480  0.5595
   52MOL   H10010402   4.128   3.827   3.085  0.4947 -0.9506 -0.0689
   52MOL   H10110403   4.128   3.927   2.951 -0.8827  0.2867  1.6058
   52MOL   C10210404   4.444   3.901   2.845  0.0602 -0.4611 -0.5582
   52MOL   C10310405   4.552   3.902   2.739  0.2040 -0.2840  0.8353
   52MOL   O10410406   4.480   3.930   2.618  0.0196 -0.1191  0.2161
   52MOL   C10510407   4.527   3.872   2.497 -0.1156 -0.3735  0.4456
   52MOL   H10610408   4.485   3.908   2.946  2.9283 -2.6673 -1.5142
   52MOL   H10710409   4.382   3.989   2.828 -0.5032  0.0004  3.3361
   52MOL   H10810410   4.601   3.805   2.737  0.2353 -0.2452 -1.2124
   52MOL   H10910411   4.470   3.920   2.417 -1.9175 -0.0531  1.8809
   52MOL   H11010412   4.632   3.874   2.470 -0.3169  1.6939 -0.2386
   52MOL   H11110413   4.506   3.765   2.488 -0.6220 -0.1260 -1.6107
   52MOL   C11210414   4.645   4.017   2.760 -0.2707  0.2308 -0.4383
   52MOL   C11310415   4.752   4.012   2.867  0.2894  0.4215  0.5606
   52MOL   O11410416   4.848   3.914   2.825  0.1510 -0.4939 -0.1155
   52MOL   C11510417   4.899   3.840   2.931 -0.1636  0.3385 -0.1998
   52MOL   H11610418   4.594   4.113   2.772 -0.5924 -0.0035  0.0683
   52MOL   H11710419   4.702   4.040   2.670  0.9642  0.9055  0.4959
   52MOL   H11810420   4.705   3.978   2.959 -0.7062 -0.6442 -0.3342
   52MOL   H11910421   4.817   3.793   2.986 -0.6034  0.7229 -0.5164
   52MOL   H12010422   4.969   3.767   2.891 -0.5430  0.9995 -2.1091
   52MOL   H12110423   4.967   3.897   2.994 -0.4353 -0.0109  0.4120
   52MOL   C12210424   4.823   4.142   2.893 -0.4402  0.2151  0.6468
   52MOL   C12310425   4.748   4.262   2.950  0.0509  0.2408 -1.3290
   52MOL   O12410426   4.692   4.201   3.073  0.1188 -0.7213  0.5422
   52MOL   C12510427   4.562   4.244   3.097 -0.1566 -0.7460 -0.2146
   52MOL   H12610428   4.850   4.175   2.793  1.1153 -0.8232  0.6961
   52MOL   H12710429   4.912   4.114   2.950 -1.1650 -0.7148  1.3317
   52MOL   H12810430   4.667   4.306   2.892 -1.9746 -0.8728  0.5877
   52MOL   H12910431   4.496   4.225   3.012  0.2268  0.5099 -0.7997
   52MOL   H13010432   4.514   4.191   3.179 -0.7859  0.8912  0.4860
   52MOL   H13110433   4.555   4.350   3.122  2.2935 -0.8098  0.8963
   52MOL   C13210434   4.842   4.383   2.989  0.0551 -0.0145  0.8281
   52MOL   C13310435   4.910   4.454   2.874 -0.0348 -0.0890  0.5241
   52MOL   O13410436   4.806   4.503   2.782 -0.0021 -0.6245  0.1643
   52MOL   C13510437   4.853   4.533   2.647 -0.0432 -0.1233 -0.1526
   52MOL   H13610438   4.914   4.337   3.056  1.3760 -0.4795 -0.8939
   52MOL   H13710439   4.786   4.456   3.049  1.3161 -0.0707  2.0886
   52MOL   H13810440   4.978   4.395   2.814  0.0181 -0.1518  0.6466
   52MOL   H13910441   4.947   4.589   2.655 -0.1814  0.0139  0.5966
   52MOL   H14010442   4.890   4.440   2.605 -1.8932 -0.5271 -0.9034
   52MOL   H14110443   4.776   4.575   2.583 -0.0083  0.0754 -0.0685
   52MOL   C14210444   4.989   4.577   2.935 -0.2905 -0.3480 -0.3223
   52MOL   C14310445   5.125   4.539   3.004  0.3361  0.1420 -0.2575
   52MOL   O14410446   5.217   4.515   2.895  0.4793  0.3092 -0.0301
   52MOL   C14510447   5.258   4.378   2.881  0.0205 -0.1257 -0.5826
   52MOL   H14610448   4.927   4.621   3.013  1.7327  0.8659  0.6388
   52MOL   H14710449   5.013   4.651   2.859 -2.5380  0.0366 -0.7105
   52MOL   H14810450   5.100   4.451   3.062 -0.2239  1.7901  2.0492
   52MOL   H14910451   5.312   4.345   2.969  0.0553 -0.8311 -0.8670
   52MOL   H15010452   5.188   4.294   2.876  3.0882 -2.7069 -1.2153
   52MOL   H15110453   5.322   4.362   2.794 -2.1622  1.2297 -2.5200
   52MOL   C15210454   5.169   4.647   3.106  0.4062 -0.0087  0.1307
   52MOL   C15310455   5.289   4.612   3.190  0.4578 -0.1441 -0.3206
   52MOL   O15410456   5.285   4.479   3.240  0.0066 -0.4728 -0.2082
   52MOL   C15510457   5.192   4.449   3.334  0.7536 -0.2372 -0.7409
   52MOL   H15610458   5.083   4.668   3.169  1.0924  1.0859  0.7180
   52MOL   H15710459   5.200   4.742   3.062  0.9078  0.1754  0.8711
   52MOL   H15810460   5.278   4.677   3.277  0.2408 -0.5138 -0.0696
   52MOL   H15910461   5.188   4.344   3.363  0.6467 -0.5450 -1.8608
   52MOL   H16010462   5.210   4.511   3.422 -0.6863 -0.3292 -0.3704
   52MOL   H16110463   5.092   4.480   3.304  0.2988  1.0384  1.9061
   52MOL   C16210464   5.423   4.627   3.117  0.6749  0.1470 -0.8905
   52MOL   C16310465   5.535   4.698   3.191 -0.3512  0.0779 -0.0973
   52MOL   O16410466   5.586   4.610   3.284  0.2299 -0.8083  0.0155
   52MOL   C16510467   5.520   4.623   3.414 -0.1276  0.5583  0.4094
   52MOL   H16610468   5.400   4.672   3.020 -3.3411  0.4316  0.0711
   52MOL   H16710469   5.461   4.530   3.085  0.0270  0.0437 -1.3592
   52MOL   H16810470   5.492   4.787   3.236 -3.4620 -2.1180  1.4686
   52MOL   H16910471   5.424   4.571   3.413 -0.7363  1.6576 -0.8469
   52MOL   H17010472   5.583   4.561   3.477 -0.3853 -1.0362 -0.8783
   52MOL   H17110473   5.506   4.722   3.457  1.1620  0.0774  1.9465
   52MOL   C17210474   5.657   4.724   3.102  0.2665 -0.2381  0.0551
   52MOL   C17310475   5.624   4.821   2.991  0.2330  0.6405  0.0748
   52MOL   O17410476   5.570   4.942   3.056  0.3755 -0.6609 -0.0733
   52MOL   C17510477   5.485   5.004   2.962  0.2122 -0.4516  0.0019
   52MOL   H17610478   5.687   4.631   3.054 -1.8443 -1.6063  1.2825
   52MOL   H17710479   5.735   4.767   3.166  0.1379 -0.4255  0.3371
   52MOL   H17810480   5.555   4.765   2.927 -0.5712  0.4137  1.1242
   52MOL   H17910481   5.460   5.099   3.007 -0.3900 -1.0705  0.9774
   52MOL   H18010482   5.531   5.033   2.867 -1.8825  0.1339 -0.8588
   52MOL   H18110483   5.395   4.948   2.939 -0.1991  1.0836 -2.3848
   52MOL   C18210484   5.745   4.847   2.909  0.2809  0.0995 -0.6140
   52MOL   C18310485   5.765   4.751   2.792 -0.2704 -0.4981 -0.3850
   52MOL   O18410486   5.655   4.781   2.708  0.0646 -0.3015 -1.0272
   52MOL   C18510487   5.579   4.661   2.678  0.6206 -0.2509  0.1625
   52MOL   H18610488   5.835   4.846   2.971  0.0450 -1.3510 -0.2770
   52MOL   H18710489   5.743   4.951   2.876 -3.2608  0.0236 -0.8100
   52MOL   H18810490   5.771   4.648   2.827  0.0612 -0.0886  0.7778
   52MOL   H18910491   5.508   4.691   2.600  0.7247 -2.1511 -0.6723
   52MOL   H19010492   5.630   4.577   2.632  0.7630 -0.9561  1.5753
   52MOL   H19110493   5.514   4.629   2.759 -0.5938  0.1792 -0.6215
   52MOL   C19210494   5.901   4.775   2.708  0.1179 -0.0198 -0.6694
   52MOL   C19310495   5.910   4.702   2.574  0.8144 -0.1119 -0.0539
   52MOL   O19410496   6.039   4.718   2.510  0.0398  0.0052  0.3370
   52MOL   C19510497   6.055   4.633   2.393 -0.3781 -0.0982  0.1780
   52MOL   H19610498   5.982   4.739   2.771  0.9220 -0.5561 -1.9987
   52MOL   H19710499   5.927   4.878   2.686 -2.0555  0.9186  0.9039
   52MOL   H19810500   5.829   4.726   2.505  0.6609 -1.2742 -0.3004
   52MOL   H19910501   6.000   4.671   2.307  1.2345 -1.3780 -1.4496
   52MOL   H20010502   6.157   4.619   2.357  0.2289 -0.6429  2.0672
   52MOL   H20110503   6.026   4.530   2.413 -2.4356  0.3600 -0.3309
   52MOL   H20210504   5.890   4.596   2.593 -1.8156  0.0673 -1.6169
   53MOL     C110505   2.269   0.472   7.531 -0.0894 -0.4426  0.1892
   53MOL     C210506   2.374   0.501   7.421  0.5257  0.0925  0.3405
   53MOL     O310507   2.408   0.640   7.447  0.2363 -0.1096  0.4262
   53MOL     C410508   2.318   0.745   7.413 -0.6086 -0.4300 -0.2451
   53MOL     H510509   2.247   0.365   7.532 -0.6451 -0.3909 -2.5563
   53MOL     H610510   2.303   0.509   7.628 -0.4565 -0.4179  0.3089
   53MOL     H710511   2.329   0.495   7.322 -0.3517  1.9786  0.6000
   53MOL     H810512   2.240   0.719   7.341 -0.7416 -1.3126  0.2086
   53MOL     H910513   2.278   0.782   7.507  3.1279  1.0946  0.8060
   53MOL    H1010514   2.370   0.832   7.372  0.2731 -0.9543 -0.2452
   53MOL    H1110515   2.170   0.517   7.520 -0.7061 -2.0547 -1.0152
   53MOL    C1210516   2.482   0.399   7.434  0.2897 -0.3954 -0.5476
   53MOL    C1310517   2.604   0.408   7.343  0.0402 -0.1146  0.2193
   53MOL    O1410518   2.675   0.281   7.357 -0.4184  0.2471 -0.5988
   53MOL    C1510519   2.800   0.277   7.429 -0.2318 -0.3310 -0.4286
   53MOL    H1610520   2.438   0.299   7.427  1.5416 -1.0343  0.4530
   53MOL    H1710521   2.521   0.399   7.535 -0.9435 -0.4423 -0.0701
   53MOL    H1810522   2.665   0.486   7.388 -0.7574 -0.6506  2.3182
   53MOL    H1910523   2.879   0.339   7.384 -1.7738  1.4157 -0.7900
   53MOL    H2010524   2.770   0.324   7.523  1.3358  0.7341 -0.4195
   53MOL    H2110525   2.840   0.176   7.436 -0.3581 -0.3969 -0.6372
   53MOL    C2210526   2.558   0.431   7.202 -0.2975  0.2919 -0.3755
   53MOL    C2310527   2.674   0.414   7.103 -0.1460  0.3560 -0.4657
   53MOL    O2410528   2.614   0.415   6.966 -0.6060  0.2490 -0.5519
   53MOL    C2510529   2.574   0.294   6.926  0.3378 -0.3062  0.8906
   53MOL    H2610530   2.499   0.522   7.188 -1.0112 -0.2809 -1.1364
   53MOL    H2710531   2.494   0.348   7.172  2.2560 -1.3204 -1.5479
   53MOL    H2810532   2.726   0.319   7.119  1.7952  1.3743 -0.5468
   53MOL    H2910533   2.517   0.301   6.834 -1.9217  0.1881  2.2802
   53MOL    H3010534   2.653   0.218   6.928  1.4950  0.8187 -0.9223
   53MOL    H3110535   2.492   0.254   6.987  1.1652  1.5897  3.3108
   53MOL    C3210536   2.776   0.522   7.125  0.3976  0.4203 -0.2068
   53MOL    C3310537   2.889   0.541   7.021  0.1799 -0.2980  0.1441
   53MOL    O3410538   2.943   0.679   7.015  0.2828 -0.4854 -1.2330
   53MOL    C3510539   2.856   0.758   6.931  0.5637  0.5091  0.2535
   53MOL    H3610540   2.815   0.515   7.226 -0.5317 -0.2043  0.1052
   53MOL    H3710541   2.713   0.610   7.115  0.5970  0.5961  0.0731
   53MOL    H3810542   2.835   0.523   6.928  1.9004 -0.3337 -0.8569
   53MOL    H3910543   2.757   0.771   6.975 -1.3796 -0.9434 -3.4631
   53MOL    H4010544   2.905   0.855   6.921 -2.4634  1.9464 -1.3238
   53MOL    H4110545   2.849   0.711   6.833 -0.7122  1.4766 -0.1378
   53MOL    C4210546   3.005   0.444   7.024 -0.2768  0.5697  0.2312
   53MOL    C4310547   3.097   0.451   6.901  0.1087 -0.6379  0.0024
   53MOL    O4410548   3.232   0.440   6.945  0.1531  0.0027 -0.4171
   53MOL    C4510549   3.310   0.563   6.922  0.4972 -0.6251 -0.3316
   53MOL    H4610550   2.975   0.339   7.026  0.7314  0.2864  0.7262
   53MOL    H4710551   3.064   0.459   7.114  1.1569 -1.4170 -0.3435
   53MOL    H4810552   3.085   0.550   6.857 -0.5579 -0.2883  0.9710
   53MOL    H4910553   3.353   0.580   6.823  1.9403  2.4555  0.7656
   53MOL    H5010554   3.242   0.647   6.932  1.1711 -0.2317  0.9928
   53MOL    H5110555   3.385   0.576   6.999 -0.7517 -0.6824  0.9130
   53MOL    C5210556   3.088   0.336   6.798  0.2471  0.4160  0.2750
   53MOL    C5310557   2.965   0.338   6.705 -0.3640  0.0418  0.5974
   53MOL    O5410558   2.960   0.468   6.650  0.1681 -0.0118 -0.2077
   53MOL    C5510559   2.835   0.507   6.603  0.0018  0.0048  0.5357
   53MOL    H5610560   3.104   0.243   6.853 -0.1468 -0.6451 -1.3842
   53MOL    H5710561   3.173   0.348   6.731 -1.0881  1.2153 -1.3191
   53MOL    H5810562   2.872   0.321   6.760 -0.7292  1.6528  0.5003
   53MOL    H5910563   2.759   0.518   6.681 -0.3301  0.3434  0.1670
   53MOL    H6010564   2.843   0.607   6.558 -0.0814 -0.3081 -0.1822
   53MOL    H6110565   2.805   0.437   6.525 -1.5662  1.8381 -0.5845
   53MOL    C6210566   2.979   0.237   6.583 -0.1565  0.2223 -0.0694
   53MOL    C6310567   2.978   0.097   6.633  0.2691  0.6596  0.8452
   53MOL    O6410568   2.864   0.076   6.714 -0.1141 -0.4976 -0.3890
   53MOL    C6510569   2.886   7.808   6.828  0.4296 -0.0388 -0.5032
   53MOL    H6610570   3.067   0.269   6.527 -0.7918  1.8152 -0.1910
   53MOL    H6710571   2.901   0.260   6.510  1.5740 -0.9157 -2.3287
   53MOL    H6810572   3.070   0.084   6.690  0.5270  0.4414  0.3873
   53MOL    H6910573   2.909   7.706   6.797 -0.8412 -1.2620  2.3916
   53MOL    H7010574   2.960   0.053   6.885 -0.7426 -0.3966  1.3943
   53MOL    H7110575   2.792   7.806   6.884  0.7304 -0.0630 -0.0002
   53MOL    C7210576   2.985   0.001   6.504 -0.0915 -0.4239  0.2002
   53MOL    C7310577   2.864   0.004   6.412  0.6528 -0.4885  0.2613
   53MOL    O7410578   2.884   0.109   6.321  0.4787  0.1928 -0.2317
   53MOL    C7510579   2.763   0.166   6.274  0.6606 -0.0313 -0.1585
   53MOL    H7610580   3.000   7.711   6.542 -0.3334 -0.5332  0.0057
   53MOL    H7710581   3.075   0.022   6.445  0.8013  1.6283  2.1770
   53MOL    H7810582   2.775   0.015   6.474  0.6014  0.9501 -0.0665
   53MOL    H7910583   2.719   0.092   6.207 -1.9818  1.4261 -0.1035
   53MOL    H8010584   2.691   0.192   6.351  2.2769  0.0236  1.3522
   53MOL    H8110585   2.791   0.254   6.216 -0.8142 -0.0846 -0.9903
   53MOL    C8210586   2.847   7.677   6.334 -0.5301  0.0001  0.5910
   53MOL    C8310587   2.815   7.544   6.406  0.1161 -0.1259  0.1809
   53MOL    O8410588   2.703   7.573   6.483  0.6540  0.6858 -0.1750
   53MOL    C8510589   2.695   7.488   6.600 -0.0460  0.0044  0.1172
   53MOL    H8610590   2.936   7.640   6.283 -1.4753 -0.9285 -0.4130
   53MOL    H8710591   2.768   7.699   6.262 -0.0749 -1.3989 -0.3505
   53MOL    H8810592   2.901   7.519   6.468 -0.1108  0.6024  0.7936
   53MOL    H8910593   2.702   7.380   6.585  1.6141  0.1678 -0.3841
   53MOL    H9010594   2.784   7.500   6.661 -0.1481 -4.1928  1.2643
   53MOL    H9110595   2.602   7.492   6.655 -0.2232  1.2796 -0.2735
   53MOL    C9210596   2.770   7.435   6.313  0.2753 -0.2520  0.4881
   53MOL    C9310597   2.862   7.405   6.190  0.1161  0.2641  0.0919
   53MOL    O9410598   2.995   7.374   6.237 -0.0372  0.2634  0.7577
   53MOL    C9510599   3.008   7.254   6.318  0.4441  0.3826  0.1453
   53MOL    H9610600   2.671   7.460   6.273 -0.0640 -3.4007 -0.7354
   53MOL    H9710601   2.760   7.340   6.364 -1.9579 -0.6022 -0.5506
   53MOL    H9810602   2.888   7.493   6.132  1.3314 -1.1381 -1.5604
   53MOL    H9910603   3.116   7.247   6.318  0.4400  0.3123  0.4537
   53MOL   H10010604   2.985   7.277   6.423  0.8160 -0.8594  0.5043
   53MOL   H10110605   2.960   7.162   6.287  0.5178  0.0457  1.0047
   53MOL   C10210606   2.820   7.289   6.097  0.5621 -0.2203  0.0930
   53MOL   C10310607   2.690   7.319   6.017 -0.6355  0.3968 -0.4620
   53MOL   O10410608   2.571   7.328   6.101  0.0354 -0.0223 -0.4609
   53MOL   C10510609   2.523   7.205   6.154 -0.1229  0.9304 -0.9531
   53MOL   H10610610   2.811   7.190   6.141 -0.3635  0.9976  2.7901
   53MOL   H10710611   2.900   7.287   6.023 -1.0438 -0.4850 -1.6836
   53MOL   H10810612   2.670   7.240   5.946  1.5734  0.7790 -1.5436
   53MOL   H10910613   2.501   7.132   6.076 -0.8039  1.5745 -1.3733
   53MOL   H11010614   2.596   7.152   6.215 -1.1221  0.3315 -0.2655
   53MOL   H11110615   2.431   7.228   6.207 -0.5280  1.1938 -1.7577
   53MOL   C11210616   2.694   7.448   5.943  0.3257  0.0652 -0.1234
   53MOL   C11310617   2.573   7.472   5.856 -0.5090  0.4293  1.1335
   53MOL   O11410618   2.551   7.610   5.843 -0.5658  0.4066  0.2504
   53MOL   C11510619   2.505   7.673   5.962  0.0400 -0.9682 -0.1425
   53MOL   H11610620   2.791   7.456   5.893  0.3910 -0.7464 -0.1417
   53MOL   H11710621   2.701   7.529   6.016 -1.9139  1.2921 -1.2181
   53MOL   H11810622   2.489   7.419   5.900 -0.2951 -1.3248 -0.5120
   53MOL   H11910623   2.588   7.727   6.006  0.0040  0.2891 -1.5969
   53MOL   H12010624   2.443   7.760   5.939 -0.4897 -1.3330 -0.1137
   53MOL   H12110625   2.449   7.609   6.031 -0.7130  0.9036  1.0317
   53MOL   C12210626   2.589   7.415   5.715  0.0924  0.2629  0.0093
   53MOL   C12310627   2.476   7.444   5.603 -0.3300  0.4593  0.2229
   53MOL   O12410628   2.509   7.341   5.506 -0.2717 -0.0956 -0.3548
   53MOL   C12510629   2.546   7.384   5.384  0.8494 -0.2134  0.7231
   53MOL   H12610630   2.598   7.307   5.728  3.6291  0.5158  0.1003
   53MOL   H12710631   2.685   7.441   5.672  0.8316  0.7953  1.9196
   53MOL   H12810632   2.484   7.543   5.557 -1.3610  1.4617  2.1568
   53MOL   H12910633   2.566   7.302   5.315 -0.4211 -0.8466  1.0993
   53MOL   H13010634   2.469   7.444   5.335  1.8359  0.4521 -0.0247
   53MOL   H13110635   2.639   7.439   5.397  1.1978 -0.5742 -0.1878
   53MOL   C13210636   2.331   7.428   5.642 -0.3101  0.9556 -0.1967
   53MOL   C13310637   2.289   7.288   5.684  0.3140  0.1292  0.2547
   53MOL   O13410638   2.365   7.248   5.795 -0.5119 -0.1163  0.3655
   53MOL   C13510639   2.394   7.106   5.794  0.8628  0.4394 -0.3313
   53MOL   H13610640   2.270   7.463   5.559 -0.3761 -1.6240 -1.2750
   53MOL   H13710641   2.317   7.493   5.728  2.1043  1.1598  0.0948
   53MOL   H13810642   2.303   7.222   5.599  0.5987  0.4760  0.0284
   53MOL   H13910643   2.318   7.047   5.846  0.3767  0.8853 -0.5298
   53MOL   H14010644   2.388   7.054   5.699 -0.0134 -0.2253  0.0789
   53MOL   H14110645   2.492   7.090   5.840  0.4283  0.0723  0.4914
   53MOL   C14210646   2.144   7.278   5.735  0.7488  0.1822 -0.3212
   53MOL   C14310647   2.030   7.290   5.638  0.3375  0.5258 -0.1096
   53MOL   O14410648   2.019   7.172   5.554  0.2955 -0.0646  0.4763
   53MOL   C14510649   2.070   7.187   5.414 -0.8608 -0.0552 -0.0713
   53MOL   H14610650   2.123   7.355   5.810  0.1395  0.2917 -0.6034
   53MOL   H14710651   2.135   7.186   5.793 -3.3038 -0.3228 -1.6434
   53MOL   H14810652   2.046   7.384   5.586  0.5315  1.3810  1.4918
   53MOL   H14910653   2.056   7.094   5.360 -0.2224  0.2058 -0.6996
   53MOL   H15010654   2.016   7.256   5.349 -2.6440 -0.8361  0.5594
   53MOL   H15110655   2.179   7.197   5.417 -1.0383  2.1548 -0.0979
   53MOL   C15210656   1.887   7.301   5.698  0.1190 -0.6905  0.0334
   53MOL   C15310657   1.781   7.374   5.605  0.0346  0.2820 -0.4375
   53MOL   O15410658   1.653   7.340   5.653  0.5059  0.5342  0.2072
   53MOL   C15510659   1.623   7.213   5.593  0.2652  0.4687  0.0401
   53MOL   H15610660   1.893   7.353   5.794  0.1355  1.4336 -1.1073
   53MOL   H15710661   1.855   7.202   5.732  1.4464 -0.7085  1.2675
   53MOL   H15810662   1.804   7.355   5.501 -1.1195  0.4474 -0.7333
   53MOL   H15910663   1.711   7.150   5.589 -0.7816 -1.0188  0.0561
   53MOL   H16010664   1.561   7.161   5.666 -0.2487 -1.6085 -1.8276
   53MOL   H16110665   1.575   7.216   5.495 -1.6697 -1.2751  0.9023
   53MOL   C16210666   1.776   7.522   5.612 -0.3829  0.0805  0.4260
   53MOL   C16310667   1.672   7.601   5.529 -0.2961  0.2151 -0.9480
   53MOL   O16410668   1.706   7.735   5.527 -0.1151 -0.0091 -0.2512
   53MOL   C16510669   1.677   7.809   5.646  0.6063 -0.2793 -0.4755
   53MOL   H16610670   1.874   7.556   5.581 -0.8378 -0.7817 -2.0846
   53MOL   H16710671   1.774   7.554   5.716 -1.1541  1.6753 -0.0519
   53MOL   H16810672   1.574   7.572   5.568 -1.4114  1.6519 -2.5951
   53MOL   H16910673   1.571   7.798   5.667  0.3071  2.4785 -0.2616
   53MOL   H17010674   1.730   7.778   5.736 -1.2726 -1.1574  0.3440
   53MOL   H17110675   1.704   0.103   5.628 -0.0454  0.1392  0.8743
   53MOL   C17210676   1.680   7.560   5.383  0.3642  0.4902 -0.4221
   53MOL   C17310677   1.571   7.626   5.291 -0.3231  0.7157  0.1273
   53MOL   O17410678   1.587   7.576   5.158  0.2380  0.4410  0.2766
   53MOL   C17510679   1.688   7.645   5.084 -0.4354 -0.3682 -0.0194
   53MOL   H17610680   1.675   7.451   5.381  1.3369  0.3621  2.0148
   53MOL   H17710681   1.782   7.589   5.357  0.2557  0.6987 -0.6118
   53MOL   H17810682   1.584   7.734   5.295 -1.2797  0.9656 -2.5176
   53MOL   H17910683   1.775   7.584   5.110 -0.7147 -0.0052  1.8504
   53MOL   H18010684   1.664   7.641   4.978 -2.4631  0.2993  0.3940
   53MOL   H18110685   1.710   7.749   5.108 -1.7712 -0.4421  1.6604
   53MOL   C18210686   1.426   7.593   5.337 -0.3119 -0.4197 -0.3462
   53MOL   C18310687   1.361   7.710   5.416  0.0517  0.2891  0.1101
   53MOL   O18410688   1.312   7.802   5.326  0.4657 -0.0388  0.1208
   53MOL   C18510689   1.342   0.132   5.355  0.1576  0.7485 -0.2280
   53MOL   H18610690   1.427   7.503   5.399 -2.1454 -0.2033  0.0107
   53MOL   H18710691   1.374   7.570   5.244 -1.3406  0.7978 -0.0902
   53MOL   H18810692   1.425   7.753   5.492  1.7655 -1.6574 -0.1926
   53MOL   H18910693   1.335   0.194   5.266  0.6189 -2.0837 -2.3026
   53MOL   H19010694   1.282   0.171   5.437 -2.6018  0.4106 -2.0274
   53MOL   H19110695   1.444   0.135   5.395 -0.8048 -0.2883  2.3977
   53MOL   C19210696   1.235   7.667   5.493  0.5952  0.4144  0.3754
   53MOL   C19310697   1.257   7.588   5.624  0.3092  0.4954 -0.0924
   53MOL   O19410698   1.130   7.549   5.677 -0.0956 -0.1984  0.3919
   53MOL   C19510699   1.150   7.460   5.788  0.4678  0.0316  0.2910
   53MOL   H19610700   1.172   7.612   5.423  0.3266  0.7943  0.3170
   53MOL   H19710701   1.173   7.751   5.526  0.4078 -0.9760  3.8349
   53MOL   H19810702   1.315   7.647   5.695  0.6670 -1.6435  1.4300
   53MOL   H19910703   1.197   7.372   5.745 -1.8029 -2.0682  2.0369
   53MOL   H20010704   1.217   7.498   5.866 -1.3871 -0.2950  2.0659
   53MOL   H20110705   1.052   7.438   5.829 -0.3324  0.4695 -1.3239
   53MOL   H20210706   1.312   7.495   5.608 -0.1689  0.3058 -0.6291
   54MOL     C110707   7.557   1.480   3.912  0.0766  0.1430 -0.7532
   54MOL     C210708   7.609   1.442   4.055  0.1771 -0.4927 -0.1016
   54MOL     O310709   7.501   1.430   4.143 -0.2175 -0.1710  0.4322
   54MOL     C410710   7.458   1.553   4.208  0.3371  0.5846  0.8284
   54MOL     H510711   7.638   1.506   3.845  1.0092 -1.2543 -0.2062
   54MOL     H610712   7.499   1.403   3.861  1.7766 -1.0604 -0.8996
   54MOL     H710713   7.685   1.512   4.089 -0.5357 -1.1273  2.8890
   54MOL     H810714   7.405   1.615   4.136 -0.7658 -1.2253  0.0191
   54MOL     H910715   7.380   1.513   4.273  0.1539 -0.4007  0.0330
   54MOL    H1010716   7.539   1.605   4.258  0.8301  0.2921  0.3469
   54MOL    H1110717   7.496   1.570   3.916  0.5615  0.4194  0.7895
   54MOL    C1210718   7.679   1.303   4.046 -0.0961  0.7951  0.5839
   54MOL    C1310719   7.723   1.245   4.185 -0.7209  0.9779  0.2287
   54MOL    O1410720   7.661   1.113   4.191 -0.0754  0.3000  0.0920
   54MOL    C1510721   7.532   1.113   4.239  0.1040 -0.4844  0.7192
   54MOL    H1610722   7.771   1.306   3.988 -0.9681 -0.1551 -0.8949
   54MOL    H1710723   7.621   1.229   3.990  4.0866 -1.2396 -1.2630
   54MOL    H1810724   7.688   1.312   4.263 -0.8914 -0.3943  1.3507
   54MOL    H1910725   7.508   1.008   4.224  0.5150 -0.1488 -2.5639
   54MOL    H2010726   7.519   1.140   4.344 -0.6474  1.5910  0.1280
   54MOL    H2110727   7.462   1.168   4.177  0.3766  0.3049  1.0967
   54MOL    C2210728   0.065   1.226   4.196  0.2949  0.1294 -0.3956
   54MOL    C2310729   0.114   1.136   4.312 -0.5325 -0.2865 -0.3871
   54MOL    O2410730   0.254   1.124   4.289  0.0771  0.3821 -0.0319
   54MOL    C2510731   0.320   0.998   4.314 -0.3074 -0.0610 -0.2255
   54MOL    H2610732   0.117   1.322   4.198 -0.2613  0.5457 -3.2734
   54MOL    H2710733   0.088   1.172   4.104 -0.7709 -1.2938  0.1498
   54MOL    H2810734   0.059   1.043   4.296  0.0347 -0.2940 -2.4674
   54MOL    H2910735   0.405   0.989   4.247 -0.4885 -0.4100 -0.4062
   54MOL    H3010736   0.352   1.004   4.418 -0.9976  2.2286 -0.1206
   54MOL    H3110737   0.260   0.909   4.295  1.7316 -1.4625 -0.2346
   54MOL    C3210738   0.089   1.188   4.457 -0.8198  0.3334 -0.1550
   54MOL    C3310739   0.142   1.328   4.489  0.3098  0.2809 -0.3686
   54MOL    O3410740   0.046   1.418   4.441 -0.0218 -0.3515  0.2275
   54MOL    C3510741   0.091   1.556   4.433  0.1024 -0.2023 -0.0586
   54MOL    H3610742   0.114   1.107   4.526  0.2307  0.4694 -0.3718
   54MOL    H3710743   7.791   1.202   4.460 -0.8850 -0.1589 -0.2365
   54MOL    H3810744   0.232   1.337   4.429  0.1985  0.3978 -0.5179
   54MOL    H3910745   0.015   1.619   4.386  0.6846 -0.3513 -1.1949
   54MOL    H4010746   0.123   1.598   4.529  1.4659 -2.6524  0.5963
   54MOL    H4110747   0.177   1.556   4.367  1.5024  1.2322  1.6998
   54MOL    C4210748   0.167   1.346   4.643 -0.1503  0.0047 -0.0162
   54MOL    C4310749   0.036   1.374   4.724 -0.0442  0.0078 -0.0000
   54MOL    O4410750   7.760   1.268   4.695  0.0630 -0.1999 -0.3511
   54MOL    C4510751   7.624   1.294   4.646 -0.0372 -0.2072 -0.0884
   54MOL    H4610752   0.237   1.430   4.645 -1.2920  0.9729 -0.2559
   54MOL    H4710753   0.215   1.262   4.694  0.5768 -0.0475 -0.7803
   54MOL    H4810754   7.807   1.472   4.697  1.0647  0.2605 -0.7131
   54MOL    H4910755   7.554   1.339   4.717 -1.3122  0.4101 -1.7045
   54MOL    H5010756   7.631   1.342   4.549  0.7423  1.4333  0.7593
   54MOL    H5110757   7.582   1.194   4.635  0.9062 -0.6944  0.6372
   54MOL    C5210758   0.071   1.369   4.878  0.0091  0.2841  0.5635
   54MOL    C5310759   0.175   1.474   4.922 -0.1791 -0.2029 -0.5478
   54MOL    O5410760   0.131   1.609   4.896  0.8558 -0.2729 -0.3882
   54MOL    C5510761   0.008   1.667   4.944  0.3378  0.5100 -0.8736
   54MOL    H5610762   0.097   1.266   4.902 -0.9461  0.1615  1.0991
   54MOL    H5710763   7.788   1.392   4.930  1.1029  1.2776  2.1139
   54MOL    H5810764   0.270   1.454   4.872  0.3532  2.5682 -0.7072
   54MOL    H5910765   0.011   1.651   5.051  0.7622 -2.7599 -1.3270
   54MOL    H6010766   0.004   1.775   4.926  0.0539  0.9229  1.4930
   54MOL    H6110767   7.737   1.609   4.901 -1.0611  1.3740  0.5596
   54MOL    C6210768   0.219   1.469   5.077 -0.5601 -0.2889  1.0104
   54MOL    C6310769   0.335   1.567   5.117 -0.0262 -0.3253  0.5517
   54MOL    O6410770   0.323   1.572   5.267  0.0493  0.0721 -0.1660
   54MOL    C6510771   0.356   1.696   5.325  0.0549 -0.3390 -0.2289
   54MOL    H6610772   0.250   1.370   5.110 -0.2713 -0.4535  0.2551
   54MOL    H6710773   0.129   1.497   5.131 -2.8786 -3.9931 -0.7004
   54MOL    H6810774   0.300   1.664   5.080 -0.4876 -0.2377  1.2123
   54MOL    H6910775   0.374   1.672   5.430  0.9633 -1.3564 -0.6085
   54MOL    H7010776   0.440   1.749   5.282  0.7485 -0.8782  0.4494
   54MOL    H7110777   0.271   1.763   5.315  0.7209  0.7371  1.2016
   54MOL    C7210778   0.477   1.530   5.064 -1.0429  0.4042 -0.6993
   54MOL    C7310779   0.513   1.597   4.934 -0.6538  0.4055 -0.5390
   54MOL    O7410780   0.543   1.734   4.955  0.2805  0.3471  0.1486
   54MOL    C7510781   0.547   1.820   4.839  0.0846  0.7442 -0.6912
   54MOL    H7610782   0.481   1.421   5.063 -0.5478  0.4150 -0.4170
   54MOL    H7710783   0.548   1.569   5.138 -1.2425  0.7788 -0.7072
   54MOL    H7810784   0.430   1.600   4.863 -0.3100  0.3540 -0.9489
   54MOL    H7910785   0.544   1.924   4.874 -1.3251  1.1242 -1.9292
   54MOL    H8010786   0.640   1.808   4.783  0.7175 -0.4996  0.5797
   54MOL    H8110787   0.480   1.796   4.757  1.6354 -0.6828 -1.5766
   54MOL    C8210788   0.631   1.520   4.870 -0.4099 -0.2517 -0.5600
   54MOL    C8310789   0.598   1.386   4.810 -0.6508 -0.5096  0.8772
   54MOL    O8410790   0.607   1.416   4.668 -0.4359  0.1539 -0.2053
   54MOL    C8510791   0.550   1.319   4.587 -0.3494  0.2001  0.0427
   54MOL    H8610792   0.718   1.498   4.932  0.2801 -1.5932 -1.9923
   54MOL    H8710793   0.667   1.587   4.792 -2.8556 -0.6940 -2.1398
   54MOL    H8810794   0.499   1.359   4.848  0.1960 -2.6988  1.5833
   54MOL    H8910795   0.521   1.376   4.499 -0.2763 -0.7135 -0.5738
   54MOL    H9010796   0.606   1.227   4.571  1.8129  1.5648 -0.6205
   54MOL    H9110797   0.456   1.288   4.631 -1.5343  0.1521 -2.4522
   54MOL    C9210798   0.705   1.277   4.836  0.2203 -0.5702  0.5471
   54MOL    C9310799   0.699   1.220   4.982 -0.1745  0.0836 -0.6658
   54MOL    O9410800   0.616   1.105   4.984 -0.2809  0.1855 -0.1512
   54MOL    C9510801   0.534   1.087   5.098  0.0161  0.3315  0.1363
   54MOL    H9610802   0.804   1.316   4.814 -0.6028  0.8147 -0.8120
   54MOL    H9710803   0.694   1.188   4.774 -1.5613  0.0800 -0.1217
   54MOL    H9810804   0.662   1.299   5.047 -3.1356  0.0108 -2.2167
   54MOL    H9910805   0.605   1.074   5.180  1.4994 -0.0842 -1.1833
   54MOL   H10010806   0.473   1.174   5.121 -1.3739 -1.1619  2.2706
   54MOL   H10110807   0.470   1.000   5.087  0.9267 -0.3693  0.3378
   54MOL   C10210808   0.843   1.172   5.037 -0.0804  0.0018 -0.7804
   54MOL   C10310809   0.948   1.291   5.071  0.3194  0.7730  0.6598
   54MOL   O10410810   0.986   1.361   4.952  0.0128 -0.0857 -0.1197
   54MOL   C10510811   1.107   1.310   4.893 -0.1750 -0.7561  0.0953
   54MOL   H10610812   0.877   1.105   4.959 -0.3716 -1.5562  0.4162
   54MOL   H10710813   0.831   1.110   5.126  2.2848  1.8847  0.9344
   54MOL   H10810814   1.041   1.252   5.113 -0.9990 -3.9177 -0.4591
   54MOL   H10910815   1.195   1.342   4.949  1.6706 -1.9307 -2.0561
   54MOL   H11010816   1.110   1.202   4.905  2.3020 -0.8893 -1.4763
   54MOL   H11110817   1.127   1.333   4.788  1.4861 -0.3497  0.4829
   54MOL   C11210818   0.902   1.402   5.170  0.4371  0.2550  0.5716
   54MOL   C11310819   0.861   1.359   5.314 -0.4592  0.1022 -0.9475
   54MOL   O11410820   0.973   1.288   5.364  0.1215  0.5025 -0.0399
   54MOL   C11510821   0.937   1.201   5.473  0.0603 -0.4045  0.1573
   54MOL   H11610822   0.828   1.462   5.118  0.4833 -0.4739 -0.3517
   54MOL   H11710823   0.985   1.473   5.167  0.0679  0.6731  0.1000
   54MOL   H11810824   0.769   1.300   5.310  0.8830 -2.0141 -1.2174
   54MOL   H11910825   1.019   1.133   5.494  0.1018 -0.6546 -0.7861
   54MOL   H12010826   0.909   1.261   5.560 -0.6289  0.7003 -0.8129
   54MOL   H12110827   0.853   1.141   5.436  0.4216 -1.6599  1.3342
   54MOL   C12210828   0.824   1.480   5.405  0.7321  0.9079 -0.4614
   54MOL   C12310829   0.918   1.603   5.424 -0.0684  0.3913  0.3740
   54MOL   O12410830   0.847   1.719   5.466 -0.1075  0.3152 -0.5516
   54MOL   C12510831   0.789   1.788   5.360 -0.2927  0.4156  0.9814
   54MOL   H12610832   0.804   1.457   5.510 -0.7464  1.6139 -0.5783
   54MOL   H12710833   0.732   1.519   5.362  0.5745  3.9120  2.4082
   54MOL   H12810834   0.963   1.620   5.327  0.0349 -2.8478 -0.1907
   54MOL   H12910835   0.860   1.819   5.284 -0.9897 -2.5891 -0.9647
   54MOL   H13010836   0.706   1.731   5.319  1.3057 -1.0429 -0.2612
   54MOL   H13110837   0.756   1.883   5.404  0.6108  0.4195  1.6696
   54MOL   C13210838   1.029   1.579   5.518  0.8394 -0.2448 -0.7254
   54MOL   C13310839   1.166   1.655   5.480  0.1292  0.3182 -0.0842
   54MOL   O13410840   1.210   1.622   5.347  0.2546  0.5439  0.4364
   54MOL   C13510841   1.254   1.492   5.329 -0.7327  0.3157  0.2138
   54MOL   H13610842   1.053   1.473   5.510 -1.1940 -0.7702 -0.2860
   54MOL   H13710843   0.988   1.615   5.612 -0.6096  1.9315 -2.1479
   54MOL   H13810844   1.244   1.627   5.552  0.6222 -0.6347 -0.9768
   54MOL   H13910845   1.170   1.422   5.336 -1.3748  1.2367  2.1292
   54MOL   H14010846   1.289   1.477   5.227 -0.6098  0.2865  0.2598
   54MOL   H14110847   1.330   1.457   5.398 -1.2800 -1.7661 -0.1915
   54MOL   C14210848   1.138   1.803   5.455 -0.0637  0.4606  0.4828
   54MOL   C14310849   1.261   1.897   5.483 -0.5131 -0.2546 -0.4200
   54MOL   O14410850   1.244   2.006   5.390 -0.1696  0.1397  0.1672
   54MOL   C14510851   1.293   1.972   5.262  0.9031  0.0467 -0.4617
   54MOL   H14610852   1.067   1.828   5.534  0.0378  0.0569  0.7029
   54MOL   H14710853   1.081   1.828   5.365 -1.9744 -0.7706  1.3257
   54MOL   H14810854   1.360   1.856   5.462  1.2201  2.8126  1.2859
   54MOL   H14910855   1.239   1.885   5.225  0.1084  0.6488 -0.7371
   54MOL   H15010856   1.267   2.057   5.198 -0.1845  1.1493  1.3790
   54MOL   H15110857   1.399   1.946   5.263  0.0508 -3.6929 -0.0954
   54MOL   C15210858   1.273   1.964   5.626  0.2376  0.5303  0.6465
   54MOL   C15310859   1.317   1.874   5.746  0.8398 -0.1865 -0.9906
   54MOL   O15410860   1.453   1.845   5.728  0.2572  0.1285  0.3555
   54MOL   C15510861   1.490   1.713   5.688 -0.1908 -0.3476  0.1016
   54MOL   H15610862   1.174   2.003   5.647  0.5534  1.1474  1.0154
   54MOL   H15710863   1.341   2.049   5.626 -2.1962  2.5239 -0.5050
   54MOL   H15810864   1.257   1.783   5.750  1.7459 -0.7174  1.4628
   54MOL   H15910865   1.415   1.636   5.708 -4.3604  3.4292 -0.0358
   54MOL   H16010866   1.506   1.703   5.581  0.6515 -0.7449  0.2616
   54MOL   H16110867   1.583   1.687   5.737  0.1018  2.8337  1.3313
   54MOL   C16210868   1.300   1.951   5.875  0.3096 -0.4266 -0.1509
   54MOL   C16310869   1.151   1.997   5.914 -0.2409 -0.2103  0.0112
   54MOL   O16410870   1.056   1.903   5.868 -0.1821  0.2930  0.0899
   54MOL   C16510871   0.926   1.958   5.841 -0.8465 -0.4837  0.7279
   54MOL   H16610872   1.367   2.036   5.879 -1.6829  1.1486  0.5184
   54MOL   H16710873   1.326   1.880   5.953  0.1313 -0.4778 -0.1377
   54MOL   H16810874   1.137   2.099   5.879 -0.7722 -0.8279 -1.6607
   54MOL   H16910875   0.943   2.045   5.778  2.3051 -1.0970  0.6606
   54MOL   H17010876   0.869   1.882   5.788 -3.3804  2.9978 -1.8191
   54MOL   H17110877   0.884   1.985   5.938 -1.3736 -1.6033  0.8154
   54MOL   C17210878   1.143   1.991   6.068  0.7008 -0.0356 -0.2353
   54MOL   C17310879   1.226   2.106   6.132 -0.2767  0.6797  0.4851
   54MOL   O17410880   1.174   2.232   6.096 -0.2834  0.4742  0.9139
   54MOL   C17510881   1.279   2.327   6.068  0.6366 -0.5795 -0.8990
   54MOL   H17610882   1.172   1.893   6.106  2.1067 -0.2602 -1.8715
   54MOL   H17710883   1.039   2.013   6.095  0.8932 -0.4860  0.9144
   54MOL   H17810884   1.329   2.091   6.100  0.5727  4.3739  1.2681
   54MOL   H17910885   1.343   2.344   6.154 -1.2870  1.2191  0.2399
   54MOL   H18010886   1.336   2.315   5.976  0.4676 -0.9247 -0.9580
   54MOL   H18110887   1.238   2.428   6.055 -0.5059 -0.8930  0.1620
   54MOL   C18210888   1.231   2.092   6.286 -0.5630 -0.7202 -0.2033
   54MOL   C18310889   1.328   1.988   6.335 -0.2543 -0.6733  1.2709
   54MOL   O18410890   1.462   2.007   6.289 -0.1286 -0.2540  0.3785
   54MOL   C18510891   1.530   2.129   6.330 -0.5374  0.3276 -0.4057
   54MOL   H18610892   1.131   2.085   6.327 -0.8557  0.9408 -0.6168
   54MOL   H18710893   1.254   2.188   6.331  0.8031 -0.4865 -1.3357
   54MOL   H18810894   1.296   1.895   6.288 -2.3019  1.1507 -1.0651
   54MOL   H18910895   1.628   2.132   6.281  0.4837 -0.2212  1.5701
   54MOL   H19010896   1.477   2.216   6.292 -5.3737 -2.2237  0.1412
   54MOL   H19110897   1.538   2.145   6.437 -1.7230  0.5933 -0.3562
   54MOL   C19210898   1.321   1.972   6.491  1.2656 -0.2248 -0.5220
   54MOL   C19310899   1.393   1.839   6.524 -0.5868 -0.1965  0.5556
   54MOL   O19410900   1.296   1.741   6.485 -0.0639 -0.1352  1.3539
   54MOL   C19510901   1.352   1.610   6.519 -0.7259  0.5048 -0.0715
   54MOL   H19610902   1.217   1.959   6.521  1.6142 -2.0267 -0.0229
   54MOL   H19710903   1.361   2.054   6.551 -0.6171  0.5851 -0.3572
   54MOL   H19810904   1.411   1.832   6.632 -1.6576 -0.8916  0.6997
   54MOL   H19910905   1.438   1.579   6.459 -1.1639 -3.2584  1.1133
   54MOL   H20010906   1.391   1.622   6.620  0.1004  1.0920 -0.4482
   54MOL   H20110907   1.283   1.527   6.510 -1.4291  1.0844 -0.0665
   54MOL   H20210908   1.491   1.825   6.478  0.2094  3.2414  1.0698
   55MOL     C110909   0.195   4.897   2.915  0.0564 -0.1000 -0.3783
   55MOL     C210910   0.307   4.904   3.018  0.8284 -0.3526  0.5152
   55MOL     O310911   0.428   4.930   2.949  0.0115 -0.3921  0.8427
   55MOL     C410912   0.548   4.903   3.017 -0.3393 -1.0595 -0.6013
   55MOL     H510913   0.108   4.851   2.963  1.1484  0.4523  2.2130
   55MOL     H610914   0.173   4.989   2.862 -2.7007 -0.3450  0.2258
   55MOL     H710915   0.312   4.803   3.058  2.8096 -0.8171 -0.8454
   55MOL     H810916   0.633   4.959   2.979  0.1515 -1.0474  0.5066
   55MOL     H910917   0.546   4.938   3.120 -1.1850 -0.7660 -0.7151
   55MOL    H1010918   0.573   4.797   3.031 -0.6495 -0.9715  0.7051
   55MOL    H1110919   0.221   4.821   2.841 -1.1245 -1.7507  0.8445
   55MOL    C1210920   0.282   5.013   3.120  0.3653 -0.1044 -0.1343
   55MOL    C1310921   0.139   5.015   3.187  0.2588  0.2647 -0.0894
   55MOL    O1410922   0.114   4.885   3.250  0.6823 -0.0490  0.4945
   55MOL    C1510923   7.783   4.850   3.233 -0.0441  0.0186  0.1248
   55MOL    H1610924   0.291   5.102   3.058 -2.8054 -0.6805 -1.5747
   55MOL    H1710925   0.366   5.008   3.189 -1.5898 -2.8451  2.1893
   55MOL    H1810926   0.063   5.028   3.111  1.2737  1.4518 -0.9103
   55MOL    H1910927   7.707   4.924   3.258 -0.0254 -0.3294  1.2272
   55MOL    H2010928   7.773   4.813   3.131 -2.9478  0.7298  0.1090
   55MOL    H2110929   7.767   4.768   3.303  1.6144 -0.9476 -0.6069
   55MOL    C2210930   0.126   5.125   3.293  0.7496  0.0495  0.5829
   55MOL    C2310931   0.109   5.274   3.246  0.2637  0.0518 -0.3922
   55MOL    O2410932   0.240   5.321   3.204 -0.6146  0.2916  0.0534
   55MOL    C2510933   0.341   5.314   3.298 -0.0986  0.3331 -0.3096
   55MOL    H2610934   0.188   5.119   3.382  0.7792 -3.4652  0.3832
   55MOL    H2710935   0.027   5.112   3.336  0.5171 -0.4523 -0.1016
   55MOL    H2810936   0.088   5.337   3.333  1.0973  1.0929 -0.9452
   55MOL    H2910937   0.414   5.382   3.256  0.5775 -1.5984 -2.3705
   55MOL    H3010938   0.312   5.355   3.395  1.9240  0.2814  0.3418
   55MOL    H3110939   0.390   5.217   3.291 -0.3885  0.1326  0.3740
   55MOL    C3210940   0.005   5.305   3.137  0.0765 -0.2231 -0.0487
   55MOL    C3310941   7.743   5.445   3.168  0.4835  0.0409  0.5011
   55MOL    O3410942   7.668   5.474   3.053 -0.5971 -0.1937  0.0374
   55MOL    C3510943   7.721   5.574   2.969  0.1699 -0.1232  0.1175
   55MOL    H3610944   7.743   5.226   3.121  0.3099 -0.3359 -0.5633
   55MOL    H3710945   0.062   5.331   3.048 -0.3014  3.5530  0.7539
   55MOL    H3810946   0.012   5.517   3.183 -1.2950  1.9866  0.7626
   55MOL    H3910947   7.726   5.672   3.015  2.4605 -0.7943  1.3580
   55MOL    H4010948   0.010   5.554   2.929 -0.5919  1.1211 -2.5311
   55MOL    H4110949   7.649   5.596   2.890 -0.5077 -1.7444  0.2625
   55MOL    C4210950   7.639   5.435   3.284  0.3270  0.7462 -0.0665
   55MOL    C4310951   7.584   5.576   3.329 -0.0640  0.2817  0.0405
   55MOL    O4410952   7.464   5.548   3.405 -0.7112  0.8643  0.3880
   55MOL    C4510953   7.347   5.511   3.337  0.1181 -1.0715 -0.6279
   55MOL    H4610954   7.683   5.376   3.364 -2.2457  1.0672  1.6259
   55MOL    H4710955   7.556   5.375   3.246 -0.6333  2.0055  0.0241
   55MOL    H4810956   7.572   5.640   3.241  3.4729 -0.3845 -0.9765
   55MOL    H4910957   7.335   5.588   3.261 -2.8631 -1.1517 -0.3072
   55MOL    H5010958   7.337   5.413   3.291  2.5504 -1.2600 -0.7986
   55MOL    H5110959   7.259   5.524   3.400 -0.0068  1.5276 -1.2817
   55MOL    C5210960   7.695   5.654   3.406 -0.6793  0.4060 -0.0242
   55MOL    C5310961   7.638   5.772   3.493  0.3799 -0.3317  0.0747
   55MOL    O5410962   7.742   5.837   3.572  0.8045 -0.0589 -0.6942
   55MOL    C5510963   7.753   5.780   3.704  0.0480  0.1389  0.1574
   55MOL    H5610964   7.781   5.692   3.351 -1.3936  0.8101 -0.8808
   55MOL    H5710965   7.743   5.580   3.470 -2.5277  0.1590  1.1099
   55MOL    H5810966   7.566   5.726   3.561 -1.6366  3.3416  0.5680
   55MOL    H5910967   7.774   5.673   3.699  0.0050  0.1200  0.3944
   55MOL    H6010968   0.026   5.831   3.753  0.8496 -1.0809  0.0921
   55MOL    H6110969   7.666   5.804   3.764  1.2552  0.7248  1.7245
   55MOL    C6210970   7.570   5.877   3.400 -0.0062 -0.5332 -0.4443
   55MOL    C6310971   7.496   5.998   3.457 -0.0158  0.1245  0.3547
   55MOL    O6410972   7.434   6.062   3.347 -0.5109 -0.3890 -0.5522
   55MOL    C6510973   7.476   6.194   3.326  1.0201  0.1928 -0.6644
   55MOL    H6610974   7.499   5.824   3.336  2.0124 -2.4752 -1.1426
   55MOL    H6710975   7.653   5.899   3.333  1.3214 -2.3561  0.5231
   55MOL    H6810976   7.563   6.065   3.511  1.3071  0.7617 -2.0085
   55MOL    H6910977   7.572   6.204   3.275 -0.0550  2.3166 -2.3505
   55MOL    H7010978   7.399   6.231   3.259 -0.0271  0.5533  0.7336
   55MOL    H7110979   7.464   6.253   3.417  0.5182 -1.3491  0.2883
   55MOL    C7210980   7.365   5.966   3.533  0.5794 -0.2817  0.5018
   55MOL    C7310981   7.379   5.911   3.673 -0.6868  0.1647 -0.1004
   55MOL    O7410982   7.321   5.997   3.759 -0.2200 -0.6195  0.5635
   55MOL    C7510983   7.399   6.116   3.780 -0.4058  0.6007 -0.0199
   55MOL    H7610984   7.316   5.886   3.476 -0.5958  0.3839  0.5599
   55MOL    H7710985   7.300   6.053   3.526 -0.8354 -1.3732 -0.3839
   55MOL    H7810986   7.480   5.898   3.712 -1.5047 -0.5808  1.8467
   55MOL    H7910987   7.430   6.179   3.697  0.6396  0.8443  0.5457
   55MOL    H8010988   7.337   6.179   3.844  0.4876  2.4018 -0.8820
   55MOL    H8110989   7.491   6.088   3.830 -1.4124 -0.0293  1.5186
   55MOL    C8210990   7.314   5.769   3.687 -0.0053  0.0123  1.1043
   55MOL    C8310991   7.338   5.688   3.814  0.3374  0.6405  0.0843
   55MOL    O8410992   7.478   5.654   3.815 -0.6807  0.2867 -0.1134
   55MOL    C8510993   7.511   5.530   3.760  0.1888  0.9037 -0.5553
   55MOL    H8610994   7.341   5.714   3.597 -1.0137  2.1326 -0.5356
   55MOL    H8710995   7.209   5.788   3.667  0.6630  1.1851 -1.3405
   55MOL    H8810996   7.280   5.596   3.806  0.1266  0.8062 -0.3347
   55MOL    H8910997   7.477   5.519   3.657  1.2687 -1.3301 -0.7051
   55MOL    H9010998   7.619   5.514   3.762  0.1218  0.4802 -0.2079
   55MOL    H9110999   7.470   5.449   3.821  0.2799  1.0037 -0.3618
   55MOL    C9211000   7.298   5.756   3.948 -0.5444 -0.4301  0.4767
   55MOL    C9311001   7.153   5.740   3.992 -0.3833 -0.8793 -0.3397
   55MOL    O9411002   7.155   5.743   4.139 -0.9729 -0.6748 -0.1528
   55MOL    C9511003   7.178   5.618   4.204 -0.4094 -0.1495 -0.8006
   55MOL    H9611004   7.338   5.856   3.961  1.8861 -1.3098  0.1164
   55MOL    H9711005   7.355   5.694   4.017  0.4392 -1.0946 -0.8913
   55MOL    H9811006   7.109   5.646   3.958  0.2573 -1.4549  0.3995
   55MOL    H9911007   7.143   5.610   4.307  1.1457  0.1632 -0.2278
   55MOL   H10011008   7.138   5.529   4.157  0.0896 -0.7756 -0.0631
   55MOL   H10111009   7.286   5.607   4.209 -0.3345  0.5724 -0.7559
   55MOL   C10211010   7.053   5.855   3.954  0.3886 -0.5919 -0.4297
   55MOL   C10311011   6.910   5.830   3.981  0.2484 -0.7196  0.7476
   55MOL   O10411012   6.864   5.713   3.906 -0.6230  0.1660 -0.4273
   55MOL   C10511013   6.828   5.747   3.774  0.3288  0.3507 -0.3559
   55MOL   H10611014   7.067   5.884   3.849 -3.0478  0.7760 -0.5813
   55MOL   H10711015   7.064   5.947   4.011 -2.7732  0.7730 -1.8994
   55MOL   H10811016   6.839   5.907   3.950  1.1694 -1.0595 -2.4839
   55MOL   H10911017   6.741   5.811   3.756  0.6805  1.2804  1.1420
   55MOL   H11011018   6.916   5.776   3.716 -0.5310  1.5608 -1.0855
   55MOL   H11111019   6.811   5.653   3.722  1.3948  0.5002 -0.9997
   55MOL   C11211020   6.886   5.819   4.142  0.1004  0.2454 -0.2859
   55MOL   C11311021   6.733   5.824   4.182 -0.2339 -0.4657  0.4248
   55MOL   O11411022   6.680   5.703   4.135  0.4404  0.2549  0.1200
   55MOL   C11511023   6.568   5.726   4.053  0.4272 -0.4770 -0.0081
   55MOL   H11611024   6.945   5.901   4.181 -0.2812  0.1496  0.5093
   55MOL   H11711025   6.927   5.723   4.174  1.8710  1.3652  0.8988
   55MOL   H11811026   6.694   5.917   4.138 -1.2300 -0.3315  1.5652
   55MOL   H11911027   6.588   5.776   3.958  0.4248  0.1539  0.3163
   55MOL   H12011028   6.524   5.637   4.008 -1.7919  1.1287 -1.1534
   55MOL   H12111029   6.495   5.787   4.107  0.3620 -0.0245 -0.5932
   55MOL   C12211030   6.712   5.833   4.333  0.3263  0.3250  0.0945
   55MOL   C12311031   6.747   5.971   4.398  0.3191 -0.1094  0.5361
   55MOL   O12411032   6.639   6.064   4.376  0.1756 -0.4517 -0.3019
   55MOL   C12511033   6.672   6.204   4.387 -0.2978 -0.7388  0.2446
   55MOL   H12611034   6.762   5.747   4.376  0.4057  0.1510 -0.3409
   55MOL   H12711035   6.606   5.814   4.353  0.3179  2.1178  1.8880
   55MOL   H12811036   6.835   6.015   4.351 -0.1010  0.6017  0.4000
   55MOL   H12911037   6.588   6.274   4.380  1.6683  1.6110 -0.5559
   55MOL   H13011038   6.735   6.223   4.474  2.1400 -1.0926 -1.3878
   55MOL   H13111039   6.746   6.221   4.309 -1.1665  1.5939 -0.1234
   55MOL   C13211040   6.777   5.954   4.553 -0.1085  0.2787  0.0366
   55MOL   C13311041   6.906   5.879   4.578  0.2846  0.2210 -0.5633
   55MOL   O13411042   7.010   5.954   4.521 -0.0651  0.3983 -0.0017
   55MOL   C13511043   7.107   5.873   4.453  0.0610 -0.5842 -0.7997
   55MOL   H13611044   6.691   5.916   4.607  0.7371  0.9816  1.9560
   55MOL   H13711045   6.800   6.047   4.606 -1.9675  0.0010  1.3324
   55MOL   H13811046   6.904   5.789   4.517 -1.3724 -2.3023  3.0541
   55MOL   H13911047   7.191   5.935   4.421  1.3687 -0.0368  3.4601
   55MOL   H14011048   7.156   5.804   4.522 -2.6168 -0.6821  1.1071
   55MOL   H14111049   7.068   5.832   4.360  0.5670  2.2862 -2.3485
   55MOL   C14211050   6.933   5.844   4.729  0.2336 -0.4102  0.2188
   55MOL   C14311051   6.818   5.766   4.803  0.3130  0.1207 -0.0454
   55MOL   O14411052   6.706   5.848   4.821 -0.5431 -0.5488 -0.9791
   55MOL   C14511053   6.694   5.940   4.934  0.0473 -0.5003 -0.4243
   55MOL   H14611054   6.959   5.934   4.786  3.2635 -0.6223 -0.7531
   55MOL   H14711055   7.020   5.779   4.735  0.6112 -0.0436 -1.0484
   55MOL   H14811056   6.858   5.734   4.899  0.6739 -1.3463 -0.6837
   55MOL   H14911057   6.613   6.009   4.911  0.1237 -0.3256 -0.1657
   55MOL   H15011058   6.675   5.889   5.028  2.3017 -0.4588  0.0809
   55MOL   H15111059   6.787   5.994   4.945 -1.2792  1.8220 -0.3228
   55MOL   C15211060   6.765   5.644   4.726  0.2043  0.1293  0.1794
   55MOL   C15311061   6.857   5.519   4.714 -0.6356  0.6736 -0.7724
   55MOL   O15411062   6.979   5.542   4.653  0.3767 -0.7547  0.2588
   55MOL   C15511063   7.031   5.444   4.578  0.1594 -0.6259  0.4852
   55MOL   H15611064   6.749   5.666   4.621  0.1590  1.6786  0.5059
   55MOL   H15711065   6.672   5.611   4.773  0.1091  0.6559  0.3545
   55MOL   H15811066   6.807   5.459   4.638 -2.0813  0.3932  0.3822
   55MOL   H15911067   7.112   5.472   4.510 -1.7154  1.6980 -0.8986
   55MOL   H16011068   7.076   5.367   4.640 -0.2167 -0.1544  1.3529
   55MOL   H16111069   6.958   5.383   4.524 -1.6921 -0.6399  2.9068
   55MOL   C16211070   6.882   5.445   4.844 -0.4225  0.5111  0.0101
   55MOL   C16311071   6.787   5.334   4.881 -0.1179 -0.3996 -1.2176
   55MOL   O16411072   6.654   5.396   4.879  0.1284 -0.1387  0.0887
   55MOL   C16511073   6.549   5.317   4.935 -0.2745  0.9697  0.2090
   55MOL   H16611074   6.880   5.508   4.933 -0.6681 -2.6864  2.3502
   55MOL   H16711075   6.979   5.394   4.840  0.7760  2.6536  1.2120
   55MOL   H16811076   6.799   5.308   4.986 -1.6388 -0.1024 -0.9620
   55MOL   H16911077   6.472   5.389   4.964 -0.9363 -0.0559  1.0493
   55MOL   H17011078   6.508   5.252   4.858 -0.6843  0.6374  0.7015
   55MOL   H17111079   6.578   5.266   5.026  0.4215  2.5830  0.8986
   55MOL   C17211080   6.811   5.213   4.794 -0.2181  0.2948 -0.5292
   55MOL   C17311081   6.930   5.120   4.841  0.6411  0.1006 -0.7198
   55MOL   O17411082   6.906   5.084   4.980  0.2083  0.2518 -0.0536
   55MOL   C17511083   7.015   5.105   5.069  0.5541  0.4342  0.6486
   55MOL   H17611084   6.824   5.242   4.689  0.0293  0.8418 -0.3540
   55MOL   H17711085   6.719   5.156   4.786  1.6854 -2.8340 -0.8494
   55MOL   H17811086   7.020   5.182   4.834 -0.5047  2.1627  1.8470
   55MOL   H17911087   6.999   5.061   5.168  2.4093  0.3417  0.9430
   55MOL   H18011088   7.111   5.061   5.039 -0.8718 -0.0669 -3.4119
   55MOL   H18111089   7.025   5.212   5.082 -1.9490  0.5183  2.2286
   55MOL   C18211090   6.931   5.002   4.745  0.5823  0.0375  0.1758
   55MOL   C18311091   7.053   4.906   4.752  0.9511 -0.1815 -1.0587
   55MOL   O18411092   7.176   4.968   4.774  0.5570 -1.0649  0.4380
   55MOL   C18511093   7.222   5.052   4.666 -0.0399 -0.4569  0.1724
   55MOL   H18611094   6.925   5.040   4.643  0.5137  3.3347  1.3553
   55MOL   H18711095   6.842   4.941   4.761  1.5094 -0.9811  1.5581
   55MOL   H18811096   7.043   4.849   4.659  2.4551 -0.5063 -1.0247
   55MOL   H18911097   7.304   5.119   4.691  1.1324 -1.6042 -0.5005
   55MOL   H19011098   7.257   4.991   4.582 -0.2500 -0.4633  0.0873
   55MOL   H19111099   7.146   5.111   4.614  0.6872  0.6692  0.3764
   55MOL   C19211100   7.036   4.803   4.864 -0.2471 -0.2924 -0.1825
   55MOL   C19311101   7.127   4.684   4.870 -0.2530  0.1028  0.1451
   55MOL   O19411102   7.096   4.598   4.983  0.4386 -0.1235 -0.5946
   55MOL   C19511103   7.162   4.476   4.992 -0.6590  0.1396  0.3425
   55MOL   H19611104   6.935   4.761   4.872 -0.9923  1.6207  0.8859
   55MOL   H19711105   7.059   4.853   4.959 -1.8830 -1.1961  0.7178
   55MOL   H19811106   7.232   4.712   4.876 -0.0225 -0.5701 -0.6720
   55MOL   H19911107   7.270   4.485   4.979 -0.8343  1.0032 -0.6237
   55MOL   H20011108   7.164   4.442   5.096 -0.9346  1.3741  0.7598
   55MOL   H20111109   7.114   4.401   4.930 -0.6661 -0.1099  0.6512
   55MOL   H20211110   7.112   4.624   4.781  3.2045 -0.8782  0.1456
   56MOL     C111111   0.163   2.362   2.945 -0.0855 -0.4475 -0.0181
   56MOL     C211112   0.063   2.355   3.061  0.1344  0.2933  0.4596
   56MOL     O311113   0.029   2.218   3.074 -0.0049  0.6133  1.0045
   56MOL     C411114   7.701   2.198   3.109 -0.2422 -0.0660  0.1513
   56MOL     H511115   0.226   2.274   2.950  1.1409  0.5207  2.2456
   56MOL     H611116   0.105   2.359   2.852  1.9161  1.0195 -1.3545
   56MOL     H711117   7.802   2.430   3.026  0.1445 -0.1500 -0.5116
   56MOL     H811118   7.667   2.267   3.186 -2.3332  2.2358 -2.6965
   56MOL     H911119   7.636   2.208   3.022 -0.1595 -0.2505  0.0666
   56MOL    H1011120   7.703   2.091   3.133  0.7346  0.2713  1.6106
   56MOL    H1111121   0.234   2.444   2.940  0.2643 -0.5036  3.3872
   56MOL    C1211122   0.129   2.406   3.191  0.0821 -0.2274 -0.3507
   56MOL    C1311123   0.148   2.561   3.200 -0.2071  0.2187  0.5726
   56MOL    O1411124   0.016   2.608   3.199  0.5156 -0.2158  0.3154
   56MOL    C1511125   7.794   2.732   3.132  0.7622  0.6475  0.2557
   56MOL    H1611126   0.231   2.369   3.204  0.6918  1.9973  1.4544
   56MOL    H1711127   0.075   2.374   3.280 -1.0640  1.5171 -0.3914
   56MOL    H1811128   0.192   2.611   3.114  1.8913  0.8021  1.9501
   56MOL    H1911129   7.783   2.701   3.028 -0.0831 -2.2765  1.1836
   56MOL    H2011130   7.694   2.770   3.154  1.1523  1.3378  0.8498
   56MOL    H2111131   0.056   2.813   3.141  4.7477 -2.4694 -2.0864
   56MOL    C2211132   0.215   2.606   3.331 -0.1689 -0.4875 -0.1256
   56MOL    C2311133   0.360   2.560   3.341 -0.0797  0.6228  0.0016
   56MOL    O2411134   0.436   2.582   3.223 -0.1784  0.4506  0.5518
   56MOL    C2511135   0.522   2.474   3.192 -0.1440 -0.5343  0.1157
   56MOL    H2611136   0.153   2.583   3.417 -1.1980  0.7536 -0.5194
   56MOL    H2711137   0.242   2.712   3.339 -2.0505 -0.0999  1.5105
   56MOL    H2811138   0.351   2.453   3.357 -1.5400  0.3957 -2.1445
   56MOL    H2911139   0.574   2.509   3.103 -0.3805 -0.1023  0.1417
   56MOL    H3011140   0.594   2.446   3.269  1.3276  1.9889 -0.2740
   56MOL    H3111141   0.466   2.387   3.160 -1.4382  0.0192  0.8279
   56MOL    C3211142   0.431   2.636   3.460 -0.3604 -1.0503  0.4894
   56MOL    C3311143   0.527   2.557   3.536 -0.4383  0.1977 -0.8585
   56MOL    O3411144   0.609   2.639   3.625 -0.0833  0.6124  0.3844
   56MOL    C3511145   0.736   2.657   3.564  0.3538  0.0483  0.4385
   56MOL    H3611146   0.352   2.666   3.529  0.5487 -0.1721  1.1661
   56MOL    H3711147   0.474   2.728   3.421 -3.1785 -0.4791 -1.4571
   56MOL    H3811148   0.602   2.512   3.471 -2.0219 -1.6041 -1.4854
   56MOL    H3911149   0.804   2.709   3.632  0.7128 -0.4587  0.4675
   56MOL    H4011150   0.786   2.562   3.544  0.5680  0.2105  0.1948
   56MOL    H4111151   0.728   2.720   3.475  1.6100  0.5284  0.6514
   56MOL    C4211152   0.463   2.449   3.630 -0.2593  1.1483 -0.6900
   56MOL    C4311153   0.374   2.510   3.747 -0.5385 -0.3229 -0.4775
   56MOL    O4411154   0.263   2.436   3.771  0.3705 -0.0671 -0.0958
   56MOL    C4511155   0.151   2.487   3.711  0.1584 -0.3975 -0.4113
   56MOL    H4611156   0.543   2.397   3.683 -3.1837 -2.2030  0.6926
   56MOL    H4711157   0.409   2.372   3.575  1.3362  0.0217 -0.7086
   56MOL    H4811158   0.341   2.612   3.725 -2.2896 -0.6575  0.5153
   56MOL    H4911159   0.055   2.456   3.752 -0.6138  2.8650  0.4574
   56MOL    H5011160   0.138   2.595   3.701  0.9419 -0.1142  1.5001
   56MOL    H5111161   0.155   2.447   3.610 -2.3646 -1.8768  0.0076
   56MOL    C5211162   0.449   2.524   3.885  0.2951 -0.2290  0.1336
   56MOL    C5311163   0.495   2.383   3.935  0.4520 -0.8281  0.1177
   56MOL    O5411164   0.630   2.379   3.974 -0.0659 -0.2246 -0.5003
   56MOL    C5511165   0.741   2.417   3.884 -0.2375 -0.1897 -0.2240
   56MOL    H5611166   0.379   2.575   3.951 -0.6795 -1.8215  0.3449
   56MOL    H5711167   0.535   2.591   3.872 -0.0078  0.4214  1.3494
   56MOL    H5811168   0.472   2.311   3.856  0.2201 -0.4319 -0.1814
   56MOL    H5911169   0.748   2.349   3.799 -0.5995  0.0515 -0.4480
   56MOL    H6011170   0.744   2.516   3.839 -0.4507 -0.2468 -0.3647
   56MOL    H6111171   0.838   2.424   3.933  0.3115 -2.0102 -1.0073
   56MOL    C6211172   0.416   2.337   4.061 -0.1801 -0.3471 -0.2325
   56MOL    C6311173   0.417   2.189   4.108 -0.0428  0.5830 -0.3882
   56MOL    O6411174   0.348   2.182   4.240 -0.2991  0.3309  0.3538
   56MOL    C6511175   0.336   2.055   4.294  0.0386  0.0532  0.2445
   56MOL    H6611176   0.313   2.371   4.048 -0.1420 -0.3682 -0.6111
   56MOL    H6711177   0.456   2.397   4.142  2.8405  0.5737 -2.3059
   56MOL    H6811178   0.517   2.160   4.141 -1.4182 -2.3003  1.4511
   56MOL    H6911179   0.271   1.982   4.246 -2.7523 -0.1888  4.1874
   56MOL    H7011180   0.435   2.013   4.307 -0.3601 -1.8515 -2.4134
   56MOL    H7111181   0.291   2.063   4.393 -2.0369  2.5067 -0.8357
   56MOL    C7211182   0.383   2.076   4.000  0.4389 -0.0338 -0.2727
   56MOL    C7311183   0.261   2.092   3.911  0.4576 -0.0159 -0.1893
   56MOL    O7411184   0.261   2.000   3.801 -0.2315 -0.4400 -0.2416
   56MOL    C7511185   0.314   2.059   3.683 -0.1354  0.0564 -0.8155
   56MOL    H7611186   0.387   1.977   4.047  0.3645  0.7112  1.3502
   56MOL    H7711187   0.466   2.082   3.930 -0.5885 -1.5999 -1.6583
   56MOL    H7811188   0.252   2.193   3.872  0.9167  0.6780  1.4579
   56MOL    H7911189   0.241   2.134   3.652  0.9420  1.2075 -0.6270
   56MOL    H8011190   0.416   2.093   3.704 -0.3447 -0.2767  0.7782
   56MOL    H8111191   0.314   1.985   3.603 -3.0924 -0.0560 -0.7409
   56MOL    C8211192   0.137   2.063   3.994 -0.4933  0.1627 -0.5240
   56MOL    C8311193   0.002   2.127   3.949 -0.1088 -0.2623  0.1882
   56MOL    O8411194   7.708   2.053   4.007 -0.2792  0.2329 -0.4202
   56MOL    C8511195   7.670   1.936   3.937 -0.8905  0.5197 -0.9114
   56MOL    H8611196   0.152   2.090   4.098 -1.3900  0.1565 -0.3859
   56MOL    H8711197   0.130   1.955   3.993 -1.7052  0.2044  1.2671
   56MOL    H8811198   7.809   2.119   3.841  1.3186  0.0689  0.1062
   56MOL    H8911199   7.618   1.867   4.004 -1.0098  2.1896  0.7539
   56MOL    H9011200   7.602   1.983   3.866  0.5411  0.0268 -2.6459
   56MOL    H9111201   7.760   1.890   3.896 -0.2312  0.6324  0.3763
   56MOL    C9211202   7.789   2.271   3.995  0.0328  0.3088 -0.1467
   56MOL    C9311203   7.654   2.340   3.978 -0.3561  1.0567  0.6434
   56MOL    O9411204   7.662   2.482   4.006  0.6848 -0.3119 -0.2321
   56MOL    C9511205   7.596   2.517   4.134  0.3938 -0.5355 -0.5780
   56MOL    H9611206   0.057   2.321   3.938  0.3908 -1.5488 -1.3370
   56MOL    H9711207   0.007   2.288   4.099  0.9319 -3.7115  0.3731
   56MOL    H9811208   7.585   2.289   4.046  1.2633  0.2328  1.6835
   56MOL    H9911209   7.639   2.457   4.214 -2.0197 -1.4430  0.0745
   56MOL   H10011210   7.614   2.622   4.155 -1.2672 -0.1170 -1.2156
   56MOL   H10111211   7.489   2.504   4.123  0.0587  0.6920  1.1787
   56MOL   C10211212   7.606   2.323   3.833 -0.4422  0.0287 -0.4171
   56MOL   C10311213   7.466   2.367   3.793  0.1263  0.0903  0.2295
   56MOL   O10411214   7.363   2.290   3.866  0.2045 -0.4317  0.1639
   56MOL   C10511215   7.365   2.152   3.839 -0.8617  0.4525 -0.0408
   56MOL   H10611216   7.610   2.216   3.812 -0.6758  0.2334 -1.5473
   56MOL   H10711217   7.689   2.363   3.775  1.6726 -2.2702  0.9324
   56MOL   H10811218   7.453   2.329   3.692  0.9467  0.3841  0.0109
   56MOL   H10911219   7.417   2.125   3.748  2.2695  1.6153  1.3127
   56MOL   H11011220   7.416   2.116   3.928  0.0792  0.4975 -0.5507
   56MOL   H11111221   7.269   2.102   3.837 -2.5797  3.6502 -1.7169
   56MOL   C11211222   7.438   2.519   3.796  0.8941 -0.7918 -0.0167
   56MOL   C11311223   7.543   2.608   3.723  0.1474  0.0617  0.2987
   56MOL   O11411224   7.513   2.567   3.592 -0.2227 -0.4506  0.1030
   56MOL   C11511225   7.611   2.575   3.489 -0.4883  0.4995 -0.5125
   56MOL   H11611226   7.418   2.552   3.898 -3.6666 -0.0607 -1.0672
   56MOL   H11711227   7.339   2.527   3.753 -0.2913 -1.8251  2.4303
   56MOL   H11811228   7.641   2.568   3.747  0.4933 -0.9054 -2.4851
   56MOL   H11911229   7.691   2.505   3.513 -1.1413  0.7204  2.5065
   56MOL   H12011230   7.568   2.549   3.392 -0.6320 -0.1676 -0.2679
   56MOL   H12111231   7.639   2.680   3.475 -0.4545  0.6907  0.9344
   56MOL   C12211232   7.529   2.757   3.753  0.4984  1.0659  0.3669
   56MOL   C12311233   7.612   2.796   3.879 -0.1234  0.1490 -0.2697
   56MOL   O12411234   7.749   2.779   3.839 -0.4636 -0.4291 -0.2261
   56MOL   C12511235   0.036   2.767   3.941 -0.4786  0.4585  0.5982
   56MOL   H12611236   7.423   2.781   3.768  0.0457 -0.4207 -0.3141
   56MOL   H12711237   7.552   2.814   3.664  2.2638 -2.0743 -1.2575
   56MOL   H12811238   7.586   2.724   3.957 -3.7061 -0.2976 -1.7697
   56MOL   H12911239   0.046   2.861   3.995  1.2734  0.2779  0.5989
   56MOL   H13011240   0.018   2.685   4.012  0.3485 -0.3078 -0.0658
   56MOL   H13111241   0.131   2.740   3.896 -1.8324  0.4963 -2.3718
   56MOL   C13211242   7.607   2.942   3.917 -0.0317 -0.0478  0.0048
   56MOL   C13311243   7.622   3.045   3.801 -0.6763  0.3618 -0.3711
   56MOL   O13411244   7.616   3.172   3.870 -0.0191  0.3597 -0.0583
   56MOL   C13511245   7.493   3.236   3.839 -0.3152 -0.1902  0.4541
   56MOL   H13611246   7.683   2.974   3.988 -1.7487  1.5456  1.1806
   56MOL   H13711247   7.511   2.954   3.967  1.0414 -0.2927  2.1694
   56MOL   H13811248   7.545   3.037   3.723 -1.9399 -0.7111  0.9753
   56MOL   H13911249   7.486   3.261   3.733  1.8247  0.1272  0.3706
   56MOL   H14011250   7.409   3.177   3.878 -0.4517  0.1839  0.7281
   56MOL   H14111251   7.491   3.327   3.899 -0.1866 -0.3780  0.7383
   56MOL   C14211252   7.754   3.049   3.727 -0.1691  0.1806 -0.5133
   56MOL   C14311253   7.755   3.153   3.617 -0.6892 -0.7739  0.4627
   56MOL   O14411254   0.073   3.151   3.552 -0.2456  0.1142  0.2392
   56MOL   C14511255   0.173   3.223   3.620 -0.2113 -0.3955  0.2771
   56MOL   H14611256   7.785   2.952   3.689 -0.9709  0.1488 -1.1063
   56MOL   H14711257   0.002   3.066   3.817 -1.1158 -0.6117  0.2684
   56MOL   H14811258   7.742   3.254   3.656  0.9317 -0.4353  0.1916
   56MOL   H14911259   0.212   3.157   3.697  1.1871 -0.9368 -0.8774
   56MOL   H15011260   0.250   3.247   3.546 -2.4820 -0.3165 -2.1435
   56MOL   H15111261   0.134   3.319   3.653 -0.7966 -0.2971 -0.6726
   56MOL   C15211262   7.648   3.133   3.504 -0.5242 -0.2577  1.1122
   56MOL   C15311263   7.667   3.232   3.386 -0.7381 -0.0692 -0.1021
   56MOL   O15411264   7.596   3.182   3.272 -0.0991 -0.4282 -0.1520
   56MOL   C15511265   7.674   3.112   3.177 -0.5882  0.0917 -0.3650
   56MOL   H15611266   7.546   3.150   3.536 -2.3616 -1.5347 -3.6272
   56MOL   H15711267   7.641   3.031   3.466  0.9663 -0.2635  0.8245
   56MOL   H15811268   7.772   3.236   3.358 -1.0226  1.1061 -1.0645
   56MOL   H15911269   7.620   3.102   3.083 -1.9850  0.1286  0.4097
   56MOL   H16011270   7.775   3.150   3.164 -1.2181  2.5514  1.4931
   56MOL   H16111271   7.689   3.006   3.198 -0.7417  0.6639  2.9481
   56MOL   C16211272   7.615   3.374   3.423 -0.0743  0.2840  0.8518
   56MOL   C16311273   7.718   3.479   3.383  0.5802  0.0946 -0.7195
   56MOL   O16411274   0.030   3.445   3.444  0.7785  0.5677  0.0930
   56MOL   C16511275   0.114   3.556   3.457 -0.8495  0.1270  0.1872
   56MOL   H16611276   7.594   3.386   3.529  0.1829 -0.8503  1.0323
   56MOL   H16711277   7.517   3.397   3.380 -0.1623  0.8921  1.3649
   56MOL   H16811278   7.668   3.566   3.425  1.0819  0.4754 -0.9100
   56MOL   H16911279   0.208   3.525   3.502 -0.6354  0.0517 -0.3086
   56MOL   H17011280   0.149   3.602   3.364 -0.2948  0.0394  0.3502
   56MOL   H17111281   0.079   3.624   3.534  1.0756 -1.3128  2.4175
   56MOL   C17211282   7.720   3.480   3.232 -0.0448  0.0368  0.3983
   56MOL   C17311283   7.589   3.486   3.152 -0.2345 -0.3780  0.3083
   56MOL   O17411284   7.532   3.614   3.190  0.3867 -0.5159  0.0301
   56MOL   C17511285   7.397   3.618   3.239 -0.1153  0.2796 -0.0428
   56MOL   H17611286   7.784   3.401   3.195  0.2635 -0.4101  1.8451
   56MOL   H17711287   7.777   3.567   3.198 -0.4922  0.4128  0.6018
   56MOL   H17811288   7.516   3.406   3.162 -1.7319  1.1840  1.9935
   56MOL   H17911289   7.369   3.722   3.257 -0.8096  0.3377 -1.4257
   56MOL   H18011290   7.327   3.585   3.163 -1.0368  3.8084 -0.7856
   56MOL   H18111291   7.379   3.555   3.326  0.7942  0.8461  0.5720
   56MOL   C18211292   7.613   3.496   2.994 -0.0999  0.0995  0.2860
   56MOL   C18311293   7.485   3.507   2.908  0.2606  0.3360 -0.0445
   56MOL   O18411294   7.528   3.567   2.782 -0.3123  0.7931  0.4270
   56MOL   C18511295   7.434   3.655   2.719 -0.8381  0.4843 -0.1583
   56MOL   H18611296   7.675   3.415   2.955 -1.6420 -0.8964 -0.1313
   56MOL   H18711297   7.670   3.587   2.975  1.4898 -1.0152 -0.4573
   56MOL   H18811298   7.412   3.577   2.948  0.8770  0.9497  0.0101
   56MOL   H18911299   7.483   3.715   2.642 -1.4934 -1.2671 -1.9486
   56MOL   H19011300   7.364   3.605   2.654 -0.6890 -0.2804  0.2635
   56MOL   H19111301   7.369   3.708   2.789 -0.7404 -0.4280  0.6312
   56MOL   C19211302   7.417   3.374   2.866 -0.1273  0.3780 -0.3105
   56MOL   C19311303   7.343   3.303   2.979 -0.1576 -0.3621 -0.8350
   56MOL   O19411304   7.306   3.178   2.927 -0.7272 -0.4679  0.2818
   56MOL   C19511305   7.281   3.076   3.028 -0.3715  0.0333 -0.6280
   56MOL   H19611306   7.492   3.319   2.810 -1.7966 -1.6537 -0.6139
   56MOL   H19711307   7.351   3.387   2.780  0.8096 -0.0824 -1.1083
   56MOL   H19811308   7.257   3.358   3.018  0.1348 -0.9819  0.7354
   56MOL   H19911309   7.238   3.130   3.112  1.9903  1.9058 -0.5499
   56MOL   H20011310   7.218   2.992   2.999 -1.1389  0.3592  0.1094
   56MOL   H20111311   7.368   3.030   3.075 -0.4105  1.2651  0.6766
   56MOL   H20211312   7.412   3.278   3.059 -0.8012  1.4630  0.3203
   57MOL     C111313   3.265   0.538   3.746 -0.1871 -0.2547 -0.1082
   57MOL     C211314   3.341   0.420   3.789 -1.0065  0.0329  0.0241
   57MOL     O311315   3.248   0.328   3.856 -0.1461 -0.3391  0.0791
   57MOL     C411316   3.238   0.364   3.995 -1.1294  0.0928  1.2849
   57MOL     H511317   3.329   0.618   3.707  1.0265 -1.5514 -0.7968
   57MOL     H611318   3.189   0.508   3.673 -0.7195 -2.5092  1.3216
   57MOL     H711319   3.422   0.464   3.848 -0.6697 -1.0073  0.3394
   57MOL     H811320   3.154   0.431   4.015  0.5639  2.4393  0.7233
   57MOL     H911321   3.223   0.278   4.061 -2.1444  1.2141  2.5602
   57MOL    H1011322   3.328   0.409   4.037 -0.0410 -0.6201 -0.2667
   57MOL    H1111323   3.212   0.589   3.827  1.3994  1.3515 -0.0529
   57MOL    C1211324   3.399   0.339   3.672 -0.3966  0.3805 -0.0634
   57MOL    C1311325   3.460   0.198   3.703 -0.0974 -0.0067  0.0418
   57MOL    O1411326   3.431   0.112   3.595  0.2165 -0.3069 -0.5570
   57MOL    C1511327   3.327   0.014   3.606  0.6454 -0.0740  0.4025
   57MOL    H1611328   3.477   0.396   3.622  0.0847  1.5400  1.9810
   57MOL    H1711329   3.322   0.342   3.595 -1.7077  1.6896  1.2717
   57MOL    H1811330   3.403   0.160   3.788  0.8699 -2.6164 -0.4227
   57MOL    H1911331   3.289   7.790   3.510  0.2744 -0.0450  0.5372
   57MOL    H2011332   3.350   7.745   3.678 -0.0800  0.6267  1.4194
   57MOL    H2111333   3.242   0.071   3.644  0.8136  0.2682  0.2694
   57MOL    C2211334   3.609   0.191   3.759 -0.2192 -0.1924  0.1342
   57MOL    C2311335   3.650   0.053   3.813 -0.9931 -0.1432 -0.2260
   57MOL    O2411336   3.793   0.068   3.828 -0.7046 -0.1107 -0.0637
   57MOL    C2511337   3.854   7.763   3.781 -0.2135  0.4112 -0.3856
   57MOL    H2611338   3.619   0.252   3.848 -1.8087  0.3610 -0.0549
   57MOL    H2711339   3.678   0.243   3.693 -0.4867  1.1168  0.8687
   57MOL    H2811340   3.616   7.786   3.744 -0.5733 -0.8491  0.3569
   57MOL    H2911341   3.818   7.681   3.843 -0.1498  1.7453  1.4646
   57MOL    H3011342   3.856   7.751   3.673  0.1190 -3.6291 -0.0309
   57MOL    H3111343   3.961   7.766   3.804 -0.3555 -0.7532  0.4959
   57MOL    C3211344   3.598   0.032   3.952 -0.2900  0.0885 -0.1557
   57MOL    C3311345   3.519   7.702   3.975  0.4339 -0.5508  0.2735
   57MOL    O3411346   3.615   7.603   3.948 -0.0584  0.6596 -0.3179
   57MOL    C3511347   3.565   7.495   3.875 -0.9369  0.3862  0.3318
   57MOL    H3611348   3.525   0.109   3.977 -0.1714  0.2044 -0.1649
   57MOL    H3711349   3.671   0.039   4.032 -0.1232 -0.2421 -0.2750
   57MOL    H3811350   3.436   7.696   3.904 -1.5688  1.2014  2.3529
   57MOL    H3911351   3.525   7.530   3.780 -1.5735 -1.6520 -0.1768
   57MOL    H4011352   3.638   7.425   3.834 -1.0958  1.4978 -1.9578
   57MOL    H4111353   3.491   7.428   3.919 -0.3104 -0.1886  0.5047
   57MOL    C4211354   3.442   7.680   4.109 -0.2291  0.0381  0.4569
   57MOL    C4311355   3.304   7.753   4.131 -0.6442 -0.3734 -0.2554
   57MOL    O4411356   3.215   7.727   4.025 -0.6268 -0.4710  0.4169
   57MOL    C4511357   3.162   0.031   3.956 -0.5134 -0.3759  0.6078
   57MOL    H4611358   3.514   7.695   4.189  1.1504 -3.2474 -0.0847
   57MOL    H4711359   3.418   7.573   4.114  2.0762 -0.5516 -0.1159
   57MOL    H4811360   3.327   0.049   4.136 -0.7383 -0.3798  0.3029
   57MOL    H4911361   3.094   0.094   4.013 -0.1792  0.1747  0.4034
   57MOL    H5011362   3.241   0.097   3.918  0.3492 -1.8938 -0.2561
   57MOL    H5111363   3.101   7.800   3.877  0.9825 -0.2829 -0.6185
   57MOL    C5211364   3.243   7.710   4.262 -0.2958 -0.1976 -0.6708
   57MOL    C5311365   3.109   7.787   4.294  0.0562 -0.2633 -0.2194
   57MOL    O5411366   3.053   7.738   4.418 -0.0899  0.1107  0.3315
   57MOL    C5511367   2.990   7.613   4.407 -0.1602 -0.7067 -0.4481
   57MOL    H5611368   3.316   7.719   4.343 -0.4365 -1.7101 -0.3523
   57MOL    H5711369   3.232   7.603   4.242  1.5491 -0.1338 -2.2099
   57MOL    H5811370   3.041   7.792   4.209 -0.4593  1.2760  0.2613
   57MOL    H5911371   3.052   7.528   4.378  0.6285 -0.6695  1.0581
   57MOL    H6011372   2.934   7.609   4.500 -0.1381  2.6676 -0.2496
   57MOL    H6111373   2.912   7.611   4.331 -0.8658  0.3490  0.2427
   57MOL    C6211374   3.128   0.125   4.338  0.0882 -0.2895 -0.5580
   57MOL    C6311375   3.004   0.199   4.402  0.0183 -0.3352  0.0900
   57MOL    O6411376   3.044   0.273   4.521 -0.0621  0.0506  0.0087
   57MOL    C6511377   3.087   0.190   4.630  0.3621  0.3217 -0.1461
   57MOL    H6611378   3.178   0.176   4.255 -0.0047  1.0266  0.1964
   57MOL    H6711379   3.209   0.139   4.409 -0.4645  3.0796 -0.5033
   57MOL    H6811380   2.938   0.122   4.443  0.1472 -0.4084  0.1590
   57MOL    H6911381   3.130   0.260   4.702 -0.9236 -0.7256  1.7017
   57MOL    H7011382   2.996   0.159   4.682 -0.3564  0.6077 -1.2226
   57MOL    H7111383   3.158   0.110   4.607  1.8525  1.2736  1.0344
   57MOL    C7211384   2.932   0.294   4.296 -0.2104  0.1740 -0.0712
   57MOL    C7311385   2.811   0.368   4.350 -0.3506  0.0474  0.0448
   57MOL    O7411386   2.756   0.441   4.237 -0.0589 -0.1381  0.3519
   57MOL    C7511387   2.810   0.569   4.219 -0.5084 -0.1381  0.2894
   57MOL    H7611388   2.892   0.213   4.235  0.2298 -1.5362  1.8355
   57MOL    H7711389   3.003   0.362   4.247  0.2824  1.3813  2.2674
   57MOL    H7811390   2.836   0.426   4.439  0.7651  0.8986 -0.8082
   57MOL    H7911391   2.919   0.565   4.230 -0.7445  0.3340  3.1089
   57MOL    H8011392   2.791   0.593   4.115 -1.1752 -2.4167 -0.1331
   57MOL    H8111393   2.762   0.642   4.285  1.9054  2.9938 -1.2446
   57MOL    C8211394   2.697   0.279   4.393 -0.2437  0.3065 -0.0384
   57MOL    C8311395   2.576   0.356   4.450  0.3797 -0.3128  0.1487
   57MOL    O8411396   2.459   0.280   4.441 -0.3681  0.1109 -0.2824
   57MOL    C8511397   2.385   0.327   4.333 -0.3009 -0.6127  1.3275
   57MOL    H8611398   2.731   0.202   4.461 -0.9118 -1.6407 -1.8487
   57MOL    H8711399   2.662   0.228   4.303  0.4432  0.5943 -0.4761
   57MOL    H8811400   2.562   0.453   4.402  1.9218  0.4535  1.1880
   57MOL    H8911401   2.441   0.312   4.240 -1.4672  0.6228  0.3964
   57MOL    H9011402   2.289   0.280   4.313 -0.5976  0.1607  0.9074
   57MOL    H9111403   2.372   0.436   4.331  0.1322 -0.5639  0.6150
   57MOL    C9211404   2.577   0.371   4.597  0.2887 -0.5249 -0.7826
   57MOL    C9311405   2.663   0.490   4.659 -0.0696  0.8002  0.0487
   57MOL    O9411406   2.570   0.576   4.723  0.3239  0.3182 -0.2009
   57MOL    C9511407   2.533   0.686   4.635 -0.0588 -0.8470 -0.1191
   57MOL    H9611408   2.595   0.275   4.646 -0.2370 -0.1901  0.0808
   57MOL    H9711409   2.474   0.397   4.619  0.8703  1.2327 -0.0705
   57MOL    H9811410   2.724   0.545   4.588 -0.0397  1.7624  0.8076
   57MOL    H9911411   2.475   0.656   4.548  0.6655 -1.0791 -0.5252
   57MOL   H10011412   2.486   0.764   4.694 -0.5114 -1.7310  0.7153
   57MOL   H10111413   2.615   0.724   4.574 -0.6880  0.9092  0.1209
   57MOL   C10211414   2.772   0.438   4.757 -0.5380 -0.2979 -0.6303
   57MOL   C10311415   2.858   0.550   4.825 -0.8267 -0.3408  0.3813
   57MOL   O10411416   2.953   0.488   4.915  0.4137  0.3240  0.0877
   57MOL   C10511417   2.937   0.538   5.050  0.5478 -0.2402  0.2605
   57MOL   H10611418   2.837   0.373   4.698  0.6448 -0.6899  1.0854
   57MOL   H10711419   2.726   0.371   4.829  0.6429 -0.3766  0.0508
   57MOL   H10811420   2.789   0.621   4.871  0.0624  0.8575 -0.0970
   57MOL   H10911421   2.838   0.519   5.092 -0.1153  0.6664 -0.8576
   57MOL   H11011422   3.018   0.511   5.117  0.3654 -0.4130  0.4088
   57MOL   H11111423   2.929   0.647   5.049 -1.2681 -0.3669  0.2436
   57MOL   C11211424   2.949   0.614   4.715  0.0688  0.1450  0.4261
   57MOL   C11311425   3.043   0.732   4.769  0.0036 -0.3412 -0.4296
   57MOL   O11411426   3.125   0.781   4.666 -0.1593 -0.4682  0.3551
   57MOL   C11511427   3.260   0.742   4.674  0.2887  0.1936  0.3622
   57MOL   H11611428   2.888   0.666   4.641 -0.6087 -0.4985  0.5223
   57MOL   H11711429   2.999   0.538   4.655 -0.7202  1.2251 -1.6758
   57MOL   H11811430   3.101   0.694   4.853  2.0320  0.2088 -1.5489
   57MOL   H11911431   3.318   0.781   4.590 -0.9681 -1.6466 -1.3897
   57MOL   H12011432   3.303   0.786   4.765 -1.3085  0.4474  1.0084
   57MOL   H12111433   3.277   0.635   4.676 -0.9380 -0.0474 -1.7953
   57MOL   C12211434   2.965   0.858   4.824  0.3120  0.1402 -0.8267
   57MOL   C12311435   3.055   0.969   4.872  0.3486 -0.2900  0.8466
   57MOL   O12411436   2.987   1.093   4.866  0.3457  0.5915 -0.3888
   57MOL   C12511437   2.996   1.159   4.736 -0.1153 -0.0147 -0.3568
   57MOL   H12611438   2.907   0.826   4.911 -0.0191  1.3462 -0.6007
   57MOL   H12711439   2.895   0.913   4.762 -1.3971 -0.7528  0.2625
   57MOL   H12811440   3.144   0.961   4.809 -0.4549 -0.9211 -0.2328
   57MOL   H12911441   3.024   1.097   4.651  1.7039  0.6919 -0.3087
   57MOL   H13011442   2.898   1.204   4.720 -0.3037 -0.1695  0.3414
   57MOL   H13111443   3.073   1.237   4.737  0.6724 -0.7881  1.0773
   57MOL   C13211444   3.097   0.942   5.020  0.0956  0.2270  0.8890
   57MOL   C13311445   3.243   0.990   5.054 -0.2704 -0.2683  0.1429
   57MOL   O13411446   3.239   1.138   5.056 -0.2794 -0.7446  0.4102
   57MOL   C13511447   3.367   1.200   5.047 -0.1825  0.2464  0.7754
   57MOL   H13611448   3.108   0.833   5.023  1.4677  0.1961 -2.3990
   57MOL   H13711449   3.022   0.971   5.093 -2.7359 -3.7869 -0.2664
   57MOL   H13811450   3.314   0.957   4.979 -0.3131 -0.1922  0.0692
   57MOL   H13911451   3.408   1.171   4.950 -1.8505 -1.4823  0.5546
   57MOL   H14011452   3.360   1.308   5.050 -1.2681  0.1823  0.9047
   57MOL   H14111453   3.441   1.159   5.116  1.7548  0.3189 -1.2033
   57MOL   C14211454   3.283   0.928   5.197 -0.6680 -0.2348 -0.5256
   57MOL   C14311455   3.288   0.776   5.224 -0.2822 -0.2517 -0.2767
   57MOL   O14411456   3.153   0.735   5.245 -0.1980  0.7049  0.5257
   57MOL   C14511457   3.114   0.728   5.383 -0.7227 -0.1890  0.3625
   57MOL   H14611458   3.227   0.971   5.280 -0.5111 -0.1147 -0.4795
   57MOL   H14711459   3.385   0.956   5.225 -0.4930 -1.6827  0.3085
   57MOL   H14811460   3.340   0.766   5.319 -0.3821 -2.5968 -0.4424
   57MOL   H14911461   3.135   0.820   5.437 -0.0627  0.3265 -0.7523
   57MOL   H15011462   3.010   0.698   5.396 -1.1433  0.9576 -0.2211
   57MOL   H15111463   3.174   0.652   5.432 -1.1993 -0.6415  0.2452
   57MOL   C15211464   3.349   0.702   5.108 -0.2248  0.1542  0.2185
   57MOL   C15311465   3.355   0.541   5.124 -0.8560  0.4286 -0.1784
   57MOL   O15411466   3.378   0.484   4.997  0.1817 -0.2060 -0.0283
   57MOL   C15511467   3.268   0.435   4.932 -0.2253  0.6059  0.7035
   57MOL   H15611468   3.445   0.747   5.084  0.3137 -0.6746  0.7684
   57MOL   H15711469   3.286   0.716   5.021 -2.0791  4.5289  2.1484
   57MOL   H15811470   3.261   0.501   5.160 -1.7554  2.6445  0.0369
   57MOL   H15911471   3.324   0.404   4.844 -1.1610 -0.8224  0.6054
   57MOL   H16011472   3.220   0.352   4.983  1.5278 -1.7233 -1.2907
   57MOL   H16111473   3.194   0.510   4.901  1.5683  1.5762 -1.3871
   57MOL   C16211474   3.462   0.480   5.219  0.0610 -0.3120  0.1601
   57MOL   C16311475   3.457   0.328   5.243 -0.5521 -0.5545 -0.2439
   57MOL   O16411476   3.594   0.280   5.270 -0.4391 -0.0703  0.1816
   57MOL   C16511477   3.683   0.269   5.164  0.1287 -0.9665  0.0686
   57MOL   H16611478   3.461   0.521   5.320 -0.2361 -0.8002  0.3576
   57MOL   H16711479   3.554   0.503   5.165 -0.0087  0.0004  0.1748
   57MOL   H16811480   3.426   0.275   5.153  0.5377 -0.6665 -0.5633
   57MOL   H16911481   3.746   0.356   5.146  0.0924 -0.9814 -0.1329
   57MOL   H17011482   3.752   0.194   5.202  0.2906 -0.1680  1.3893
   57MOL   H17111483   3.636   0.239   5.070  0.6476 -1.5627 -0.0051
   57MOL   C17211484   3.368   0.280   5.366  0.3315 -0.3051  0.6949
   57MOL   C17311485   3.329   0.130   5.378 -0.2343 -0.6175  0.3596
   57MOL   O17411486   3.270   0.123   5.513  0.1708 -0.3009 -0.0601
   57MOL   C17511487   3.275   7.807   5.573  0.7004 -0.5191 -0.5336
   57MOL   H17611488   3.277   0.339   5.359 -0.5736 -2.0150 -3.0499
   57MOL   H17711489   3.428   0.305   5.455 -0.4261  0.5661  0.9661
   57MOL   H17811490   3.421   0.072   5.377  0.5247  0.5077  1.8483
   57MOL   H17911491   3.243   7.719   5.516 -1.4370 -0.2154  0.1565
   57MOL   H18011492   3.381   7.788   5.588  0.7316  0.5240  0.5717
   57MOL   H18111493   3.214   7.807   5.663  2.4881  2.7693  0.7187
   57MOL   C18211494   3.245   0.074   5.258  0.3063  0.4741 -0.2052
   57MOL   C18311495   3.310   0.013   5.133 -0.3434 -0.4364  0.2575
   57MOL   O18411496   3.368   7.699   5.180  0.9010  0.9904  0.0785
   57MOL   C18511497   3.513   7.699   5.174 -0.4697 -0.2384  0.3337
   57MOL   H18611498   3.187   0.157   5.217 -0.6406  0.5039  1.1348
   57MOL   H18711499   3.169   0.004   5.292  2.6481 -1.4365  1.2641
   57MOL   H18811500   3.378   0.087   5.092 -3.6741  2.6372  0.0047
   57MOL   H18911501   3.566   7.757   5.250  0.6794  0.0526 -0.6771
   57MOL   H19011502   3.547   7.596   5.182 -1.7524 -0.6027  1.1514
   57MOL   H19111503   3.550   7.731   5.076 -2.2097 -1.2407 -0.6732
   57MOL   C19211504   3.204   7.803   5.021  0.1347  1.2646  0.1072
   57MOL   C19311505   3.252   7.710   4.906  0.0483 -0.0697 -0.5705
   57MOL   O19411506   3.160   7.696   4.799  0.0024  0.1017  0.2785
   57MOL   C19511507   3.048   7.615   4.834  0.1867  0.5687 -0.6254
   57MOL   H19611508   3.177   0.090   4.980 -0.1433  0.2390 -2.2884
   57MOL   H19711509   3.111   7.765   5.064  0.3821 -0.7407 -1.0636
   57MOL   H19811510   3.294   7.618   4.947 -0.4826  0.9103  2.2937
   57MOL   H19911511   2.969   7.610   4.759 -1.7539  0.4713  1.3647
   57MOL   H20011512   3.069   7.513   4.866  2.2389  1.2936  0.3872
   57MOL   H20111513   2.999   7.653   4.924  0.3328  0.7571 -0.6244
   57MOL   H20211514   3.337   7.760   4.858  0.2082 -1.2505 -1.5587
   58MOL     C111515   0.849   2.712   2.276 -0.4740  0.4297  0.2783
   58MOL     C211516   0.972   2.788   2.217 -0.0490  0.0430  0.0481
   58MOL     O311517   1.021   2.697   2.118 -0.1277  0.6354 -0.1525
   58MOL     C411518   1.158   2.654   2.131  0.2739  0.6175  0.1592
   58MOL     H511519   0.775   2.687   2.201 -1.5003  0.4366  1.2744
   58MOL     H611520   0.888   2.618   2.316 -2.0254 -0.7096 -0.8331
   58MOL     H711521   1.042   2.816   2.295 -1.8513 -1.3576  2.2376
   58MOL     H811522   1.225   2.736   2.108 -1.5407  1.4385 -2.5241
   58MOL     H911523   1.193   2.615   2.226  0.7694  2.5135  0.7623
   58MOL    H1011524   1.180   2.568   2.067 -1.3113 -0.1222  0.5681
   58MOL    H1111525   0.796   2.773   2.349  0.4494  2.3965 -0.6576
   58MOL    C1211526   0.936   2.919   2.146  0.1041  0.1331  0.1631
   58MOL    C1311527   0.906   3.033   2.243 -0.5691 -0.5800 -0.4597
   58MOL    O1411528   1.012   3.053   2.334  0.0239  0.6576  0.6141
   58MOL    C1511529   0.972   3.081   2.466  0.6158 -0.3579 -0.3879
   58MOL    H1611530   0.853   2.898   2.079  2.8013  0.5441 -3.4561
   58MOL    H1711531   1.020   2.955   2.087 -0.9853 -0.2248 -1.6371
   58MOL    H1811532   0.814   3.012   2.296  1.1477 -2.1701  1.9845
   58MOL    H1911533   0.921   3.177   2.455  1.3782  0.2168  1.0025
   58MOL    H2011534   0.897   3.011   2.503  1.4345 -0.6482  0.7347
   58MOL    H2111535   1.054   3.092   2.535  0.0501 -1.0534  0.4087
   58MOL    C2211536   0.865   3.164   2.180 -0.0297  0.5807 -0.6023
   58MOL    C2311537   0.740   3.160   2.090 -0.2899 -0.0535 -0.2997
   58MOL    O2411538   0.639   3.109   2.173 -0.1486  0.1215  0.0668
   58MOL    C2511539   0.538   3.042   2.096 -0.0562 -0.3101  0.1988
   58MOL    H2611540   0.941   3.197   2.109  1.0446 -0.0131  0.2480
   58MOL    H2711541   0.846   3.236   2.259 -0.8212  0.0287 -0.2893
   58MOL    H2811542   0.777   3.105   2.003  1.5078  2.7723 -1.3836
   58MOL    H2911543   0.482   3.114   2.037  0.6432 -1.6823 -2.2234
   58MOL    H3011544   0.575   2.967   2.026  0.9042 -0.1383  0.5125
   58MOL    H3111545   0.469   2.995   2.165  1.5002 -0.3376  1.7910
   58MOL    C3211546   0.702   3.301   2.031  0.1445  0.5194  0.0336
   58MOL    C3311547   0.705   3.311   1.874 -0.1631  0.1468  0.1976
   58MOL    O3411548   0.599   3.230   1.833 -0.2173 -0.0171 -0.7808
   58MOL    C3511549   0.620   3.164   1.715  0.4376 -0.2072  0.1362
   58MOL    H3611550   0.783   3.368   2.061  1.6931 -1.9194  1.4512
   58MOL    H3711551   0.609   3.340   2.072  1.3349  1.1308  2.2382
   58MOL    H3811552   0.799   3.261   1.852 -0.5639 -0.2836 -0.5324
   58MOL    H3911553   0.649   3.238   1.641 -2.4647 -0.9015 -1.7700
   58MOL    H4011554   0.692   3.085   1.735  0.4217 -0.8434 -2.2303
   58MOL    H4111555   0.523   3.121   1.688  1.6108 -2.8189 -0.1168
   58MOL    C4211556   0.688   3.464   1.836 -0.2760 -0.3989 -0.6711
   58MOL    C4311557   0.801   3.567   1.867 -0.0338  0.1358 -0.3150
   58MOL    O4411558   0.918   3.501   1.815  0.2140  0.0152 -0.3673
   58MOL    C4511559   1.033   3.515   1.894  0.2447 -0.1555 -0.3814
   58MOL    H4611560   0.602   3.492   1.895 -0.1894 -2.1295  0.3131
   58MOL    H4711561   0.651   3.482   1.735  1.5195  4.6925 -0.5907
   58MOL    H4811562   0.808   3.595   1.972 -3.2395  2.6005 -0.6937
   58MOL    H4911563   1.021   3.492   2.000  0.8873 -2.0831 -0.7208
   58MOL    H5011564   1.104   3.442   1.857  0.3844 -0.1092 -0.2036
   58MOL    H5111565   1.071   3.614   1.867  1.4252 -0.7546 -0.9310
   58MOL    C5211566   0.781   3.705   1.802  0.3362  0.1149 -0.2821
   58MOL    C5311567   0.683   3.797   1.877 -0.0600 -0.5289  0.0861
   58MOL    O5411568   0.724   3.817   2.012  0.6209 -0.6276 -0.1106
   58MOL    C5511569   0.628   3.796   2.117 -0.1109 -0.2845  0.1378
   58MOL    H5611570   0.752   3.669   1.703  0.2693 -0.6524  0.0103
   58MOL    H5711571   0.873   3.764   1.796  1.2346 -1.0497  1.6747
   58MOL    H5811572   0.589   3.742   1.886 -1.5637  2.0803  1.1018
   58MOL    H5911573   0.613   3.690   2.136 -1.5274 -0.2880 -0.8740
   58MOL    H6011574   0.669   3.840   2.208 -0.1431 -0.7159  0.3627
   58MOL    H6111575   0.536   3.853   2.100  0.1659  0.2824  0.5059
   58MOL    C6211576   0.655   3.931   1.820  0.5244  0.1635 -0.0688
   58MOL    C6311577   0.629   3.928   1.673  0.3897  0.2817 -0.1184
   58MOL    O6411578   0.509   3.856   1.660 -0.1724 -0.0923 -0.4591
   58MOL    C6511579   0.507   3.765   1.549  0.4057  0.0614 -0.1914
   58MOL    H6611580   0.746   3.989   1.836 -0.9939  2.7002 -0.2025
   58MOL    H6711581   0.580   3.977   1.885  2.2090  1.6847  0.8450
   58MOL    H6811582   0.721   3.887   1.630  0.0876 -0.6076  0.0767
   58MOL    H6911583   0.592   3.700   1.529 -0.3112 -0.7532 -0.5852
   58MOL    H7011584   0.413   3.710   1.549 -0.1475  1.0024 -0.7532
   58MOL    H7111585   0.509   3.829   1.461 -0.1066  1.4986  0.8321
   58MOL    C7211586   0.587   4.061   1.615  0.2901 -0.0772 -0.2206
   58MOL    C7311587   0.671   4.188   1.604  0.1092  0.5190 -0.4979
   58MOL    O7411588   0.789   4.156   1.528  0.3507 -0.6134 -0.1591
   58MOL    C7511589   0.904   4.223   1.577  0.1354 -0.0386 -0.5836
   58MOL    H7611590   0.495   4.087   1.667  0.6454  3.7765 -1.3850
   58MOL    H7711591   0.551   4.049   1.513  1.1778 -0.0730 -0.5410
   58MOL    H7811592   0.697   4.219   1.705 -1.5347 -3.9276  1.4098
   58MOL    H7911593   0.923   4.210   1.683  2.8461 -0.4764 -1.0867
   58MOL    H8011594   1.000   4.191   1.535  1.5795 -1.8183  3.7368
   58MOL    H8111595   0.888   4.330   1.566 -1.7397 -0.5094 -2.8826
   58MOL    C8211596   0.597   4.298   1.527  0.4766  0.1388 -0.4567
   58MOL    C8311597   0.528   4.396   1.626 -0.5763 -0.9258 -0.0080
   58MOL    O8411598   0.636   4.462   1.688 -0.0213 -0.0682 -0.0382
   58MOL    C8511599   0.607   4.545   1.801 -0.0883  0.2393  0.2850
   58MOL    H8611600   0.523   4.250   1.463  2.4404  1.0447 -3.4987
   58MOL    H8711601   0.666   4.352   1.463  0.6091 -1.1011 -1.3744
   58MOL    H8811602   0.473   4.332   1.695 -0.7699 -0.5860  0.1520
   58MOL    H8911603   0.561   4.640   1.771  0.3528  1.1930  2.4556
   58MOL    H9011604   0.538   4.505   1.876 -0.7506  0.9231  0.0566
   58MOL    H9111605   0.693   4.573   1.862 -0.7878  0.9771  0.9668
   58MOL    C9211606   0.421   4.484   1.545 -0.6414 -0.0339 -0.7741
   58MOL    C9311607   0.282   4.410   1.524  0.0369  0.2849 -0.1533
   58MOL    O9411608   0.217   4.383   1.651 -0.0973  0.2970  0.1027
   58MOL    C9511609   0.134   4.267   1.658  0.1647 -0.1135 -0.0416
   58MOL    H9611610   0.462   4.516   1.450  0.4678 -1.6457 -0.8479
   58MOL    H9711611   0.417   4.576   1.603  2.0913 -0.0928 -0.4282
   58MOL    H9811612   0.305   4.315   1.474 -1.4053 -0.4707  0.5779
   58MOL    H9911613   0.185   4.172   1.673 -2.3271 -1.1638  2.2605
   58MOL   H10011614   0.069   4.290   1.743 -1.0713 -1.3674 -0.6256
   58MOL   H10111615   0.072   4.269   1.569  0.8485  0.3816 -0.5087
   58MOL   C10211616   0.185   4.484   1.428 -0.3811  0.1667 -0.2450
   58MOL   C10311617   0.139   4.617   1.475  0.5675  0.2419 -0.0382
   58MOL   O10411618   0.227   4.720   1.427 -0.1168  0.0444 -0.2757
   58MOL   C10511619   0.243   4.830   1.514 -0.3767  0.1945 -0.3691
   58MOL   H10611620   0.094   4.424   1.419  0.4220 -0.6769 -3.2702
   58MOL   H10711621   0.232   4.504   1.332  0.7676  0.7127  0.4238
   58MOL   H10811622   0.138   4.598   1.583  1.2905 -2.6148 -0.4940
   58MOL   H10911623   0.321   4.811   1.589  0.9097 -0.4055 -1.8206
   58MOL   H11011624   0.284   4.910   1.453  0.4670 -0.5773 -0.8321
   58MOL   H11111625   0.162   4.883   1.563 -0.7308 -0.3499 -0.3647
   58MOL   C11211626   7.809   4.657   1.438  1.3787 -0.7711 -0.1324
   58MOL   C11311627   7.690   4.591   1.510  0.1342 -0.4840 -0.2489
   58MOL   O11411628   7.674   4.450   1.475 -0.5489 -0.6377 -0.0803
   58MOL   C11511629   7.547   4.394   1.501  0.4006  0.2550  0.7345
   58MOL   H11611630   7.791   4.641   1.332  0.7187  1.5363 -0.4083
   58MOL   H11711631   7.804   4.766   1.445  0.0205 -0.9276  1.6051
   58MOL   H11811632   7.600   4.638   1.472  0.4634 -0.0871 -0.5371
   58MOL   H11911633   7.525   4.377   1.606 -3.2834 -2.3236 -0.3165
   58MOL   H12011634   7.466   4.461   1.469 -0.1039 -1.2424 -1.2543
   58MOL   H12111635   7.539   4.300   1.447  0.1614  1.1425 -0.8065
   58MOL   C12211636   7.691   4.610   1.666 -0.4838  0.1132  0.4331
   58MOL   C12311637   7.724   4.756   1.712 -0.2086 -0.3119  0.4989
   58MOL   O12411638   7.629   4.848   1.651 -0.3137 -0.1113 -0.0471
   58MOL   C12511639   7.656   4.984   1.667  0.9207  0.0908  1.0102
   58MOL   H12611640   7.768   4.540   1.697 -0.4501  0.1705  0.4776
   58MOL   H12711641   7.598   4.587   1.718 -1.1347  2.3519  0.3507
   58MOL   H12811642   0.016   4.780   1.686 -0.5288  1.3107  0.6724
   58MOL   H12911643   7.759   5.008   1.640  0.1399  2.1066 -0.3156
   58MOL   H13011644   7.590   5.050   1.611 -1.0872 -1.5392  1.4402
   58MOL   H13111645   7.647   5.007   1.773  0.6773  3.4030  0.3426
   58MOL   C13211646   7.728   4.757   1.871 -0.3362 -0.0166  0.3237
   58MOL   C13311647   0.032   4.679   1.934 -0.1517  0.1934  0.0026
   58MOL   O13411648   0.155   4.746   1.908 -0.4513 -0.2550  0.4591
   58MOL   C13511649   0.274   4.665   1.904 -0.3878  0.1324  0.2908
   58MOL   H13611650   7.625   4.739   1.901 -0.9340  0.0769 -1.6074
   58MOL   H13711651   7.748   4.859   1.904  1.8518 -0.2408 -0.2461
   58MOL   H13811652   0.033   4.578   1.892 -0.8064 -0.2006  0.9251
   58MOL   H13911653   0.364   4.719   1.874  0.0371  1.0614  3.0822
   58MOL   H14011654   0.293   4.623   2.003  1.3243 -2.8453 -1.2543
   58MOL   H14111655   0.272   4.574   1.844  0.9264  0.6420 -0.5611
   58MOL   C14211656   0.014   4.672   2.084 -0.1129 -0.1163 -0.6502
   58MOL   C14311657   7.718   4.571   2.130  0.2571  0.3312 -0.3501
   58MOL   O14411658   7.587   4.597   2.086  0.0847  0.1070 -0.7121
   58MOL   C14511659   7.494   4.618   2.193 -0.6434  0.2923 -0.4289
   58MOL   H14611660   7.809   4.775   2.118  0.6534 -0.1251 -0.2714
   58MOL   H14711661   0.108   4.646   2.131  1.9498  0.4274 -4.2660
   58MOL   H14811662   7.730   4.576   2.238  2.4630  2.9547 -0.6785
   58MOL   H14911663   7.490   4.525   2.251 -3.1376 -1.0525 -2.6173
   58MOL   H15011664   7.528   4.702   2.254 -0.3064  1.0390 -1.6314
   58MOL   H15111665   7.396   4.645   2.154 -1.8517 -0.2891  2.0464
   58MOL   C15211666   7.739   4.422   2.097 -0.2031 -0.3593  0.2177
   58MOL   C15311667   0.042   4.347   2.169  0.3635 -0.5305  0.1260
   58MOL   O15411668   7.809   4.316   2.302 -0.3095  0.0030 -0.3646
   58MOL   C15511669   0.076   4.375   2.408 -0.1414 -0.1209 -0.0886
   58MOL   H15611670   7.734   4.411   1.988 -1.6103 -0.0777  0.2513
   58MOL   H15711671   7.648   4.371   2.127  1.4312 -2.7560  1.2495
   58MOL   H15811672   0.123   4.419   2.153  0.8085 -0.8304  0.9870
   58MOL   H15911673   0.064   4.483   2.413  2.9114  0.2022  1.7660
   58MOL   H16011674   0.046   4.330   2.503  0.7586  0.0834  0.2996
   58MOL   H16111675   0.182   4.350   2.407 -0.6188 -2.3389  1.1840
   58MOL   C16211676   0.082   4.215   2.097  0.3893 -0.2060  0.3053
   58MOL   C16311677   0.216   4.157   2.141 -0.2469 -0.4692 -0.0237
   58MOL   O16411678   0.220   4.023   2.091 -0.0153 -0.0661  0.1093
   58MOL   C16511679   0.245   3.940   2.199  0.0229 -0.4723  0.8602
   58MOL   H16611680   0.094   4.240   1.991 -1.4556  2.0503  0.5854
   58MOL   H16711681   7.806   4.150   2.085  0.6299 -0.0423 -2.7604
   58MOL   H16811682   0.210   4.167   2.249 -1.6001 -1.3452  0.0029
   58MOL   H16911683   0.337   3.973   2.246  0.3431 -0.0651 -0.0441
   58MOL   H17011684   0.171   3.945   2.280  0.4830 -0.4833  1.2815
   58MOL   H17111685   0.267   3.837   2.168  0.0712 -0.0200 -0.6565
   58MOL   C17211686   0.334   4.245   2.097  0.2399  0.2504 -0.4252
   58MOL   C17311687   0.476   4.194   2.137 -0.2410 -0.5029 -0.3841
   58MOL   O17411688   0.559   4.267   2.054 -0.4378 -0.2497  0.4912
   58MOL   C17511689   0.687   4.215   2.018  0.3010  0.3841  0.5721
   58MOL   H17611690   0.319   4.346   2.136 -2.9475 -0.0538 -0.7859
   58MOL   H17711691   0.332   4.250   1.988 -0.8153 -0.7340 -0.4577
   58MOL   H17811692   0.485   4.087   2.125  1.2472 -0.3123 -1.0409
   58MOL   H17911693   0.696   4.106   2.016  3.2508  0.6078 -1.4584
   58MOL   H18011694   0.727   4.249   1.922  1.1572 -2.5325 -0.1644
   58MOL   H18111695   0.771   4.239   2.084  0.6633 -0.7545  0.5383
   58MOL   C18211696   0.519   4.222   2.283  0.4736 -0.2424  0.0086
   58MOL   C18311697   0.540   4.372   2.332  0.0339  0.2657 -0.1048
   58MOL   O18411698   0.407   4.427   2.348 -0.0147 -0.2342 -0.7098
   58MOL   C18511699   0.410   4.570   2.317  0.1931 -0.0607 -0.4760
   58MOL   H18611700   0.618   4.177   2.283  0.4112 -0.3852 -0.7151
   58MOL   H18711701   0.455   4.157   2.342  0.2905  0.1935  0.2850
   58MOL   H18811702   0.605   4.429   2.265  0.6063 -0.3757 -0.1057
   58MOL   H18911703   0.329   4.620   2.371 -1.4513 -1.6419 -1.4316
   58MOL   H19011704   0.504   4.615   2.349 -0.0678  0.3099 -0.2310
   58MOL   H19111705   0.404   4.593   2.211 -2.4448 -0.2364 -0.4133
   58MOL   C19211706   0.608   4.384   2.458 -0.4334  0.6365 -0.4262
   58MOL   C19311707   0.762   4.366   2.452 -0.0759  0.4661  0.6059
   58MOL   O19411708   0.796   4.231   2.448 -0.5069 -0.2032  0.6656
   58MOL   C19511709   0.938   4.214   2.419  0.2073 -0.0675 -0.0367
   58MOL   H19611710   0.568   4.319   2.536  0.0396  2.5969  1.4978
   58MOL   H19711711   0.596   4.485   2.497 -2.2194  0.4325 -0.4064
   58MOL   H19811712   0.802   4.402   2.546  1.8607 -1.1935  0.4524
   58MOL   H19911713   0.971   4.286   2.345  1.8221 -1.7897 -1.0420
   58MOL   H20011714   1.002   4.202   2.506  1.3630  1.1988 -0.7098
   58MOL   H20111715   0.945   4.128   2.352 -0.2418 -0.0233 -0.1446
   58MOL   H20211716   0.799   4.428   2.370  4.1985 -2.5965  0.0726
   59MOL     C111717   2.058   0.607   2.953  0.4749 -0.3461 -0.4325
   59MOL     C211718   1.985   0.739   2.950  0.9001  0.1630 -0.9631
   59MOL     O311719   1.848   0.727   2.914 -0.0825 -0.3518 -0.5759
   59MOL     C411720   1.818   0.747   2.780 -0.0973  0.2650  0.0987
   59MOL     H511721   2.038   0.564   3.051 -0.6191  1.5525  0.1969
   59MOL     H611722   2.028   0.541   2.872  1.3610 -0.7560 -0.4338
   59MOL     H711723   2.025   0.815   2.884 -0.9917  2.7415  0.7294
   59MOL     H811724   1.720   0.708   2.754 -1.4512  2.5179  1.6415
   59MOL     H911725   1.839   0.850   2.749 -1.4283  0.1996 -1.0591
   59MOL    H1011726   1.882   0.681   2.722  0.2480  0.2802  0.4570
   59MOL    H1111727   2.164   0.629   2.946  0.4467  0.1181  0.5072
   59MOL    C1211728   1.974   0.802   3.091 -0.7277 -0.1726 -0.0921
   59MOL    C1311729   2.097   0.860   3.159  0.3741 -0.5199  0.1656
   59MOL    O1411730   2.145   0.967   3.078 -0.4523 -0.5732 -0.2886
   59MOL    C1511731   2.265   0.942   3.010 -0.4185  0.3047 -0.6750
   59MOL    H1611732   1.933   0.731   3.162 -0.8612 -0.3020 -0.2985
   59MOL    H1711733   1.905   0.886   3.087 -1.3915 -0.6546  0.9262
   59MOL    H1811734   2.182   0.791   3.164  0.9226  0.0823 -0.6756
   59MOL    H1911735   2.280   1.006   2.923 -0.1173  1.3795  0.1519
   59MOL    H2011736   2.357   0.943   3.069  0.1571 -2.1726 -1.4589
   59MOL    H2111737   2.268   0.838   2.977 -1.1631 -0.9238  2.9137
   59MOL    C2211738   2.079   0.908   3.305  0.3052 -0.2914  0.0353
   59MOL    C2311739   2.032   0.804   3.413  0.3021  0.2460 -0.2198
   59MOL    O2411740   2.143   0.734   3.476  0.4747 -0.4929 -0.3540
   59MOL    C2511741   2.138   0.597   3.455 -0.0484  0.4804  0.3935
   59MOL    H2611742   2.010   0.991   3.293  1.8681  0.9772 -0.3644
   59MOL    H2711743   2.169   0.957   3.341  0.3302  0.2193 -0.7045
   59MOL    H2811744   1.964   0.732   3.366  1.0798 -1.8400  1.7474
   59MOL    H2911745   2.219   0.541   3.502  1.6344  2.2220 -0.4042
   59MOL    H3011746   2.049   0.553   3.499  0.4841 -5.4960 -3.9312
   59MOL    H3111747   2.146   0.583   3.348  1.5649  1.1332  0.4110
   59MOL    C3211748   1.944   0.868   3.519 -0.9978 -0.0452 -0.1724
   59MOL    C3311749   1.923   0.787   3.648 -0.2148  0.6848 -0.4835
   59MOL    O3411750   1.867   0.852   3.759 -0.8210  0.2070 -0.2345
   59MOL    C3511751   1.931   0.975   3.799  0.5977  0.4818 -0.2287
   59MOL    H3611752   1.852   0.900   3.470  0.4088  0.3251 -2.6614
   59MOL    H3711753   1.997   0.962   3.534  1.8775 -1.8249  1.2083
   59MOL    H3811754   2.020   0.750   3.680 -2.0859 -3.2823  0.9469
   59MOL    H3911755   1.935   1.050   3.720 -2.4342  0.1632 -0.7739
   59MOL    H4011756   1.865   1.009   3.879  0.0621 -0.3952 -0.2848
   59MOL    H4111757   2.029   0.953   3.842 -0.7331  1.4531  3.5096
   59MOL    C4211758   1.811   0.677   3.622  0.5073 -0.0672 -0.3584
   59MOL    C4311759   1.777   0.579   3.739 -1.0287  0.3415 -0.4279
   59MOL    O4411760   1.649   0.532   3.707 -0.4733  0.4380  0.0836
   59MOL    C4511761   1.544   0.579   3.795 -0.6486  0.2060  0.1053
   59MOL    H4611762   1.820   0.626   3.527  1.9394 -2.3015  0.9498
   59MOL    H4711763   1.718   0.731   3.606  1.1338  0.5731 -1.9169
   59MOL    H4811764   1.781   0.629   3.835 -0.9653 -0.5981  0.0651
   59MOL    H4911765   1.534   0.688   3.801 -0.6063  0.1779  0.7773
   59MOL    H5011766   1.447   0.543   3.761 -0.6153  1.6689 -1.5613
   59MOL    H5111767   1.562   0.550   3.899  2.0129  1.1476 -0.0480
   59MOL    C5211768   1.878   0.457   3.739 -0.5999  0.4193 -0.0899
   59MOL    C5311769   1.854   0.345   3.839  0.0325  0.0724 -0.5290
   59MOL    O5411770   1.962   0.246   3.815 -0.2422  0.3298 -0.0037
   59MOL    C5511771   1.918   0.135   3.734  0.2550  0.3362  0.8888
   59MOL    H5611772   1.978   0.494   3.760 -1.4774  2.4919  0.5341
   59MOL    H5711773   1.878   0.409   3.641  2.7165  1.2558 -0.5419
   59MOL    H5811774   1.753   0.306   3.824 -0.8342  2.1033 -0.1837
   59MOL    H5911775   1.877   0.059   3.801 -0.5575  2.3016  2.6628
   59MOL    H6011776   1.849   0.155   3.652 -1.0125 -2.2364  1.2526
   59MOL    H6111777   2.014   0.094   3.703 -0.3143 -1.1021  0.9739
   59MOL    C6211778   1.864   0.376   3.984  0.0324  0.1700  0.5513
   59MOL    C6311779   1.812   0.266   4.089  0.2504 -0.2800  0.6958
   59MOL    O6411780   1.841   0.314   4.228  0.0526 -0.2314  0.0740
   59MOL    C6511781   1.982   0.297   4.261 -0.5283 -0.0481  0.2016
   59MOL    H6611782   1.808   0.468   4.002  0.1193  0.4242 -0.4378
   59MOL    H6711783   1.964   0.414   4.008 -0.7063  1.0630  2.3115
   59MOL    H6811784   1.865   0.172   4.073  1.9961  0.3870  2.3354
   59MOL    H6911785   2.046   0.350   4.191 -1.6836  0.5934 -0.3949
   59MOL    H7011786   1.990   0.356   4.352  2.3096 -0.6909  0.4255
   59MOL    H7111787   2.008   0.192   4.276 -1.4232 -0.2121  0.6450
   59MOL    C7211788   1.658   0.238   4.087 -0.1821  0.7757 -0.6211
   59MOL    C7311789   1.601   0.158   4.205 -0.8291 -0.2783 -0.6641
   59MOL    O7411790   1.459   0.152   4.178  0.1650 -0.0369 -0.0584
   59MOL    C7511791   1.379   0.186   4.295  0.1187 -0.2349 -0.2726
   59MOL    H7611792   1.632   0.184   3.996 -3.1449  0.9311  0.0915
   59MOL    H7711793   1.609   0.332   4.062  1.1369  0.7394 -3.5472
   59MOL    H7811794   1.621   0.214   4.297  0.1355 -0.5021 -0.7277
   59MOL    H7911795   1.410   0.277   4.345  0.1011  0.3462 -1.2964
   59MOL    H8011796   1.272   0.185   4.271 -0.1556 -1.7451  0.9237
   59MOL    H8111797   1.388   0.101   4.363 -1.2589  0.5161  0.8712
   59MOL    C8211798   1.675   0.025   4.221  0.8066 -0.3236 -1.0499
   59MOL    C8311799   1.617   7.741   4.326  0.2231  0.1194 -0.0352
   59MOL    O8411800   1.678   7.611   4.315  0.4147  0.3260 -0.0951
   59MOL    C8511801   1.624   7.523   4.213 -0.1965  0.2780 -0.2058
   59MOL    H8611802   1.779   0.036   4.251 -0.1819  2.6343  1.6289
   59MOL    H8711803   1.678   7.785   4.125 -0.0294  0.3061 -1.4171
   59MOL    H8811804   1.514   7.706   4.312  0.1351  1.0146 -1.7751
   59MOL    H8911805   1.647   7.418   4.228  0.2043  0.7242  2.4593
   59MOL    H9011806   1.515   7.520   4.213 -0.2048  0.5743 -0.2209
   59MOL    H9111807   1.659   7.560   4.116 -0.9399  0.0549 -0.5693
   59MOL    C9211808   1.632   7.785   4.471  0.3438  0.2482 -0.1520
   59MOL    C9311809   1.591   7.680   4.585 -0.3716  0.0438  0.0306
   59MOL    O9411810   1.679   7.698   4.695  0.5410  0.2184 -0.5892
   59MOL    C9511811   1.802   7.624   4.695 -0.4863  0.0839  0.2344
   59MOL    H9611812   1.584   0.071   4.488  0.0880 -0.0147  0.6503
   59MOL    H9711813   1.738   7.806   4.476  0.6372 -1.5451  2.8955
   59MOL    H9811814   1.607   7.578   4.551  0.9222  0.2573 -0.0502
   59MOL    H9911815   1.785   7.516   4.705 -1.1186  0.4252  3.5272
   59MOL   H10011816   1.860   7.640   4.604 -2.7066 -0.5215 -1.3265
   59MOL   H10111817   1.863   7.655   4.780 -1.5682  0.2294  0.9704
   59MOL   C10211818   1.452   7.704   4.637 -0.1631 -0.0956 -0.4813
   59MOL   C10311819   1.404   7.608   4.746  0.4610  0.1302 -0.0729
   59MOL   O10411820   1.288   7.671   4.806 -0.2435  0.0558 -0.4892
   59MOL   C10511821   1.301   7.686   4.946  0.2630 -0.4224  0.3355
   59MOL   H10611822   1.391   7.694   4.547 -0.2222  1.0487 -0.5780
   59MOL   H10711823   1.451   7.805   4.680  1.8920  0.6719 -2.2060
   59MOL   H10811824   1.489   7.595   4.814 -0.5563 -2.1393  0.8012
   59MOL   H10911825   1.340   7.596   4.995  0.0254  1.6425  4.5788
   59MOL   H11011826   1.370   7.766   4.971 -1.6672  1.2765  0.3260
   59MOL   H11111827   1.209   7.712   4.999  0.4474  0.4645  0.2158
   59MOL   C11211828   1.365   7.471   4.689  0.0380  0.2027 -0.3247
   59MOL   C11311829   1.384   7.359   4.795 -0.2853  0.2506 -0.2932
   59MOL   O11411830   1.299   7.242   4.775  0.1206 -0.5296  0.3980
   59MOL   C11511831   1.162   7.261   4.780  0.0299  0.3999 -0.6395
   59MOL   H11611832   1.420   7.440   4.601 -0.6582 -0.4167 -0.5443
   59MOL   H11711833   1.258   7.468   4.667 -0.1454  3.6664 -0.2340
   59MOL   H11811834   1.348   7.402   4.888 -1.8578 -1.1901 -0.1997
   59MOL   H11911835   1.127   7.159   4.793 -0.9828  0.6065 -1.6176
   59MOL   H12011836   1.127   7.315   4.868  1.7388  1.7600 -0.7600
   59MOL   H12111837   1.122   7.306   4.689 -0.1249  1.4454 -0.0662
   59MOL   C12211838   1.530   7.318   4.820 -0.1081  0.1418 -0.2820
   59MOL   C12311839   1.587   7.225   4.715 -1.2295  0.0507  0.4180
   59MOL   O12411840   1.587   7.293   4.587  0.0025  0.3072 -0.8799
   59MOL   C12511841   1.523   7.227   4.485 -0.3907  0.4897  0.3241
   59MOL   H12611842   1.533   7.274   4.920  1.1945  1.4446  0.2795
   59MOL   H12711843   1.593   7.408   4.823 -0.9199  0.7472 -1.0014
   59MOL   H12811844   1.532   7.131   4.719  1.9887 -1.9783 -0.6879
   59MOL   H12911845   1.540   7.268   4.386  0.1266 -2.2008 -0.7613
   59MOL   H13011846   1.563   7.126   4.469  0.8554  0.4983  3.0161
   59MOL   H13111847   1.417   7.230   4.508 -0.4198 -0.7585  0.4165
   59MOL   C13211848   1.736   7.188   4.743 -0.0374 -0.0191 -0.1303
   59MOL   C13311849   1.766   7.096   4.864 -0.2497  0.1245  0.2432
   59MOL   O13411850   1.706   6.974   4.828 -0.0167  0.0979  0.4196
   59MOL   C13511851   1.670   6.897   4.943  0.0918 -0.4545 -0.4516
   59MOL   H13611852   1.789   7.279   4.771  0.6019 -0.2176 -0.6721
   59MOL   H13711853   1.784   7.145   4.655 -1.3055  0.5946 -1.1389
   59MOL   H13811854   1.715   7.135   4.952  0.4145  1.2756  0.1329
   59MOL   H13911855   1.603   6.826   4.895 -0.1342  0.3070 -1.2746
   59MOL   H14011856   1.755   6.845   4.987 -0.7942 -0.2411  1.6135
   59MOL   H14111857   1.601   6.931   5.020  1.2140 -1.4249  1.0163
   59MOL   C14211858   1.916   7.067   4.893  0.0458  0.9798 -0.3587
   59MOL   C14311859   2.002   7.185   4.940 -0.0010 -0.2069  0.3051
   59MOL   O14411860   1.934   7.254   5.047 -0.3115  0.9773 -0.3489
   59MOL   C14511861   1.960   7.392   5.053 -0.1051 -0.4781  0.4289
   59MOL   H14611862   1.964   7.024   4.805 -0.6755 -0.5723 -0.0072
   59MOL   H14711863   1.919   6.991   4.971  1.3204  1.7028  0.3252
   59MOL   H14811864   2.025   7.245   4.853 -0.4313  0.1326  0.4288
   59MOL   H14911865   2.064   7.423   5.052  0.1715 -1.3873  0.1980
   59MOL   H15011866   1.896   7.443   4.981  0.4231 -1.7581 -0.9707
   59MOL   H15111867   1.917   7.432   5.145 -2.0259  0.1000 -0.6919
   59MOL   C15211868   2.138   7.138   5.001  0.2340 -0.3755 -0.1921
   59MOL   C15311869   2.236   7.075   4.909  0.0555 -0.3183 -0.0703
   59MOL   O15411870   2.285   7.168   4.813 -0.0207 -0.0404 -0.1024
   59MOL   C15511871   2.314   7.099   4.693  0.0713 -1.3138 -0.3398
   59MOL   H15611872   2.115   7.075   5.087 -3.0046  1.5730  0.4680
   59MOL   H15711873   2.190   7.223   5.043  0.9532 -0.8432 -0.1273
   59MOL   H15811874   2.189   6.990   4.860 -0.2900 -0.5544  0.6600
   59MOL   H15911875   2.237   7.039   4.643 -2.4638  1.2106  0.3876
   59MOL   H16011876   2.324   7.182   4.622 -3.3045 -0.3147  0.2399
   59MOL   H16111877   2.412   7.052   4.697 -0.4201 -2.2894  0.4484
   59MOL   C16211878   2.357   7.006   4.985  0.5493  0.5164 -0.3581
   59MOL   C16311879   2.335   6.918   5.109 -0.5324 -0.1238 -0.2712
   59MOL   O16411880   2.325   7.010   5.222  0.5409  0.4689  0.3162
   59MOL   C16511881   2.363   6.942   5.346  0.0579  0.1582  0.9725
   59MOL   H16611882   2.428   7.083   5.015 -0.9912  2.0726 -0.6850
   59MOL   H16711883   2.419   6.961   4.907 -0.0127 -1.1951  0.1421
   59MOL   H16811884   2.427   6.860   5.109  0.1309  0.9256 -0.6211
   59MOL   H16911885   2.342   7.016   5.423 -0.1511  0.6826  0.4072
   59MOL   H17011886   2.304   6.851   5.358 -1.1187  0.8089  0.1539
   59MOL   H17111887   2.469   6.917   5.337  0.0105  0.6278 -0.8918
   59MOL   C17211888   2.219   6.813   5.101  0.3836 -0.0552 -0.2590
   59MOL   C17311889   2.238   6.698   4.998  0.0284  0.2731 -0.0672
   59MOL   O17411890   2.334   6.597   5.035  0.2596  0.0190 -0.1007
   59MOL   C17511891   2.375   6.507   4.931 -0.6832  0.3629 -1.3318
   59MOL   H17611892   2.129   6.868   5.074  0.1639 -0.5133 -0.4593
   59MOL   H17711893   2.187   6.774   5.197  0.4149 -0.6739 -0.4995
   59MOL   H17811894   2.271   6.755   4.910 -2.1066 -2.7761 -2.9322
   59MOL   H17911895   2.432   6.423   4.972 -0.8728  0.1463 -1.5051
   59MOL   H18011896   2.290   6.470   4.874  0.9013 -2.0914 -2.1844
   59MOL   H18111897   2.439   6.561   4.863  0.8327  1.6448  1.0570
   59MOL   C18211898   2.101   6.638   4.952  0.2979 -0.2485  0.2690
   59MOL   C18311899   2.039   6.542   5.056 -0.2599  0.4000  0.2494
   59MOL   O18411900   1.972   6.611   5.161 -0.0272 -0.0069  0.4577
   59MOL   C18511901   1.955   6.542   5.284 -0.1416  0.4855  0.0673
   59MOL   H18611902   2.127   6.594   4.855 -0.8149  1.7417 -0.9759
   59MOL   H18711903   2.037   6.724   4.933 -1.6529 -1.3651  1.4842
   59MOL   H18811904   2.120   6.481   5.095  1.0920  2.3773  0.6023
   59MOL   H18911905   1.927   6.437   5.278 -1.7722  0.9440 -0.7549
   59MOL   H19011906   2.056   6.542   5.323  0.0481 -0.4057 -0.4080
   59MOL   H19111907   1.887   6.604   5.344  1.2831 -0.7517  3.0701
   59MOL   C19211908   1.945   6.444   4.991 -0.4539 -0.1840 -0.8201
   59MOL   C19311909   1.833   6.492   4.905  0.6523 -0.5168 -0.5677
   59MOL   O19411910   1.760   6.382   4.855  0.0538 -0.2306 -0.0760
   59MOL   C19511911   1.810   6.328   4.727  0.1059 -0.0751 -0.0963
   59MOL   H19611912   1.906   6.370   5.061 -1.9801 -0.7317 -2.2222
   59MOL   H19711913   2.011   6.396   4.919  0.2449 -1.0757  0.4017
   59MOL   H19811914   1.847   6.566   4.825  0.6567 -0.6356 -0.6759
   59MOL   H19911915   1.754   6.236   4.710 -2.1195  1.4610 -1.1086
   59MOL   H20011916   1.791   6.399   4.647  0.7988  0.2746  0.0383
   59MOL   H20111917   1.917   6.303   4.724 -0.2693 -1.6008 -3.8085
   59MOL   H20211918   1.764   6.545   4.970  1.5093  0.2002 -0.2247
   60MOL     C111919   7.344   3.601   7.155 -0.7453  0.1941 -0.0109
   60MOL     C211920   7.493   3.619   7.120 -0.5118 -0.2000 -0.4204
   60MOL     O311921   7.560   3.684   7.222 -0.0642 -0.4324 -0.1406
   60MOL     C411922   7.520   3.818   7.231 -0.2987 -0.0771 -0.2439
   60MOL     H511923   7.280   3.575   7.070  0.6087 -0.3251 -0.8943
   60MOL     H611924   7.327   3.518   7.224 -0.2687  0.3750  0.3252
   60MOL     H711925   7.500   3.687   7.035  0.5653  2.0150  1.3872
   60MOL     H811926   7.487   3.869   7.141  0.9546 -0.6918 -1.0720
   60MOL     H911927   7.455   3.822   7.318  2.0230  1.9539  1.4438
   60MOL    H1011928   7.606   3.871   7.272  0.2878  0.1692 -1.7659
   60MOL    H1111929   7.297   3.692   7.192 -1.9568 -0.0229 -0.9419
   60MOL    C1211930   7.567   3.480   7.092  0.1905  0.1520 -0.4291
   60MOL    C1311931   7.584   3.382   7.208  0.6119  0.5990 -0.7980
   60MOL    O1411932   7.557   3.251   7.165  0.7544  0.4264  0.0395
   60MOL    C1511933   7.424   3.211   7.123 -0.1488  0.4842 -0.4379
   60MOL    H1611934   7.663   3.513   7.051  0.7666 -0.1550  0.6346
   60MOL    H1711935   7.509   3.437   7.011  0.3049  0.3550 -0.6220
   60MOL    H1811936   7.509   3.400   7.284  2.7144  0.3519  1.3881
   60MOL    H1911937   7.413   3.103   7.129 -0.3319  0.5082 -0.3124
   60MOL    H2011938   7.357   3.253   7.198  0.5639  2.2148 -0.7552
   60MOL    H2111939   7.406   3.244   7.021  0.6086  2.5357  0.0641
   60MOL    C2211940   7.726   3.380   7.276 -0.2037 -0.8788  0.3603
   60MOL    C2311941   7.759   3.256   7.353 -0.3707  0.9256  0.8622
   60MOL    O2411942   0.081   3.275   7.397 -0.1567 -0.2893  0.1686
   60MOL    C2511943   0.158   3.154   7.412  0.2550 -0.3155 -0.4217
   60MOL    H2611944   7.751   3.467   7.336  2.9299 -0.6132 -1.2233
   60MOL    H2711945   7.793   3.391   7.190  0.9867  0.0529  1.3775
   60MOL    H2811946   7.772   3.177   7.279  1.0546 -2.7090  4.8328
   60MOL    H2911947   0.168   3.108   7.315  1.4191 -3.5181  1.1514
   60MOL    H3011948   0.257   3.170   7.456  0.4175 -0.6428 -0.6753
   60MOL    H3111949   0.109   3.100   7.493 -1.9255  0.4490 -1.1726
   60MOL    C3211950   7.668   3.225   7.474  0.3446 -0.2825 -0.0364
   60MOL    C3311951   7.673   3.326   7.601  0.5611  0.3410  0.4470
   60MOL    O3411952   7.547   3.323   7.672 -0.4938  0.0126  0.5792
   60MOL    C3511953   7.455   3.416   7.626 -0.2400 -0.7982 -0.8678
   60MOL    H3611954   7.694   3.125   7.510 -0.4236 -0.7358 -0.7133
   60MOL    H3711955   7.568   3.218   7.430  0.4794 -0.1836 -0.3569
   60MOL    H3811956   7.686   3.431   7.577  0.0413  0.7024  1.7117
   60MOL    H3911957   7.492   3.517   7.646 -0.4941 -0.9013  0.1917
   60MOL    H4011958   7.434   3.398   7.521 -0.0586 -0.2681 -0.9948
   60MOL    H4111959   7.355   3.402   7.667 -0.8436  0.8656 -1.7236
   60MOL    C4211960   7.778   3.269   7.698 -0.0588 -0.2729 -0.3708
   60MOL    C4311961   0.007   3.345   0.019 -0.3578  0.5906  0.0111
   60MOL    O4411962   0.037   3.483   7.800  0.0721  0.7930  0.2541
   60MOL    C4511963   0.169   3.520   7.753  0.3814  0.0916  0.0638
   60MOL    H4611964   0.060   3.264   7.640 -0.8726  2.0045 -1.9346
   60MOL    H4711965   7.733   3.172   7.718 -1.8467  0.5781 -0.1941
   60MOL    H4811966   0.092   3.293   0.062  0.1708  0.8126 -0.7499
   60MOL    H4911967   0.173   3.498   7.646  1.1629 -0.0053  0.1121
   60MOL    H5011968   0.189   3.626   7.766  1.0592 -0.1577  1.1496
   60MOL    H5111969   0.248   3.469   7.808  1.9224  1.3834 -0.9084
   60MOL    C5211970   7.714   3.357   0.127 -0.6509  1.1509  0.1153
   60MOL    C5311971   7.656   3.223   0.178  0.1190  0.4127  0.5210
   60MOL    O5411972   7.770   3.159   0.238  0.7152 -0.3752  0.2705
   60MOL    C5511973   7.809   3.030   0.193  0.5606 -0.4450 -0.0346
   60MOL    H5611974   7.625   3.412   0.101  0.0468  1.3439 -1.9515
   60MOL    H5711975   7.761   3.408   0.211 -0.4626  0.4282  0.4568
   60MOL    H5811976   7.625   3.158   0.097  1.3945 -0.3922  0.6725
   60MOL    H5911977   0.057   3.024   0.101 -0.5993 -0.4951 -0.7772
   60MOL    H6011978   0.062   3.003   0.278  0.5606 -1.0413 -0.2175
   60MOL    H6111979   7.719   2.968   0.202 -1.6578  2.7197  0.3328
   60MOL    C6211980   7.543   3.250   0.284 -0.3398  0.2168  0.1454
   60MOL    C6311981   7.476   3.131   0.343  0.2148  0.1033 -0.6732
   60MOL    O6411982   7.367   3.163   0.431 -0.2017  0.1878  0.0297
   60MOL    C6511983   7.411   3.200   0.569  0.0355 -0.0176  0.5295
   60MOL    H6611984   7.462   3.308   0.238 -1.4535 -0.1389  1.6327
   60MOL    H6711985   7.577   3.308   0.369 -0.9007 -0.0199  0.5406
   60MOL    H6811986   7.539   3.059   0.396 -0.1111 -0.4799 -1.0734
   60MOL    H6911987   7.317   3.194   0.623 -0.6973 -2.2701 -0.9234
   60MOL    H7011988   7.484   3.131   0.611  0.9291  0.1844 -0.6443
   60MOL    H7111989   7.454   3.299   0.585  2.5902 -1.4523  2.8674
   60MOL    C7211990   7.394   3.044   0.241  0.0001  0.4271  0.6465
   60MOL    C7311991   7.338   2.918   0.299  0.3733 -0.2599 -0.6203
   60MOL    O7411992   7.224   2.875   0.236 -0.1312 -0.0736  0.0808
   60MOL    C7511993   7.102   2.935   0.264 -0.4210  0.1183  0.1113
   60MOL    H7611994   7.461   3.026   0.156  0.1107  0.7698  0.6605
   60MOL    H7711995   7.321   3.101   0.184  1.3165 -0.6920 -2.3147
   60MOL    H7811996   7.329   2.936   0.406  0.3124  0.0230 -0.6744
   60MOL    H7911997   7.034   2.902   0.185  0.1733 -0.6089 -0.1053
   60MOL    H8011998   7.063   2.905   0.361  2.0404  0.0816  1.1181
   60MOL    H8111999   7.121   3.042   0.255  1.0286 -0.0368  1.1220
   60MOL    C8212000   7.448   2.812   0.269  0.2230 -0.1701 -1.5484
   60MOL    C8312001   7.448   2.683   0.362  0.1753 -0.0574 -0.5664
   60MOL    O8412002   7.329   2.612   0.349  0.0137  0.1668 -0.3826
   60MOL    C8512003   7.227   2.642   0.448  0.0107 -0.2301 -1.3015
   60MOL    H8612004   7.543   2.861   0.287  0.2781 -1.2813  1.5010
   60MOL    H8712005   7.450   2.774   0.167  1.8352 -0.2154 -1.5154
   60MOL    H8812006   7.460   2.724   0.461 -1.6017 -1.5028  0.2956
   60MOL    H8912007   7.136   2.589   0.417  0.5022 -4.2455  3.5897
   60MOL    H9012008   7.240   2.607   0.550  0.7918  0.5120 -1.1439
   60MOL    H9112009   7.214   2.749   0.457  0.6950 -0.1561 -1.2112
   60MOL    C9212010   7.556   2.580   0.319  0.0098  0.1501  0.1166
   60MOL    C9312011   7.574   2.457   0.404  0.1045 -0.3098 -0.0707
   60MOL    O9412012   7.677   2.378   0.347 -0.1363  0.2505  0.6067
   60MOL    C9512013   7.645   2.284   0.246 -0.1550 -0.1435  0.1916
   60MOL    H9612014   7.643   2.646   0.321 -0.2962  0.6647 -2.4128
   60MOL    H9712015   7.550   2.552   0.214  0.8784  1.1325 -0.1963
   60MOL    H9812016   7.482   2.401   0.391  0.2159 -0.2213 -1.3245
   60MOL    H9912017   7.742   2.256   0.205 -0.0007 -0.7921  0.9875
   60MOL   H10012018   7.596   2.202   0.297  1.5401 -0.3239  1.5573
   60MOL   H10112019   7.587   2.325   0.163  0.5064  1.6490  0.5748
   60MOL   C10212020   7.616   2.497   0.554  0.3767 -0.9889 -1.1384
   60MOL   C10312021   7.636   2.384   0.659 -0.8671 -0.5118  0.3415
   60MOL   O10412022   7.706   2.448   0.771  0.3163  0.3105  0.8713
   60MOL   C10512023   0.030   2.401   0.799  0.2564  0.1913  0.6618
   60MOL   H10612024   7.547   2.570   0.597  2.2771  0.9366 -1.2804
   60MOL   H10712025   7.708   2.554   0.546  0.0067 -0.5403 -2.3333
   60MOL   H10812026   7.699   2.306   0.617  0.3606  1.1185 -0.9060
   60MOL   H10912027   0.080   2.371   0.707  0.9479 -1.3385  1.5191
   60MOL   H11012028   0.085   2.487   0.839  1.3070 -0.8698  1.5436
   60MOL   H11112029   0.025   2.317   0.868 -1.3138  1.3531  1.9994
   60MOL   C11212030   7.502   2.334   0.717 -0.0524  0.2558 -0.5657
   60MOL   C11312031   7.513   2.217   0.824  0.3252  0.4038 -0.1898
   60MOL   O11412032   7.416   2.235   0.927 -0.8004 -0.4374 -0.1542
   60MOL   C11512033   7.462   2.316   1.030 -0.5815  0.1039  0.1769
   60MOL   H11612034   7.425   2.312   0.644 -2.8079  0.7905  2.0699
   60MOL   H11712035   7.458   2.415   0.774  0.8102  0.4771 -0.2055
   60MOL   H11812036   7.611   2.210   0.872 -0.3066 -0.0666  1.0331
   60MOL   H11912037   7.497   2.411   0.988 -0.6778  0.5227  1.0360
   60MOL   H12012038   7.373   2.353   1.081  0.1829  1.6446  0.4185
   60MOL   H12112039   7.533   2.273   1.100  0.7336  0.9065 -0.6390
   60MOL   C12212040   7.477   2.083   0.759 -0.4478 -0.8002 -0.3219
   60MOL   C12312041   7.503   1.960   0.846  0.5438 -0.5461  0.5501
   60MOL   O12412042   7.400   1.859   0.844 -0.1395 -0.2610  0.0059
   60MOL   C12512043   7.312   1.870   0.959 -0.3483 -0.2898  0.7651
   60MOL   H12612044   7.517   2.068   0.659  0.9751 -1.3506  0.3150
   60MOL   H12712045   7.370   2.074   0.744 -0.5104  1.3563 -1.3505
   60MOL   H12812046   7.512   1.992   0.950 -2.4754  0.0988  0.6501
   60MOL   H12912047   7.229   1.809   0.924  0.2812 -2.0226  2.1939
   60MOL   H13012048   7.360   1.838   1.052 -0.0297 -0.8751  0.4078
   60MOL   H13112049   7.258   1.963   0.971 -1.6188 -1.0201  0.8069
   60MOL   C13212050   7.619   1.875   0.791 -0.0866  0.2370 -0.3275
   60MOL   C13312051   7.760   1.940   0.804 -0.3975 -0.0367  0.3355
   60MOL   O13412052   7.779   2.056   0.717  0.0205 -0.0996 -0.4422
   60MOL   C13512053   7.776   2.026   0.577 -0.0038 -0.0325 -0.1199
   60MOL   H13612054   7.590   1.853   0.688 -0.1615  1.2827 -0.5355
   60MOL   H13712055   7.627   1.779   0.842  1.0999  1.1975  1.3482
   60MOL   H13812056   0.018   1.861   0.772 -2.2489 -2.1402  1.3784
   60MOL   H13912057   7.795   1.924   0.544 -2.1151  0.2254 -2.2426
   60MOL   H14012058   7.680   2.057   0.536  0.2637  1.1743  0.1563
   60MOL   H14112059   0.029   2.099   0.527 -0.2264 -0.8694 -1.6510
   60MOL   C14212060   7.791   1.972   0.956 -0.0625  0.2937  1.1051
   60MOL   C14312061   0.130   1.994   0.975 -0.0351  0.8601  0.1135
   60MOL   O14412062   0.136   2.132   1.022 -0.3880 -0.3982 -0.5803
   60MOL   C14512063   0.258   2.182   0.973 -0.7552 -0.3442  0.4528
   60MOL   H14612064   7.751   1.890   1.015  1.9380 -0.4691  1.4382
   60MOL   H14712065   7.741   2.064   0.989 -0.2128  0.2803  0.9150
   60MOL   H14812066   0.165   1.988   0.872 -0.6524 -1.6168  0.0221
   60MOL   H14912067   0.269   2.168   0.865 -1.5126 -1.8764  0.5659
   60MOL   H15012068   0.272   2.290   0.982  1.1688 -0.7394  2.4151
   60MOL   H15112069   0.341   2.129   1.019 -0.2012  0.6379  0.6123
   60MOL   C15212070   0.198   1.907   1.082  0.2279  0.2266 -0.5238
   60MOL   C15312071   0.268   1.775   1.028 -0.3353 -0.3166 -0.2615
   60MOL   O15412072   0.382   1.814   0.950 -0.8558  0.0979 -0.1979
   60MOL   C15512073   0.423   1.714   0.863  0.0797  0.0391 -0.3085
   60MOL   H15612074   0.123   1.874   1.155  1.3963 -3.5078 -0.9158
   60MOL   H15712075   0.267   1.955   1.151  1.6504  0.0117 -1.7803
   60MOL   H15812076   0.199   1.723   0.962  0.1940  1.0906 -1.9551
   60MOL   H15912077   0.517   1.756   0.828 -0.2005 -0.6801 -1.9759
   60MOL   H16012078   0.439   1.620   0.917 -0.4004  2.2976  4.0340
   60MOL   H16112079   0.350   1.702   0.782 -0.5372  3.5752 -0.3496
   60MOL   C16212080   0.315   1.687   1.148  0.1423 -0.4720 -0.1852
   60MOL   C16312081   0.201   1.615   1.225  0.3596 -0.0096  0.1887
   60MOL   O16412082   0.175   1.490   1.162  0.3870  0.6514 -0.2142
   60MOL   C16512083   0.041   1.464   1.117 -0.3268 -0.9079  0.5019
   60MOL   H16612084   0.365   1.747   1.225 -1.2856 -0.9840  1.1587
   60MOL   H16712085   0.393   1.617   1.118  1.1938  0.0008  1.3715
   60MOL   H16812086   0.113   1.679   1.227 -0.4551 -1.0675 -1.7142
   60MOL   H16912087   7.800   1.448   1.211 -2.8031  2.4031 -0.1762
   60MOL   H17012088   0.003   1.549   1.059  1.7446  0.5950  1.2901
   60MOL   H17112089   0.027   1.379   1.050  2.2957 -1.1699  0.2296
   60MOL   C17212090   0.247   1.584   1.372  0.3170  0.4232 -0.8780
   60MOL   C17312091   0.266   1.690   1.480 -0.0197  0.6033  0.2949
   60MOL   O17412092   0.152   1.768   1.511 -0.7378 -1.0593  0.1324
   60MOL   C17512093   0.033   1.691   1.532  0.5682 -0.1263 -0.8392
   60MOL   H17612094   0.340   1.529   1.358  0.5553  0.4952  0.4010
   60MOL   H17712095   0.184   1.501   1.403 -1.0518  0.3147 -3.7370
   60MOL   H17812096   0.344   1.757   1.445  0.1478  1.2021  1.8020
   60MOL   H17912097   0.044   1.619   1.613  1.1567  0.6668 -0.1948
   60MOL   H18012098   7.770   1.767   1.558 -0.8274 -1.6075 -0.4058
   60MOL   H18112099   7.808   1.641   1.443  0.0387 -1.0848 -0.0953
   60MOL   C18212100   0.335   1.637   1.613 -0.2466  0.0201  0.0087
   60MOL   C18312101   0.385   1.740   1.720  0.7860 -0.1228  0.1771
   60MOL   O18412102   0.419   1.674   1.843  0.4096  0.3129 -0.3358
   60MOL   C18512103   0.397   1.733   1.965 -0.1549 -0.2630 -0.0239
   60MOL   H18612104   0.403   1.554   1.593  0.5377  1.1311 -2.1696
   60MOL   H18712105   0.259   1.579   1.665  0.0590 -1.4100 -1.0897
   60MOL   H18812106   0.289   1.792   1.731  1.1124  0.6023 -0.3801
   60MOL   H18912107   0.426   1.838   1.964  0.1437 -0.3548 -1.1597
   60MOL   H19012108   0.294   1.721   2.001 -0.4673 -1.7028 -1.3488
   60MOL   H19112109   0.467   1.682   2.031  0.1171 -2.9698 -2.3446
   60MOL   C19212110   0.507   1.816   1.669  0.4327 -0.4193 -0.2364
   60MOL   C19312111   0.620   1.724   1.624 -0.1822  0.6723  1.0358
   60MOL   O19412112   0.729   1.813   1.590  0.5326  0.7662  0.1799
   60MOL   C19512113   0.842   1.741   1.548  0.5102 -0.1661  0.3650
   60MOL   H19612114   0.552   1.881   1.744 -0.4492  3.9053 -3.2258
   60MOL   H19712115   0.469   1.887   1.594 -0.3302 -1.1351 -0.5334
   60MOL   H19812116   0.588   1.666   1.537  0.2367  0.4432  1.0342
   60MOL   H19912117   0.917   1.811   1.511 -0.1082  0.2186 -0.1877
   60MOL   H20012118   0.885   1.685   1.631 -2.0855 -3.4250 -0.4003
   60MOL   H20112119   0.820   1.671   1.468  0.6057  2.8367 -2.4129
   60MOL   H20212120   0.652   1.661   1.707 -1.2912  1.2532  1.9141
   61MOL     C112121   5.594   1.425   1.158 -0.0523  0.1095  0.7758
   61MOL     C212122   5.707   1.531   1.175 -0.3569 -0.7613  0.3369
   61MOL     O312123   5.695   1.607   1.303  1.0277 -0.2613  0.1472
   61MOL     C412124   5.596   1.701   1.302 -0.2582  0.5004  0.0674
   61MOL     H512125   5.612   1.353   1.077  0.1302  1.3660 -0.3271
   61MOL     H612126   5.600   1.370   1.251 -2.4828 -1.9510 -0.2435
   61MOL     H712127   5.697   1.593   1.086  2.5880 -0.1734  0.3667
   61MOL     H812128   5.580   1.749   1.398  1.9276  0.3938  0.5056
   61MOL     H912129   5.619   1.781   1.231 -0.4036  0.4485 -0.0389
   61MOL    H1012130   5.501   1.668   1.261  0.3559 -2.5241  0.9843
   61MOL    H1112131   5.493   1.465   1.162  0.3796  1.4705 -0.9788
   61MOL    C1212132   5.844   1.466   1.179 -0.9759 -0.2060 -0.9407
   61MOL    C1312133   5.963   1.560   1.211  0.1996 -0.4011  0.4065
   61MOL    O1412134   6.004   1.536   1.350 -0.0221 -0.2679 -0.4909
   61MOL    C1512135   6.052   1.652   1.412  0.5580 -0.4494 -0.4329
   61MOL    H1612136   5.863   1.440   1.075 -0.0039 -0.0070 -0.8213
   61MOL    H1712137   5.830   1.381   1.245 -0.5736  0.2343 -0.2752
   61MOL    H1812138   5.946   1.666   1.192  1.6440 -0.2657 -0.2220
   61MOL    H1912139   5.978   1.731   1.428  0.6894 -0.5536  0.7557
   61MOL    H2012140   6.060   1.626   1.518 -0.8195 -0.8854 -0.4268
   61MOL    H2112141   6.145   1.689   1.369  1.8260 -1.2230  1.5552
   61MOL    C2212142   6.091   1.537   1.129 -0.6286  0.0295  0.6308
   61MOL    C2312143   6.177   1.411   1.147  0.3236 -0.4281  0.0328
   61MOL    O2412144   6.079   1.311   1.109 -0.1897 -0.2876  0.7150
   61MOL    C2512145   6.069   1.191   1.183 -0.9895  0.2050 -0.6692
   61MOL    H2612146   6.155   1.620   1.160 -0.0585 -0.7614  1.6174
   61MOL    H2712147   6.088   1.554   1.021 -0.1605 -1.1102  0.4277
   61MOL    H2812148   6.207   1.394   1.250  1.7865  0.0683 -0.3048
   61MOL    H2912149   6.162   1.135   1.188 -0.7506  0.7683  2.4004
   61MOL    H3012150   6.026   1.201   1.283 -1.2748 -0.5217 -0.7127
   61MOL    H3112151   5.996   1.125   1.136  1.0337 -1.9730 -0.8547
   61MOL    C3212152   6.303   1.391   1.054  0.1246  0.0934  0.4798
   61MOL    C3312153   6.430   1.489   1.067  0.2528  0.6880 -0.5965
   61MOL    O3412154   6.397   1.627   1.023 -0.4739  0.4563  0.3886
   61MOL    C3512155   6.413   1.652   0.885  0.2658  0.1823  0.9341
   61MOL    H3612156   6.257   1.373   0.957 -3.8759 -0.9968  2.4560
   61MOL    H3712157   6.352   1.299   1.085 -0.7744 -0.5792 -0.0826
   61MOL    H3812158   6.515   1.465   1.004 -0.5420 -0.0516 -1.4100
   61MOL    H3912159   6.515   1.640   0.850  0.8968  0.5247  2.5772
   61MOL    H4012160   6.362   1.582   0.819  0.5350 -0.3720  1.3034
   61MOL    H4112161   6.379   1.752   0.860  0.2494 -0.7125 -2.9400
   61MOL    C4212162   6.473   1.509   1.210  0.0150 -0.0261  0.0149
   61MOL    C4312163   6.611   1.574   1.227  0.0076  0.3229 -0.2097
   61MOL    O4412164   6.618   1.581   1.368 -0.0321  0.5884  0.0107
   61MOL    C4512165   6.578   1.700   1.424  0.2076  0.4083  0.4756
   61MOL    H4612166   6.475   1.410   1.256  3.7249 -0.1642 -0.2428
   61MOL    H4712167   6.387   1.559   1.255 -0.9189  0.9802 -2.7851
   61MOL    H4812168   6.614   1.668   1.174  1.1586  0.1356 -0.4949
   61MOL    H4912169   6.480   1.743   1.406  0.0639 -0.0633  0.1245
   61MOL    H5012170   6.587   1.685   1.532 -1.7009  0.7481  0.6882
   61MOL    H5112171   6.660   1.768   1.399  0.8027  0.4144  2.3933
   61MOL    C5212172   6.730   1.486   1.171  0.7793  0.1824 -0.5410
   61MOL    C5312173   6.806   1.548   1.057  0.7553  0.3137 -0.1878
   61MOL    O5412174   6.891   1.642   1.112 -0.8172  0.2707  0.2164
   61MOL    C5512175   6.917   1.761   1.033  0.4694  0.0854 -0.3652
   61MOL    H5612176   6.703   1.385   1.139 -1.5153  0.2488  1.0673
   61MOL    H5712177   6.800   1.471   1.252 -1.4478  2.6895  1.9863
   61MOL    H5812178   6.733   1.600   0.996  2.1292  0.8188 -1.4280
   61MOL    H5912179   6.822   1.805   1.002 -0.1189 -0.9049 -0.0010
   61MOL    H6012180   6.978   1.834   1.085 -1.1835  1.7077 -0.6821
   61MOL    H6112181   6.968   1.741   0.938 -1.6005  2.0204 -1.9412
   61MOL    C6212182   6.891   1.444   0.969  0.4369  0.1424  0.5381
   61MOL    C6312183   6.804   1.354   0.871 -0.8217 -0.4963 -0.5504
   61MOL    O6412184   6.752   1.450   0.777  0.2179 -0.5090 -0.3813
   61MOL    C6512185   6.656   1.403   0.688 -0.4541 -0.0017 -0.0293
   61MOL    H6612186   6.951   1.381   1.035  0.6092 -0.4717 -0.1885
   61MOL    H6712187   6.953   1.511   0.909 -2.6506  1.2582 -1.5571
   61MOL    H6812188   6.721   1.316   0.930 -0.9347  0.0793 -0.3286
   61MOL    H6912189   6.591   1.321   0.718  0.5603 -0.3059  1.3893
   61MOL    H7012190   6.586   1.485   0.667 -0.0106  0.6022  0.8234
   61MOL    H7112191   6.703   1.367   0.597 -0.2163 -0.6733  0.3564
   61MOL    C7212192   6.892   1.241   0.806 -1.1783  0.5000  0.1836
   61MOL    C7312193   6.957   1.130   0.898  0.1410  0.2437  0.1680
   61MOL    O7412194   6.847   1.047   0.933 -0.2815 -0.0473  0.8936
   61MOL    C7512195   6.811   1.048   1.067  0.0354  0.0515 -0.0355
   61MOL    H7612196   6.981   1.274   0.754  1.0931 -3.3099  1.4761
   61MOL    H7712197   6.847   1.184   0.724  0.0720 -1.7704  1.0278
   61MOL    H7812198   7.005   1.179   0.983  0.7569  1.7702 -1.0302
   61MOL    H7912199   6.826   1.147   1.111 -0.5613 -0.4389  1.3033
   61MOL    H8012200   6.709   1.017   1.087  0.3748 -1.8686 -1.1175
   61MOL    H8112201   6.870   0.981   1.130 -0.9925  1.5149  2.5682
   61MOL    C8212202   7.070   1.047   0.828 -0.4526 -0.3177 -0.3300
   61MOL    C8312203   7.213   1.123   0.812 -0.0252 -0.6205 -0.4325
   61MOL    O8412204   7.275   1.138   0.945 -0.8383 -0.1793 -0.1179
   61MOL    C8512205   7.309   1.267   0.986  0.3644  0.3016  0.5002
   61MOL    H8612206   7.039   1.000   0.735 -0.8241  0.3561 -0.5553
   61MOL    H8712207   7.099   0.969   0.898  0.5893 -2.0935 -2.6757
   61MOL    H8812208   7.203   1.222   0.769  0.2144  0.3333  1.6669
   61MOL    H8912209   7.391   1.308   0.927  0.7710  0.6963  1.3450
   61MOL    H9012210   7.222   1.333   0.984 -0.4839 -0.8069  0.2694
   61MOL    H9112211   7.357   1.264   1.083  0.7198 -0.6542  0.3028
   61MOL    C9212212   7.313   1.042   0.730 -0.1048 -0.1957  0.4071
   61MOL    C9312213   7.438   1.113   0.673  0.5153 -0.3115 -0.4849
   61MOL    O9412214   7.512   1.023   0.592 -0.0152 -0.2030 -0.4193
   61MOL    C9512215   7.602   0.937   0.660  0.1199  0.5763 -0.0006
   61MOL    H9612216   7.255   1.016   0.642 -0.6689  0.6813  0.5083
   61MOL    H9712217   7.335   0.948   0.782 -0.7469 -0.8885 -0.5596
   61MOL    H9812218   7.497   1.139   0.762  0.1598 -1.6272  0.1479
   61MOL    H9912219   7.681   0.994   0.709  0.0054  1.8031 -1.2217
   61MOL   H10012220   7.550   0.874   0.732 -1.0403  1.3975 -0.1091
   61MOL   H10112221   7.650   0.872   0.587 -0.1182 -2.5878  2.5325
   61MOL   C10212222   7.410   1.240   0.584  0.8231  0.1114 -0.2387
   61MOL   C10312223   7.518   1.349   0.601 -0.2432  0.3904  0.4654
   61MOL   O10412224   7.514   1.414   0.731 -0.4707  0.7361  0.4791
   61MOL   C10512225   7.453   1.544   0.729 -0.0264  0.3270  0.5794
   61MOL   H10612226   7.319   1.294   0.608  0.1781 -1.8015  1.7772
   61MOL   H10712227   7.410   1.204   0.481 -1.5250  2.3674 -1.0754
   61MOL   H10812228   7.488   1.419   0.522 -3.2748 -0.7146  0.5712
   61MOL   H10912229   7.373   1.551   0.655 -0.7752  1.1373  1.4561
   61MOL   H11012230   7.418   1.560   0.830 -1.5309  1.4549 -0.1040
   61MOL   H11112231   7.520   1.624   0.697  0.9413 -0.7500 -0.1379
   61MOL   C11212232   7.657   1.301   0.559  0.4070 -0.4020  0.2855
   61MOL   C11312233   7.747   1.419   0.507  0.2805 -0.2989  0.2201
   61MOL   O11412234   0.068   1.384   0.552  0.3231  0.3175 -0.3843
   61MOL   C11512235   0.113   1.458   0.667 -0.0387  0.0790  0.7327
   61MOL   H11612236   7.646   1.224   0.483 -2.4595 -0.9118  1.1558
   61MOL   H11712237   7.707   1.259   0.646 -0.1297 -0.6412  0.4813
   61MOL   H11812238   7.713   1.516   0.546  2.1585  0.7922 -0.7939
   61MOL   H11912239   0.133   1.564   0.649  1.8359  0.1501  2.9971
   61MOL   H12012240   0.043   1.474   0.749 -1.2157  0.8789 -0.4124
   61MOL   H12112241   0.208   1.411   0.694  0.4209 -0.2747 -1.3623
   61MOL   C12212242   7.746   1.425   0.350 -0.1810  0.2810  0.0598
   61MOL   C12312243   0.043   1.522   0.298 -0.1534  0.2082  0.2567
   61MOL   O12412244   0.049   1.505   0.156  0.6697 -0.2016  0.3022
   61MOL   C12512245   0.126   1.403   0.112  0.2016 -0.0734 -0.4577
   61MOL   H12612246   7.649   1.465   0.322  0.3506  2.2331  0.9392
   61MOL   H12712247   7.752   1.326   0.306 -1.0682  0.1096  0.3288
   61MOL   H12812248   0.137   1.495   0.346  0.1787  0.1227 -0.4232
   61MOL   H12912249   0.233   1.414   0.131  0.3261 -0.7213 -0.7780
   61MOL   H13012250   0.090   1.308   0.151  0.3690 -0.4376 -1.1671
   61MOL   H13112251   0.108   1.400   0.004  2.7697  0.0054 -0.9372
   61MOL   C13212252   0.027   1.672   0.336 -0.2478  0.2521  0.3971
   61MOL   C13312253   0.153   1.752   0.325 -0.8477  0.1145  0.0051
   61MOL   O13412254   0.126   1.895   0.312 -0.2499  0.7342  0.3505
   61MOL   C13512255   0.100   1.920   0.176 -0.2300  1.0120 -0.0663
   61MOL   H13612256   7.796   1.680   0.436 -0.3033 -1.6873  0.5490
   61MOL   H13712257   7.763   1.702   0.263  1.8938  3.5886 -0.5460
   61MOL   H13812258   0.198   1.723   0.231  2.3552  2.1950  0.8156
   61MOL   H13912259   0.185   1.964   0.123  0.7255 -1.9716 -1.1100
   61MOL   H14012260   0.055   1.838   0.119 -1.0908 -0.0865  2.1313
   61MOL   H14112261   0.029   2.002   0.183  0.0973  1.0826  2.8734
   61MOL   C14212262   0.248   1.726   0.443  0.1199  0.0656  0.4949
   61MOL   C14312263   0.383   1.792   0.421  0.5625  0.0351  0.0709
   61MOL   O14412264   0.428   1.827   0.550  0.0674 -0.1970 -0.4443
   61MOL   C14512265   0.391   1.955   0.591  0.2581 -0.3371 -0.5277
   61MOL   H14612266   0.266   1.619   0.451  3.5268  0.5578  0.2737
   61MOL   H14712267   0.195   1.753   0.534 -0.9847 -0.8232  0.1287
   61MOL   H14812268   0.366   1.881   0.360  0.8097  0.6670  0.9235
   61MOL   H14912269   0.423   1.978   0.693 -0.1984  2.7684 -1.0482
   61MOL   H15012270   0.418   2.039   0.527  3.8391 -0.2445  0.9756
   61MOL   H15112271   0.282   1.956   0.593  0.2596  0.3147 -0.8158
   61MOL   C15212272   0.489   1.705   0.354 -0.3174  0.2367 -0.2369
   61MOL   C15312273   0.467   1.634   0.206  0.7144  0.9171 -0.0885
   61MOL   O15412274   0.493   1.722   0.104  0.2075 -0.1088 -0.2074
   61MOL   C15512275   0.399   1.728   7.810 -0.0320  0.5937 -0.1605
   61MOL   H15612276   0.482   1.626   0.428  0.0650  0.8943  0.5031
   61MOL   H15712277   0.578   1.767   0.361 -1.8227  2.2310  1.9447
   61MOL   H15812278   0.372   1.582   0.195  1.1456  0.5890 -2.6253
   61MOL   H15912279   0.441   1.802   7.742 -3.4839  1.9072 -1.0058
   61MOL   H16012280   0.396   1.630   7.763 -1.7708  0.3985  0.3053
   61MOL   H16112281   0.304   1.766   0.038 -0.2120 -0.1781  0.1731
   61MOL   C16212282   0.572   1.524   0.184  0.1729 -0.7262  0.2031
   61MOL   C16312283   0.571   1.406   0.285  0.2307  0.5603 -0.1977
   61MOL   O16412284   0.435   1.375   0.311 -0.3814  0.1055 -0.6568
   61MOL   C16512285   0.406   1.337   0.443  0.1273  0.6701 -0.0508
   61MOL   H16612286   0.669   1.569   0.203  0.3608 -0.4793 -1.2409
   61MOL   H16712287   0.554   1.476   0.087 -0.8073 -2.6901  1.3317
   61MOL   H16812288   0.619   1.424   0.381  0.9713 -0.6168 -0.3353
   61MOL   H16912289   0.478   1.261   0.474  1.1033  0.5004 -2.6537
   61MOL   H17012290   0.426   1.420   0.512  4.2370  1.4723 -2.0672
   61MOL   H17112291   0.303   1.306   0.460  0.5929 -0.4843  0.6823
   61MOL   C17212292   0.634   1.272   0.222  0.5715  0.1957  0.5358
   61MOL   C17312293   0.780   1.241   0.250 -0.1089  0.3088  0.3867
   61MOL   O17412294   0.830   1.275   0.379  0.2234  0.3183  0.3334
   61MOL   C17512295   0.903   1.395   0.385 -0.9466  0.1198 -0.4923
   61MOL   H17612296   0.625   1.266   0.113  2.4578  0.6369  0.3340
   61MOL   H17712297   0.566   1.199   0.265  0.7789 -0.3526 -0.0560
   61MOL   H17812298   0.838   1.290   0.171 -0.9348 -0.6106 -0.8158
   61MOL   H17912299   0.850   1.485   0.352  0.4748  1.5935  1.1073
   61MOL   H18012300   0.939   1.424   0.483  0.9900  0.6079 -1.3292
   61MOL   H18112301   0.977   1.397   0.305 -1.1214  0.9567 -0.6453
   61MOL   C18212302   0.803   1.091   0.227  0.1233 -0.1009  0.0625
   61MOL   C18312303   0.936   1.061   0.161 -0.2141  0.0808  0.6124
   61MOL   O18412304   0.936   1.103   0.025  0.5396 -0.2390 -0.1427
   61MOL   C18512305   0.900   1.005   7.743 -0.3259  0.8642  0.7268
   61MOL   H18612306   0.717   1.047   0.177 -1.7646  0.1529  2.9952
   61MOL   H18712307   0.796   1.036   0.321 -1.0074  1.7975  1.1267
   61MOL   H18812308   0.937   0.952   0.168 -0.4843 -0.0090 -0.6062
   61MOL   H18912309   0.791   0.994   7.750 -0.5090  1.3603 -1.1684
   61MOL   H19012310   0.916   1.050   7.645  0.6936 -2.9469 -0.9454
   61MOL   H19112311   0.949   0.910   7.763 -1.1815  0.2212 -0.1573
   61MOL   C19212312   1.069   1.114   0.217 -0.5232  0.1436 -0.6207
   61MOL   C19312313   1.190   1.038   0.158  0.3800  0.0402  0.2294
   61MOL   O19412314   1.314   1.099   0.201  0.5986  0.7287 -0.0871
   61MOL   C19512315   1.349   1.070   0.341 -0.3298 -0.1592  0.0451
   61MOL   H19612316   1.071   1.105   0.325  2.1715 -1.8085 -0.7748
   61MOL   H19712317   1.073   1.222   0.202 -0.1685  0.0787 -0.9997
   61MOL   H19812318   1.190   1.039   0.049  1.5293 -1.8785  0.1882
   61MOL   H19912319   1.384   0.967   0.339  1.6179  0.4857  0.0145
   61MOL   H20012320   1.441   1.120   0.371 -0.5052 -0.4958  1.1608
   61MOL   H20112321   1.273   1.091   0.416 -0.5064  0.6131 -0.3473
   61MOL   H20212322   1.184   0.934   0.190 -2.6025 -0.4953 -1.8335
   62MOL     C112323   0.297   5.554   4.816  0.1286  0.6265  0.4151
   62MOL     C212324   0.336   5.595   4.960 -0.1786 -0.2958 -0.2403
   62MOL     O312325   0.389   5.732   4.966  0.3209 -0.6175  0.0121
   62MOL     C412326   0.521   5.736   4.921 -0.6721  0.4415  0.2436
   62MOL     H512327   0.253   5.454   4.819 -0.3263  0.7194 -2.3292
   62MOL     H612328   0.222   5.618   4.769 -1.5531 -2.6705 -1.5187
   62MOL     H712329   0.410   5.523   4.995 -0.1105  0.1569  0.5513
   62MOL     H812330   0.565   5.836   4.918 -1.0200  0.6009  0.3932
   62MOL     H912331   0.583   5.682   4.992  0.8283 -1.4318 -2.3931
   62MOL    H1012332   0.529   5.687   4.824  0.5566  0.6028  0.2507
   62MOL    H1112333   0.373   5.544   4.739 -0.4033 -1.7256  0.1793
   62MOL    C1212334   0.205   5.599   5.041 -0.5997 -0.0383  0.1864
   62MOL    C1312335   0.213   5.586   5.187 -0.2042  0.1666 -0.1769
   62MOL    O1412336   0.279   5.463   5.214  0.1255 -0.2603 -0.7316
   62MOL    C1512337   0.225   5.389   5.330 -0.3658 -0.2613 -0.3789
   62MOL    H1612338   0.126   5.543   4.991 -0.5725  0.0092  0.0923
   62MOL    H1712339   0.160   5.697   5.022  0.1376 -0.0681 -1.7311
   62MOL    H1812340   0.113   5.584   5.231 -0.6380  1.7347 -1.0654
   62MOL    H1912341   0.282   5.296   5.330  1.8276  1.0633 -1.8615
   62MOL    H2012342   0.243   5.431   5.429  0.7744  0.6969 -0.9869
   62MOL    H2112343   0.119   5.371   5.311 -0.8304 -0.2473  2.0411
   62MOL    C2212344   0.293   5.696   5.253 -0.3130 -0.5550  0.4531
   62MOL    C2312345   0.238   5.843   5.245 -0.2454 -0.3424  0.1319
   62MOL    O2412346   0.104   5.828   5.287  0.2596 -0.5918 -0.4933
   62MOL    C2512347   0.004   5.872   5.198  0.6873 -0.2193  0.6886
   62MOL    H2612348   0.397   5.708   5.220 -1.2113  1.2111 -1.8423
   62MOL    H2712349   0.295   5.674   5.359 -2.9090  0.4444  0.7358
   62MOL    H2812350   0.255   5.881   5.143 -1.0490  1.4542  0.6405
   62MOL    H2912351   7.720   5.850   5.247 -0.0850  1.6195  0.0566
   62MOL    H3012352   0.021   5.979   5.200  1.0393 -0.2960  2.2127
   62MOL    H3112353   0.016   5.820   5.103  0.4786  2.4702 -0.8524
   62MOL    C3212354   0.311   5.938   5.346  0.1237 -0.1369 -0.1168
   62MOL    C3312355   0.452   5.993   5.329 -0.3608 -0.1031 -0.4425
   62MOL    O3412356   0.466   6.095   5.231 -0.0380  0.1517 -0.5560
   62MOL    C3512357   0.520   6.065   5.113  0.8046 -0.0226  0.4620
   62MOL    H3612358   0.299   5.893   5.445 -0.5511  1.6146  0.6074
   62MOL    H3712359   0.248   6.026   5.359 -0.6355 -0.5291 -1.0419
   62MOL    H3812360   0.517   5.909   5.307  1.5915  1.4845 -0.8687
   62MOL    H3912361   0.624   6.038   5.134  0.5694 -0.1715  1.4488
   62MOL    H4012362   0.470   5.985   5.058 -0.1460 -0.5872  2.1052
   62MOL    H4112363   0.534   6.156   5.055 -0.7327 -2.3142 -3.7138
   62MOL    C4212364   0.504   6.052   5.456 -0.3718  0.0318  0.2284
   62MOL    C4312365   0.402   6.139   5.535 -0.0700  0.6761  0.2408
   62MOL    O4412366   0.330   6.059   5.632 -0.3192 -0.1071  0.8208
   62MOL    C4512367   0.196   6.103   5.654  1.1108  0.7783  0.0338
   62MOL    H4612368   0.604   6.092   5.437  0.3536 -1.7180  0.2896
   62MOL    H4712369   0.530   5.968   5.520  1.3604 -0.8500 -1.5799
   62MOL    H4812370   0.331   6.184   5.466 -0.5209 -0.7798 -0.2535
   62MOL    H4912371   0.132   6.086   5.567 -2.4033 -0.4476  2.7496
   62MOL    H5012372   0.166   6.045   5.741  0.3778  1.1104  0.0079
   62MOL    H5112373   0.190   6.210   5.677 -0.7066  0.8867 -0.8508
   62MOL    C5212374   0.467   6.258   5.626  0.0080 -0.1364 -0.0649
   62MOL    C5312375   0.490   6.392   5.542 -0.5104  0.4110  0.2205
   62MOL    O5412376   0.360   6.424   5.492 -0.3375 -0.2188 -0.0025
   62MOL    C5512377   0.368   6.441   5.351 -0.4365 -0.0919 -0.3507
   62MOL    H5612378   0.560   6.237   5.678  0.2153 -0.8388 -0.7014
   62MOL    H5712379   0.395   6.276   5.706  1.3463 -0.1411  1.1590
   62MOL    H5812380   0.573   6.379   5.472  1.7127  0.0804  2.8083
   62MOL    H5912381   0.270   6.466   5.308  1.0910  0.6754 -3.5250
   62MOL    H6012382   0.435   6.522   5.323 -0.6405  0.1313 -0.2057
   62MOL    H6112383   0.390   6.353   5.291  0.3570  2.0416 -3.2941
   62MOL    C6212384   0.532   6.510   5.632 -0.2713 -0.0102  0.2289
   62MOL    C6312385   0.681   6.547   5.635  0.5813 -0.2716 -0.3100
   62MOL    O6412386   0.710   6.665   5.701 -0.3074  0.2338 -0.3054
   62MOL    C6512387   0.717   6.794   5.624 -1.2549 -0.0714 -0.2673
   62MOL    H6612388   0.500   6.493   5.735  0.9315  0.1439  0.6343
   62MOL    H6712389   0.470   6.598   5.614  0.0159  0.0117 -0.7130
   62MOL    H6812390   0.709   6.570   5.533 -0.5206  1.0523 -0.3237
   62MOL    H6912391   0.621   6.816   5.578 -0.2034  0.6340 -2.1793
   62MOL    H7012392   0.738   6.881   5.686 -0.8873 -0.9715  0.8924
   62MOL    H7112393   0.790   6.790   5.544  0.0667 -0.2632  0.9339
   62MOL    C7212394   0.764   6.430   5.693 -0.8138 -0.2322 -0.0850
   62MOL    C7312395   0.921   6.460   5.694 -0.5411 -0.4819 -0.2088
   62MOL    O7412396   0.970   6.349   5.769 -0.3932 -0.2897 -0.4297
   62MOL    C7512397   1.104   6.365   5.820  0.1114  0.7566  0.4791
   62MOL    H7612398   0.756   6.341   5.631  0.6398 -1.6059  1.6100
   62MOL    H7712399   0.734   6.412   5.797  0.2443  0.2012  0.3028
   62MOL    H7812400   0.945   6.541   5.762  3.1656 -1.0499 -0.7750
   62MOL    H7912401   1.113   6.285   5.894 -3.0876  0.9361  1.0989
   62MOL    H8012402   1.185   6.340   5.751 -1.2506 -2.3827 -0.0515
   62MOL    H8112403   1.118   6.463   5.866 -3.6539  2.7674 -2.3906
   62MOL    C8212404   0.991   6.484   5.556 -0.1249 -0.3444 -0.6091
   62MOL    C8312405   0.971   6.378   5.447  0.1846 -0.3287 -0.7386
   62MOL    O8412406   0.858   6.417   5.377 -0.5397  0.0620 -0.2886
   62MOL    C8512407   0.790   6.308   5.310 -0.3977 -0.0971  0.1157
   62MOL    H8612408   1.098   6.485   5.579 -0.0427  0.8821 -0.9946
   62MOL    H8712409   0.951   6.572   5.506  1.9428  0.6943 -0.5122
   62MOL    H8812410   0.966   6.276   5.486 -2.8284  0.6448  1.6075
   62MOL    H8912411   0.855   6.250   5.244 -1.1367  0.4164 -1.0724
   62MOL    H9012412   0.752   6.238   5.384 -1.6636 -0.9875 -1.3440
   62MOL    H9112413   0.705   6.351   5.258 -0.1254  0.5705  0.2182
   62MOL    C9212414   1.081   6.373   5.341 -0.3070 -0.2375 -0.0921
   62MOL    C9312415   1.203   6.294   5.394 -0.2312 -0.7758 -0.0666
   62MOL    O9412416   1.176   6.151   5.370  0.4868 -0.0142 -0.1776
   62MOL    C9512417   1.226   6.075   5.478  0.0003  0.7119 -1.0336
   62MOL    H9612418   1.107   6.478   5.334  1.1707 -0.4187  2.1325
   62MOL    H9712419   1.053   6.325   5.247  0.4949 -1.2675  0.1730
   62MOL    H9812420   1.209   6.307   5.502  0.4592 -1.5996 -0.0031
   62MOL    H9912421   1.162   6.080   5.567  0.2836  0.3021 -0.8067
   62MOL   H10012422   1.247   5.970   5.458 -1.0602  0.1831  0.5094
   62MOL   H10112423   1.322   6.117   5.508 -0.4691  1.3763 -0.4321
   62MOL   C10212424   1.342   6.333   5.336 -0.0199  0.6640  0.0596
   62MOL   C10312425   1.424   6.427   5.434  0.2897 -0.3017  0.0041
   62MOL   O10412426   1.563   6.424   5.397  0.1860  0.1496  0.2160
   62MOL   C10512427   1.608   6.481   5.269  0.0124 -0.2162  0.4114
   62MOL   H10612428   1.323   6.376   5.237  0.0433 -2.5110 -1.4064
   62MOL   H10712429   1.391   6.238   5.314 -0.5755  0.3147  0.3427
   62MOL   H10812430   1.418   6.394   5.538 -2.6765 -0.0652 -0.0622
   62MOL   H10912431   1.617   6.588   5.285 -0.7345 -0.2055  0.7556
   62MOL   H11012432   1.704   6.448   5.228 -0.4864 -0.6781 -0.3952
   62MOL   H11112433   1.535   6.458   5.192  1.3462 -0.9961 -0.6654
   62MOL   C11212434   1.369   6.576   5.443  0.0686 -0.0262 -0.4107
   62MOL   C11312435   1.447   6.664   5.549 -0.1876 -0.3402 -0.7216
   62MOL   O11412436   1.403   6.803   5.537 -0.3083 -0.0230 -1.3799
   62MOL   C11512437   1.484   6.877   5.445  0.0426  0.1557  0.5197
   62MOL   H11612438   1.261   6.585   5.442  0.1534  1.3835  1.3244
   62MOL   H11712439   1.380   6.625   5.346  0.0943  2.2063  0.6834
   62MOL   H11812440   1.553   6.659   5.525 -0.1287 -0.4548 -0.4375
   62MOL   H11912441   1.482   6.812   5.357 -1.3029  0.9450 -0.0373
   62MOL   H12012442   1.433   6.972   5.434  0.9184  0.4764 -0.7688
   62MOL   H12112443   1.583   6.902   5.483 -0.3643  1.7092  0.5909
   62MOL   C12212444   1.428   6.607   5.695 -0.5041 -0.6143 -0.3625
   62MOL   C12312445   1.482   6.694   5.811 -0.4577  0.7875  0.1570
   62MOL   O12412446   1.453   6.627   5.927 -0.1256  0.1402 -0.5722
   62MOL   C12512447   1.339   6.685   5.986  0.5909 -0.1212  0.4288
   62MOL   H12612448   1.479   6.511   5.699 -0.9911 -0.7762  3.1755
   62MOL   H12712449   1.326   6.588   5.727 -0.2517 -0.3166  0.6467
   62MOL   H12812450   1.429   6.789   5.807  0.1190  1.0951 -0.3676
   62MOL   H12912451   1.248   6.686   5.925  0.9484  1.2050 -0.1026
   62MOL   H13012452   1.312   6.628   6.075  3.0349  0.6463  1.7029
   62MOL   H13112453   1.348   6.787   6.021  3.4818 -0.3926  0.5625
   62MOL   C13212454   1.636   6.725   5.804 -0.1242  0.5203  0.1680
   62MOL   C13312455   1.681   6.818   5.923 -0.5936  0.2127 -0.7215
   62MOL   O13412456   1.830   6.820   5.941  0.0636  0.4608  0.5233
   62MOL   C13512457   1.883   6.701   6.004  0.1240  0.3848 -0.1388
   62MOL   H13612458   1.678   6.767   5.712  0.4535  0.5749  0.4558
   62MOL   H13712459   1.681   6.628   5.823  0.3488 -0.3716 -4.8465
   62MOL   H13812460   1.627   6.792   6.014  2.1502  0.9710  1.1659
   62MOL   H13912461   1.988   6.694   5.975 -0.3284 -1.6286 -1.4078
   62MOL   H14012462   1.887   6.715   6.112 -1.3510 -1.3079  0.1625
   62MOL   H14112463   1.843   6.603   5.981  1.8049  0.7034 -5.0021
   62MOL   C14212464   1.635   6.970   5.898  0.7722  0.5833 -0.1001
   62MOL   C14312465   1.647   7.077   6.016  0.0644 -0.0610  0.3409
   62MOL   O14412466   1.775   7.134   5.999  0.0699 -0.0916  0.0424
   62MOL   C14512467   1.871   7.105   6.105 -0.1913 -0.4182  0.5186
   62MOL   H14612468   1.531   6.969   5.864  0.0319  0.7682  2.1231
   62MOL   H14712469   1.687   7.006   5.809  1.7153  1.0917  0.6513
   62MOL   H14812470   1.654   7.023   6.110 -2.0076  1.9655  1.7392
   62MOL   H14912471   1.961   7.158   6.073  1.7827 -2.8401  1.8924
   62MOL   H15012472   1.825   7.145   6.195 -0.0580 -1.4520  1.0578
   62MOL   H15112473   1.895   6.999   6.113 -2.7696 -1.2398 -1.8122
   62MOL   C15212474   1.541   7.194   6.017  0.1440  0.2407  0.1565
   62MOL   C15312475   1.408   7.144   6.060 -0.1074  0.4718 -0.5588
   62MOL   O15412476   1.417   7.088   6.187 -0.1649 -0.1798 -0.2649
   62MOL   C15512477   1.455   7.159   6.307 -0.8961  0.2598 -0.0944
   62MOL   H15612478   1.534   7.245   5.921 -0.1910 -0.8523 -0.4164
   62MOL   H15712479   1.564   7.277   6.083  0.0288 -0.1053  0.6276
   62MOL   H15812480   1.370   7.072   5.987  1.0178 -0.6678 -0.0447
   62MOL   H15912481   1.398   7.250   6.325 -3.8367 -1.4061 -0.5767
   62MOL   H16012482   1.411   7.097   6.385  0.6822 -0.8895 -0.0977
   62MOL   H16112483   1.560   7.186   6.314  0.0248 -3.4766  1.7141
   62MOL   C16212484   1.297   7.240   6.042  0.5994 -0.0711 -0.1256
   62MOL   C16312485   1.157   7.175   6.053  0.0080 -0.6985  0.5264
   62MOL   O16412486   1.069   7.278   6.099  0.3062  0.2380 -0.0106
   62MOL   C16512487   1.056   7.281   6.243 -0.2799 -0.8026 -0.1135
   62MOL   H16612488   1.308   7.293   5.948  1.9718  0.9563  0.6101
   62MOL   H16712489   1.303   7.312   6.123 -0.5683 -0.8108  0.6477
   62MOL   H16812490   1.159   7.104   6.135 -1.6126  0.2602  1.4196
   62MOL   H16912491   1.149   7.268   6.299 -1.1639  0.6086  1.7133
   62MOL   H17012492   1.010   7.373   6.277 -1.2047 -1.0367 -0.6982
   62MOL   H17112493   0.997   7.199   6.285  1.4228 -2.7262 -1.3252
   62MOL   C17212494   1.101   7.106   5.924  0.3553 -0.0539  0.6952
   62MOL   C17312495   0.946   7.088   5.931  0.0953 -0.0175 -0.2182
   62MOL   O17412496   0.898   7.055   5.803  0.1146 -0.2826 -0.5624
   62MOL   C17512497   0.862   7.172   5.728 -0.9452  0.0148 -0.0385
   62MOL   H17612498   1.145   7.011   5.894  1.7296  0.5702  0.7036
   62MOL   H17712499   1.130   7.167   5.839 -1.9876 -0.5507 -0.5042
   62MOL   H17812500   0.900   7.181   5.964 -2.3587 -0.9833 -0.8584
   62MOL   H17912501   0.766   7.215   5.757 -0.5625  1.1808 -0.4733
   62MOL   H18012502   0.935   7.252   5.720 -1.0254  0.1157  0.2290
   62MOL   H18112503   0.849   7.152   5.621  2.5656  0.4364 -0.6045
   62MOL   C18212504   0.909   6.972   6.027 -0.4037 -0.4605 -0.2002
   62MOL   C18312505   0.753   6.981   6.061  0.3392 -0.3845  0.2498
   62MOL   O18412506   0.710   6.851   6.123  0.0876  0.0089 -0.0786
   62MOL   C18512507   0.626   6.773   6.035 -0.2150  0.3582 -0.7906
   62MOL   H18612508   0.973   6.988   6.114 -1.8353 -1.8765  1.1240
   62MOL   H18712509   0.947   6.881   5.980 -1.3659 -1.7438  1.4869
   62MOL   H18812510   0.701   7.004   5.968 -0.7613  2.7781  1.5647
   62MOL   H18912511   0.588   6.686   6.088 -0.4256  0.7308 -0.3187
   62MOL   H19012512   0.543   6.830   5.993 -0.1238  0.2794 -1.0792
   62MOL   H19112513   0.684   6.743   5.948 -1.1181  0.2475 -1.3521
   62MOL   C19212514   0.711   7.085   6.166  1.2327  0.5674 -0.0019
   62MOL   C19312515   0.737   7.057   6.312 -0.3507  0.0946  0.3513
   62MOL   O19412516   0.706   7.165   6.393  0.2025  0.2194  0.6890
   62MOL   C19512517   0.716   7.143   6.530  1.0066  0.6522  0.0308
   62MOL   H19612518   0.605   7.086   6.142  1.8001  3.0350 -2.7464
   62MOL   H19712519   0.762   7.176   6.132  1.7103  1.2484  2.4813
   62MOL   H19812520   0.842   7.030   6.323  0.6456  1.7485 -4.0595
   62MOL   H19912521   0.645   7.063   6.555  0.2761  1.1706 -0.3551
   62MOL   H20012522   0.816   7.109   6.556  1.1964  0.6287 -0.7200
   62MOL   H20112523   0.681   7.228   6.588  0.3717 -0.0539  0.7063
   62MOL   H20212524   0.673   6.972   6.335 -1.2895  0.3284 -1.3774
   63MOL     C112525   4.603   4.617   7.804  0.0780  0.4837 -0.6300
   63MOL     C212526   4.644   4.508   7.707 -0.3379 -0.1096  0.1747
   63MOL     O312527   4.755   4.438   7.760  0.4513  0.2518 -0.2334
   63MOL     C412528   4.886   4.489   7.734 -0.2399 -0.1553  0.6606
   63MOL     H512529   4.673   4.700   7.808  1.1035 -0.2804 -2.1171
   63MOL     H612530   4.504   4.654   7.777 -0.9487 -0.6184  1.5238
   63MOL     H712531   4.661   4.548   7.607 -2.9509  1.9189  0.4793
   63MOL     H812532   4.890   4.592   7.768 -2.2380  0.6907 -1.5420
   63MOL     H912533   4.950   4.425   7.795  2.5412  1.4670 -0.4259
   63MOL    H1012534   4.915   4.470   7.630 -2.1959  0.1226  0.0531
   63MOL    H1112535   4.590   4.574   0.092 -3.2312  0.6600 -0.9524
   63MOL    C1212536   4.529   4.408   7.686  0.1349 -0.8246 -0.6221
   63MOL    C1312537   4.558   4.271   7.618  0.9700  0.3717  0.5688
   63MOL    O1412538   4.436   4.195   7.619  0.3456  0.1480 -0.0339
   63MOL    C1512539   4.409   4.116   7.733  0.7595 -0.2435  0.2385
   63MOL    H1612540   4.449   4.454   7.628  0.5829 -1.6611 -1.9189
   63MOL    H1712541   4.496   4.382   7.786  0.1589  0.8159 -0.1679
   63MOL    H1812542   4.626   4.211   7.678  0.0836 -0.1038  1.1106
   63MOL    H1912543   4.312   4.067   7.723  2.6643 -3.7688 -2.0828
   63MOL    H2012544   4.485   4.039   7.740  0.7933 -0.2416 -0.1027
   63MOL    H2112545   4.410   4.179   0.011 -2.7577 -0.7688  0.7383
   63MOL    C2212546   4.611   4.275   7.476  0.0378  0.0604  0.1066
   63MOL    C2312547   4.636   4.135   7.412 -0.6145  0.1394  0.5612
   63MOL    O2412548   4.663   4.166   7.277 -0.0546  0.4583 -0.0366
   63MOL    C2512549   4.550   4.170   7.192 -0.7204 -0.3785 -0.8307
   63MOL    H2612550   4.707   4.327   7.474 -0.6031  1.2300 -1.5674
   63MOL    H2712551   4.538   4.330   7.416  2.0375  0.7282 -1.7833
   63MOL    H2812552   4.553   4.065   7.425 -0.9406  0.5595  0.7263
   63MOL    H2912553   4.576   4.185   7.087 -3.0890  3.0326 -1.0125
   63MOL    H3012554   4.484   4.084   7.202  0.6008 -1.2233  0.6332
   63MOL    H3112555   4.493   4.260   7.216  0.4266  0.6397 -1.8971
   63MOL    C3212556   4.764   4.060   7.477  1.1419 -0.9798 -0.5331
   63MOL    C3312557   4.778   3.915   7.425  0.2878  0.1653  0.3981
   63MOL    O3412558   4.900   3.861   7.465 -0.2383  0.2606 -0.3806
   63MOL    C3512559   5.010   3.865   7.371 -0.0744 -0.1621  0.0169
   63MOL    H3612560   4.750   4.056   7.585 -0.3755  1.1725 -0.5988
   63MOL    H3712561   4.850   4.121   7.451 -0.9186  2.2271 -0.0727
   63MOL    H3812562   4.782   3.923   7.316  0.8867 -0.3168  0.3808
   63MOL    H3912563   4.979   3.899   7.272 -2.3340 -0.2616  0.6641
   63MOL    H4012564   5.083   3.936   7.411 -1.1098  2.2158 -2.1869
   63MOL    H4112565   5.061   3.769   7.370  1.3594  0.6072 -2.2416
   63MOL    C4212566   4.676   3.818   7.478  0.3074  0.1249 -0.1663
   63MOL    C4312567   4.650   3.689   7.402 -0.6389 -0.0238 -0.4986
   63MOL    O4412568   4.576   3.728   7.285 -0.4274  0.8124  0.3451
   63MOL    C4512569   4.446   3.669   7.274 -0.8569 -1.1590  0.2476
   63MOL    H4612570   4.580   3.865   7.499  1.7134  1.7154  2.9375
   63MOL    H4712571   4.712   3.789   7.576 -3.0029 -0.2745  0.9944
   63MOL    H4812572   4.586   3.627   7.464  1.6847 -2.2739 -0.2523
   63MOL    H4912573   4.471   3.563   7.261  0.7075 -0.8545  0.6418
   63MOL    H5012574   4.388   3.704   7.359  2.1167  0.8210  1.5466
   63MOL    H5112575   4.403   3.699   7.178  1.2064 -0.3545 -0.4625
   63MOL    C5212576   4.774   3.612   7.353 -0.2268 -0.1598 -0.1874
   63MOL    C5312577   4.748   3.480   7.284 -0.3115  0.4071 -0.6933
   63MOL    O5412578   4.877   3.442   7.231  0.1855 -0.3370 -0.1934
   63MOL    C5512579   4.869   3.345   7.126  0.3395 -0.1033  0.2438
   63MOL    H5612580   4.823   3.583   7.446 -1.4325 -0.6140  0.3187
   63MOL    H5712581   4.837   3.676   7.291 -0.0095 -0.0791  0.1131
   63MOL    H5812582   4.687   3.509   7.198 -1.3471  2.5658  0.7139
   63MOL    H5912583   4.815   3.403   7.051 -1.8216  0.3118  2.0596
   63MOL    H6012584   4.966   3.325   7.081 -0.1568 -0.5439 -0.6491
   63MOL    H6112585   4.827   3.248   7.154  1.1701 -0.3312  0.7163
   63MOL    C6212586   4.681   3.367   7.367  0.8018  0.4924  0.2737
   63MOL    C6312587   4.745   3.337   7.506  0.1963 -0.1681 -0.0595
   63MOL    O6412588   4.690   3.420   7.605 -0.1105 -0.3591  0.2607
   63MOL    C6512589   4.770   3.439   7.724  0.0135 -0.5325 -0.1449
   63MOL    H6612590   4.660   3.283   7.301 -4.5760  2.4763 -0.7832
   63MOL    H6712591   4.580   3.397   7.391  1.0352  1.1649  0.4278
   63MOL    H6812592   4.851   3.361   7.499 -0.3469  2.2238 -0.4032
   63MOL    H6912593   4.777   3.350   7.786 -0.7519 -0.1569  0.4898
   63MOL    H7012594   4.865   3.477   7.688 -0.6978  1.2038 -0.2458
   63MOL    H7112595   4.725   3.516   7.787  0.4042 -1.2281  0.9800
   63MOL    C7212596   4.728   3.184   7.543  0.1338  0.5517 -0.3591
   63MOL    C7312597   4.574   3.143   7.548 -1.0697 -0.7207 -0.7021
   63MOL    O7412598   4.540   3.112   7.413  0.1202  0.4085  0.5587
   63MOL    C7512599   4.403   3.107   7.392 -0.4170  0.4333 -0.5569
   63MOL    H7612600   4.770   3.166   7.642 -1.1148  1.9512  0.4413
   63MOL    H7712601   4.785   3.115   7.480  1.7940  1.5302  0.0578
   63MOL    H7812602   4.520   3.234   7.572  1.2026  0.6600 -0.6686
   63MOL    H7912603   4.373   3.078   7.291  0.8802  1.9311 -1.3948
   63MOL    H8012604   4.369   3.033   7.465  0.4801 -0.3434 -0.9030
   63MOL    H8112605   4.364   3.205   7.416 -0.5350  0.3783 -0.5251
   63MOL    C8212606   4.547   3.028   7.649  0.1176 -0.8234  0.2236
   63MOL    C8312607   4.470   3.052   7.781 -0.2186 -0.0336  0.1766
   63MOL    O8412608   4.334   3.084   7.749  0.0799  0.1447  0.3549
   63MOL    C8512609   4.267   3.160   0.039 -0.3843  0.5659  0.0659
   63MOL    H8612610   4.645   2.988   7.675  0.6499 -0.2868 -0.9292
   63MOL    H8712611   4.505   2.942   7.597  0.2637 -1.3707  1.0099
   63MOL    H8812612   4.521   3.137   0.014 -1.3656  1.5274 -1.4660
   63MOL    H8912613   4.261   3.120   0.140 -2.0550  0.9210  0.1184
   63MOL    H9012614   4.307   3.261   0.045 -0.5304  0.7604 -1.7762
   63MOL    H9112615   4.177   3.196   7.800 -0.7886  0.4914  0.7456
   63MOL    C9212616   4.470   2.919   0.047  1.0060 -0.2969  0.1994
   63MOL    C9312617   4.598   2.903   0.144  0.1791 -0.2909 -0.2163
   63MOL    O9412618   4.581   3.016   0.233  0.1293 -0.3897 -0.5313
   63MOL    C9512619   4.701   3.050   0.302  0.6842 -0.3809  0.2063
   63MOL    H9612620   4.454   2.838   7.786  0.3495  0.6305 -0.7296
   63MOL    H9712621   4.380   2.927   0.108  0.1393  2.0903 -1.3001
   63MOL    H9812622   4.683   2.922   0.078 -1.3373  0.2805 -2.0603
   63MOL    H9912623   4.788   3.066   0.238  0.3515 -1.8816 -0.6291
   63MOL   H10012624   4.683   3.130   0.374  0.2865 -0.4659  0.2011
   63MOL   H10112625   4.735   2.971   0.368  0.3466 -0.0253  0.8037
   63MOL   C10212626   4.591   2.759   0.219 -0.2809 -0.0388 -0.0971
   63MOL   C10312627   4.654   2.649   0.124 -0.0657  0.2612 -0.2417
   63MOL   O10412628   4.782   2.676   0.081 -0.1839 -0.0020  0.6741
   63MOL   C10512629   4.820   2.646   7.760  0.3521 -0.6825  0.3726
   63MOL   H10612630   4.495   2.726   0.257 -0.7556  0.9637 -0.4243
   63MOL   H10712631   4.661   2.777   0.300  0.4272  1.2914 -0.9799
   63MOL   H10812632   4.589   2.644   0.037  2.4102  0.3799 -2.1640
   63MOL   H10912633   4.921   2.681   7.739 -0.1156  0.1940 -0.4420
   63MOL   H11012634   4.835   2.537   7.760 -1.5839 -0.9571  0.0052
   63MOL   H11112635   4.755   2.684   7.682  1.8910  0.7881 -0.2200
   63MOL   C11212636   4.668   2.513   0.194  0.1989  0.2985  0.2218
   63MOL   C11312637   4.542   2.440   0.247  0.8777 -0.4910 -0.3891
   63MOL   O11412638   4.441   2.423   0.142  0.2634  0.2278  0.0211
   63MOL   C11512639   4.338   2.519   0.139 -0.5678  0.2191 -0.2347
   63MOL   H11612640   4.748   2.514   0.267  0.0016 -0.3053  0.4511
   63MOL   H11712641   4.701   2.439   0.121  0.6502  0.0724  0.6484
   63MOL   H11812642   4.514   2.503   0.332  0.9483  2.1713 -2.2713
   63MOL   H11912643   4.280   2.530   0.230 -0.1120 -0.8838  0.1876
   63MOL   H12012644   4.366   2.619   0.105  2.7227 -0.7416 -0.5611
   63MOL   H12112645   4.268   2.482   0.064 -0.8214 -2.0841  1.1225
   63MOL   C12212646   4.564   2.300   0.301  0.1549 -0.5289 -0.1352
   63MOL   C12312647   4.434   2.227   0.345  0.1487 -0.6303  0.4465
   63MOL   O12412648   4.471   2.093   0.385 -0.3115 -0.3080 -0.0574
   63MOL   C12512649   4.447   1.993   0.295  0.1793 -0.3606 -0.3640
   63MOL   H12612650   4.637   2.304   0.382  0.2943  1.3524 -0.3247
   63MOL   H12712651   4.604   2.241   0.218 -2.2662 -0.5452 -1.3247
   63MOL   H12812652   4.368   2.227   0.259  0.1941  0.5647  0.3971
   63MOL   H12912653   4.356   2.004   0.237  1.5849 -0.6613 -2.6915
   63MOL   H13012654   4.529   1.983   0.224  0.0084 -1.7006 -0.3775
   63MOL   H13112655   4.445   1.905   0.360 -2.2609  1.2615  1.8832
   63MOL   C13212656   4.356   2.298   0.460  0.4898 -0.4744 -0.4179
   63MOL   C13312657   4.224   2.224   0.488 -0.0614  0.2165  0.1055
   63MOL   O13412658   4.178   2.274   0.618 -0.2813  0.4611 -0.2303
   63MOL   C13512659   4.216   2.174   0.717 -0.4131  0.0458 -0.3093
   63MOL   H13612660   4.327   2.397   0.423  2.7842  0.3321 -0.1958
   63MOL   H13712661   4.419   2.315   0.547 -0.0899 -0.2895 -0.0302
   63MOL   H13812662   4.241   2.116   0.493 -1.3268 -0.0355 -0.8031
   63MOL   H13912663   4.162   2.080   0.713 -1.5305  0.7620 -3.1268
   63MOL   H14012664   4.322   2.153   0.705 -0.6432 -1.7459  0.7409
   63MOL   H14112665   4.205   2.210   0.819  0.6163 -1.4436  0.3422
   63MOL   C14212666   4.111   2.250   0.389 -0.0222  0.3423  0.2876
   63MOL   C14312667   4.012   2.132   0.379  0.5200  0.8636  0.0092
   63MOL   O14412668   3.944   2.102   0.500 -0.6181 -0.3068  0.0414
   63MOL   C14512669   3.839   2.198   0.544  0.1979  0.0967 -0.0488
   63MOL   H14612670   4.157   2.266   0.292 -0.5388  0.0369 -0.0091
   63MOL   H14712671   4.062   2.345   0.410 -0.5567 -0.0805  0.9940
   63MOL   H14812672   4.068   2.040   0.368  1.1036  1.1600  0.5250
   63MOL   H14912673   3.745   2.191   0.489  0.1333 -0.1242  0.0887
   63MOL   H15012674   3.811   2.166   0.644 -1.7395 -1.0805 -0.9307
   63MOL   H15112675   3.883   2.297   0.553  0.5053 -0.1151  0.8551
   63MOL   C15212676   3.908   2.155   0.266  0.0180 -0.4008 -0.1590
   63MOL   C15312677   3.962   2.124   0.124  0.1624  0.2286  0.3088
   63MOL   O15412678   3.968   1.980   0.100  0.3825 -0.1942 -0.4717
   63MOL   C15512679   4.103   1.941   0.089  0.2484 -0.2963 -0.0274
   63MOL   H15612680   3.880   2.260   0.274  2.5165  0.2123  0.8564
   63MOL   H15712681   3.817   2.099   0.287 -0.2907  0.7567  1.7244
   63MOL   H15812682   4.060   2.170   0.113  0.6309 -0.9955 -0.8545
   63MOL   H15912683   4.153   1.987   0.004  2.1028  3.1019  2.7433
   63MOL   H16012684   4.164   1.960   0.178  0.7635  1.1411 -0.6703
   63MOL   H16112685   4.100   1.832   0.081 -1.5276 -0.3940  1.5708
   63MOL   C16212686   3.852   2.182   0.027 -0.5855 -0.4192  0.2970
   63MOL   C16312687   3.895   2.207   7.692 -0.3008  0.2634  0.0214
   63MOL   O16412688   3.816   2.121   7.610 -0.4353 -0.9166  0.3678
   63MOL   C16512689   3.825   1.984   7.637  0.0178 -0.2511 -0.1505
   63MOL   H16612690   3.833   2.285   0.058  1.1491  0.1248 -0.3786
   63MOL   H16712691   3.759   2.130   0.046 -2.0381  1.9319 -0.0803
   63MOL   H16812692   4.000   2.187   7.671 -0.1529 -0.0179  1.0013
   63MOL   H16912693   3.763   1.944   7.717 -0.6789  0.2897 -0.4091
   63MOL   H17012694   3.808   1.937   7.540  1.8480  1.6669 -1.4630
   63MOL   H17112695   3.925   1.949   7.663 -0.8023 -1.9734  0.7736
   63MOL   C17212696   3.861   2.349   7.640 -0.1425  0.0396  0.3629
   63MOL   C17312697   3.921   2.378   7.499  0.3395 -0.2511  0.0833
   63MOL   O17412698   3.819   2.440   7.424 -0.1373  0.4297 -0.3663
   63MOL   C17512699   3.735   2.352   7.355 -0.0887  0.0322  0.1707
   63MOL   H17612700   3.900   2.431   7.701  1.5938 -0.3524 -0.1980
   63MOL   H17712701   3.753   2.359   7.631  0.1549  1.6394 -2.0118
   63MOL   H17812702   3.952   2.283   7.454  0.6686  0.4901 -1.2989
   63MOL   H17912703   3.784   2.292   7.277 -1.8811  0.1760 -1.0999
   63MOL   H18012704   3.674   2.284   7.414 -0.7603 -0.6431 -1.2702
   63MOL   H18112705   3.665   2.410   7.295  1.4562  0.6438 -1.0970
   63MOL   C18212706   4.042   2.479   7.487  0.8359 -0.5523 -0.9212
   63MOL   C18312707   4.163   2.445   7.579  0.2713  0.4242  0.4051
   63MOL   O18412708   4.227   2.330   7.518  0.5277 -0.5385 -0.5471
   63MOL   C18512709   4.265   2.224   7.602 -0.4802  0.4038  0.2390
   63MOL   H18612710   4.008   2.582   7.499  1.0043 -0.3991 -1.7835
   63MOL   H18712711   4.084   2.482   7.387  3.6905  1.0356  0.2796
   63MOL   H18812712   4.134   2.430   7.683 -1.7628 -1.7694 -0.4310
   63MOL   H18912713   4.211   2.133   7.574 -1.6410  1.9192 -2.7153
   63MOL   H19012714   4.373   2.212   7.600 -0.7159 -2.1494  1.3687
   63MOL   H19112715   4.238   2.254   7.703 -0.6328  3.9597 -0.7988
   63MOL   C19212716   4.273   2.556   7.576 -0.3444 -0.3519 -0.0195
   63MOL   C19312717   4.238   2.704   7.613  0.4679  0.5735  0.8563
   63MOL   O19412718   4.191   2.704   7.749  0.1887  0.1119 -0.1932
   63MOL   C19512719   4.108   2.812   7.792  0.1652 -0.1641 -0.2001
   63MOL   H19612720   4.323   2.542   7.480 -0.9423  0.3303 -0.4432
   63MOL   H19712721   4.338   2.533   7.660 -0.2164  0.9818  0.2589
   63MOL   H19812722   4.163   2.753   7.551  0.9641  0.8453  0.4766
   63MOL   H19912723   4.157   2.899   7.749 -0.1719  0.9778  1.6744
   63MOL   H20012724   4.016   2.791   7.736  0.8059 -1.2785 -0.8593
   63MOL   H20112725   4.095   2.815   0.089 -1.4066  0.1079 -0.3882
   63MOL   H20212726   4.325   2.769   7.606 -0.9234  2.4221  0.3745
   64MOL     C112727   1.211   1.877   4.694 -0.2640  0.6963 -0.8975
   64MOL     C212728   1.294   1.758   4.744 -0.5491 -0.2502  0.8024
   64MOL     O312729   1.211   1.654   4.799  0.4928  0.1168 -0.1762
   64MOL     C412730   1.187   1.668   4.937 -0.2770  0.2168 -0.3627
   64MOL     H512731   1.168   1.847   4.599  0.3663 -0.8491 -0.7169
   64MOL     H612732   1.133   1.911   4.763  0.5531 -1.2677  1.0486
   64MOL     H712733   1.353   1.797   4.826 -3.5917  0.7645  2.5814
   64MOL     H812734   1.185   1.774   4.966 -1.8638 -0.1877  1.0672
   64MOL     H912735   1.092   1.625   4.969  0.3496 -1.3339 -0.5590
   64MOL    H1012736   1.274   1.633   4.993 -0.5776  1.2126  0.7519
   64MOL    H1112737   1.274   1.965   4.678  2.6728 -0.7209  2.1988
   64MOL    C1212738   1.400   1.701   4.640 -0.1569  0.0870 -0.3409
   64MOL    C1312739   1.529   1.785   4.604 -0.7444  0.8465  0.0187
   64MOL    O1412740   1.502   1.905   4.528 -0.1458  0.3132  0.4093
   64MOL    C1512741   1.473   1.896   4.392  0.2848 -0.3840  0.1982
   64MOL    H1612742   1.363   1.670   4.542 -1.2340  0.9722 -0.2316
   64MOL    H1712743   1.438   1.609   4.684 -1.4845 -0.1627  0.2937
   64MOL    H1812744   1.588   1.721   4.537  0.4945  1.0084  0.9497
   64MOL    H1912745   1.378   1.849   4.368  0.2462  0.7431 -1.9943
   64MOL    H2012746   1.450   1.999   4.365  1.2510  0.2298  1.6651
   64MOL    H2112747   1.549   1.850   4.328  1.9509 -0.1174  1.9336
   64MOL    C2212748   1.630   1.823   4.716 -0.2794  0.0241 -0.0616
   64MOL    C2312749   1.696   1.704   4.787  0.5399  0.1332 -0.7620
   64MOL    O2412750   1.784   1.655   4.684  0.3458  0.1642  0.2043
   64MOL    C2512751   1.821   1.519   4.703 -0.1998  0.3071 -0.3499
   64MOL    H2612752   1.568   1.875   4.790 -0.4199  0.1787 -0.2855
   64MOL    H2712753   1.709   1.878   4.666  0.1720 -1.2696 -0.7986
   64MOL    H2812754   1.623   1.626   4.809 -0.0013  0.8794  0.0962
   64MOL    H2912755   1.858   1.503   4.805 -0.0731  0.7266 -0.3292
   64MOL    H3012756   1.738   1.453   4.680  0.7367 -1.2661  0.6542
   64MOL    H3112757   1.912   1.500   4.646  1.1254  2.0978  1.0995
   64MOL    C3212758   1.778   1.757   4.908  0.5934  0.4450  0.6111
   64MOL    C3312759   1.682   1.765   5.027  0.3503 -0.4380  0.3621
   64MOL    O3412760   1.676   1.635   5.080  0.3785  0.2879  0.0147
   64MOL    C3512761   1.581   1.615   5.179 -0.0360 -0.5510 -0.7035
   64MOL    H3612762   1.808   1.858   4.879 -0.6276  0.3553 -1.0458
   64MOL    H3712763   1.861   1.690   4.931 -0.2806  0.0135  2.6156
   64MOL    H3812764   1.582   1.795   4.996 -0.4676 -2.5426  0.9436
   64MOL    H3912765   1.484   1.656   5.151 -0.1131 -1.3327 -1.5794
   64MOL    H4012766   1.578   1.507   5.194  0.8358 -0.3641  0.9200
   64MOL    H4112767   1.619   1.663   5.269 -1.1297  0.0878 -0.5802
   64MOL    C4212768   1.723   1.877   5.138 -0.5590  0.5388  0.3896
   64MOL    C4312769   1.693   2.023   5.088 -0.2079  0.3363  0.0301
   64MOL    O4412770   1.552   2.046   5.070  0.1600 -0.2409 -0.4218
   64MOL    C4512771   1.525   2.152   4.980 -0.5032  0.4638 -0.7228
   64MOL    H4612772   1.827   1.865   5.169 -0.6345 -1.3985 -0.0651
   64MOL    H4712773   1.658   1.864   5.225  1.0963  0.8225  1.6888
   64MOL    H4812774   1.750   2.023   4.995  0.6676  0.7393  0.5582
   64MOL    H4912775   1.562   2.133   4.879 -1.4660  1.0650 -1.1895
   64MOL    H5012776   1.417   2.164   4.978 -0.5905 -0.2516 -0.3372
   64MOL    H5112777   1.571   2.241   5.022  0.9675 -0.5824 -0.0992
   64MOL    C5212778   1.761   2.123   5.186  0.0829  0.5443  0.3036
   64MOL    C5312779   1.703   2.126   5.331  0.0214 -0.6355 -0.1243
   64MOL    O5412780   1.772   2.026   5.409  0.1334 -0.1402 -0.5729
   64MOL    C5512781   1.689   1.963   5.507  0.5102 -0.8035  0.8962
   64MOL    H5612782   1.754   2.217   5.131 -0.9552 -0.4811 -1.3375
   64MOL    H5712783   1.868   2.105   5.177  0.0868  1.0513 -0.6633
   64MOL    H5812784   1.598   2.101   5.338  0.3517 -1.3901  2.7641
   64MOL    H5912785   1.745   1.892   5.567  3.1589 -0.1002 -0.6496
   64MOL    H6012786   1.654   2.046   5.570 -0.3656  1.8650 -2.9126
   64MOL    H6112787   1.606   1.915   5.456 -0.9109  2.3464  0.1281
   64MOL    C6212788   1.732   2.263   5.405 -0.5654  0.0954 -0.7605
   64MOL    C6312789   1.617   2.360   5.376  0.3195  0.3915 -0.1627
   64MOL    O6412790   1.601   2.394   5.240 -0.3579 -0.2849 -0.2645
   64MOL    C6512791   1.694   2.495   5.207  0.1609  0.1082  0.4792
   64MOL    H6612792   1.824   2.302   5.361 -1.1315  1.0444 -1.1044
   64MOL    H6712793   1.744   2.249   5.512 -0.5370  0.3968 -0.7246
   64MOL    H6812794   1.637   2.445   5.441  1.4169  0.9209 -1.1861
   64MOL    H6912795   1.796   2.476   5.241  0.8103  0.2923 -1.3119
   64MOL    H7012796   1.720   2.498   5.101  0.5930 -2.3143  0.4796
   64MOL    H7112797   1.648   2.592   5.224 -1.1989 -0.1737 -1.4065
   64MOL    C7212798   1.472   2.323   5.420 -0.7447 -0.2752  0.8095
   64MOL    C7312799   1.381   2.442   5.469  0.1599  0.6453  0.2883
   64MOL    O7412800   1.436   2.514   5.582 -0.2452 -0.6880 -0.3989
   64MOL    C7512801   1.458   2.424   5.695 -0.5114  0.3245  0.1037
   64MOL    H7612802   1.488   2.248   5.497  0.4654 -0.4290  0.4343
   64MOL    H7712803   1.428   2.267   5.338  1.9750  0.0776 -0.9678
   64MOL    H7812804   1.294   2.392   5.513  1.9461 -4.2588 -1.4372
   64MOL    H7912805   1.543   2.360   5.674  0.0228  1.0998 -0.1192
   64MOL    H8012806   1.478   2.484   5.784  0.3178  1.7852 -1.0435
   64MOL    H8112807   1.371   2.366   5.726  0.3640 -1.0362  0.0924
   64MOL    C8212808   1.336   2.548   5.359  0.7485  0.1252  0.1473
   64MOL    C8312809   1.266   2.477   5.245  0.3471 -0.3221  0.2223
   64MOL    O8412810   1.140   2.442   5.298 -0.2702  0.4917  0.1660
   64MOL    C8512811   1.118   2.301   5.299 -0.1136 -0.5267 -0.0728
   64MOL    H8612812   1.418   2.611   5.326  2.4723 -1.3405  1.5208
   64MOL    H8712813   1.264   2.621   5.396  1.0679  0.9551 -0.8347
   64MOL    H8812814   1.310   2.388   5.200  1.6263  0.2293  0.3643
   64MOL    H8912815   1.190   2.244   5.357  0.4339  0.5623  0.3226
   64MOL    H9012816   1.018   2.269   5.327 -0.5501 -1.7528 -2.8322
   64MOL    H9112817   1.117   2.286   5.191 -0.6771  0.9197 -0.2893
   64MOL    C9212818   1.250   2.569   5.122 -0.6205 -0.3464  0.1143
   64MOL    C9312819   1.184   2.518   4.991 -0.2312 -0.3642  0.5713
   64MOL    O9412820   1.168   2.626   4.897 -0.0440 -0.3393 -0.2235
   64MOL    C9512821   1.045   2.699   4.923  1.0029  0.3720  0.5021
   64MOL    H9612822   1.353   2.589   5.092 -0.6351 -0.6468 -0.1465
   64MOL    H9712823   1.210   2.667   5.147  1.2612  0.6850 -0.8304
   64MOL    H9812824   1.088   2.473   5.017 -0.8105  0.3319 -0.3469
   64MOL    H9912825   1.055   2.793   4.869  0.4180  0.4703  0.5573
   64MOL   H10012826   0.960   2.639   4.891 -0.1592  1.3637  1.6749
   64MOL   H10112827   1.022   2.732   5.025 -3.2729  0.5673 -0.4457
   64MOL   C10212828   1.260   2.408   4.920 -0.2603  0.1022 -0.9616
   64MOL   C10312829   1.213   2.370   4.772 -0.0853  0.7408  0.0208
   64MOL   O10412830   1.280   2.254   4.718  0.0347 -0.0279  0.6390
   64MOL   C10512831   1.411   2.286   4.674 -0.3686 -0.2444  0.4950
   64MOL   H10612832   1.254   2.319   4.983 -0.0838  0.2666 -0.7134
   64MOL   H10712833   1.364   2.440   4.924  0.1545 -1.3967  1.1910
   64MOL   H10812834   1.227   2.457   4.708 -0.7239  0.9944  0.2211
   64MOL   H10912835   1.458   2.187   4.668 -4.5346 -2.3604  0.6113
   64MOL   H11012836   1.413   2.326   4.573 -0.7855 -0.4991  0.3851
   64MOL   H11112837   1.471   2.352   4.738 -0.9623  1.1249 -0.3588
   64MOL   C11212838   1.061   2.324   4.765 -0.2459  0.0999 -0.0833
   64MOL   C11312839   0.987   2.315   4.632 -0.6166  0.4154 -0.0705
   64MOL   O11412840   0.864   2.247   4.650  0.0138 -0.1036  0.5830
   64MOL   C11512841   0.873   2.103   4.605 -0.1334  0.7379 -1.0579
   64MOL   H11612842   1.000   2.393   4.825  2.0103 -0.8554  3.4411
   64MOL   H11712843   1.051   2.229   4.817 -2.7978 -0.5856 -1.7566
   64MOL   H11812844   1.057   2.264   4.565  2.1976  1.8500  1.6735
   64MOL   H11912845   0.889   2.104   4.498  1.1398 -1.4052 -0.9119
   64MOL   H12012846   0.944   2.047   4.665 -0.0008 -0.9286 -2.7368
   64MOL   H12112847   0.780   2.046   4.617  0.5757 -0.3262 -0.5155
   64MOL   C12212848   0.959   2.450   4.570  0.5058 -0.4664 -0.4297
   64MOL   C12312849   0.913   2.439   4.422 -0.5069 -1.0151  1.2099
   64MOL   O12412850   0.786   2.500   4.413 -0.1128 -0.4185  0.1965
   64MOL   C12512851   0.729   2.490   4.288 -0.5766 -0.1676  0.0309
   64MOL   H12612852   1.045   2.514   4.584 -0.0832 -0.0721  1.4713
   64MOL   H12712853   0.873   2.499   4.615 -2.0216 -1.2464 -4.1310
   64MOL   H12812854   0.919   2.335   4.390 -0.0121  0.6385 -4.6351
   64MOL   H12912855   0.622   2.501   4.300 -0.2141  1.3496  2.2198
   64MOL   H13012856   0.769   2.563   4.217 -1.3100  0.2075  0.0045
   64MOL   H13112857   0.764   2.397   4.244  1.0227  0.0320  0.8264
   64MOL   C13212858   1.022   2.509   4.324 -0.2325 -0.3172  0.2478
   64MOL   C13312859   1.163   2.436   4.308 -0.3512  0.2427 -0.7868
   64MOL   O13412860   1.147   2.321   4.225 -0.3024  0.0470 -0.5261
   64MOL   C13512861   1.229   2.215   4.277  0.1113 -0.2446 -0.0158
   64MOL   H13612862   1.048   2.606   4.365 -0.3486 -1.2176  2.6044
   64MOL   H13712863   0.975   2.517   4.227 -0.3602  0.8502  0.3989
   64MOL   H13812864   1.215   2.422   4.402 -1.3047  0.3006 -0.2454
   64MOL   H13912865   1.196   2.123   4.229 -1.8533  1.0409 -1.2105
   64MOL   H14012866   1.333   2.237   4.254  0.4057 -1.8282 -0.2537
   64MOL   H14112867   1.200   2.202   4.382 -0.5060  0.7130 -0.0570
   64MOL   C14212868   1.254   2.523   4.223  0.5197 -0.2201 -0.1043
   64MOL   C14312869   1.336   2.618   4.314 -0.6719 -0.1329  0.9384
   64MOL   O14412870   1.427   2.536   4.386  0.4700 -0.0510 -0.5931
   64MOL   C14512871   1.469   2.593   4.509  0.5069  0.3621  0.6907
   64MOL   H14612872   1.193   2.571   4.146 -0.9156 -0.2682  0.9722
   64MOL   H14712873   1.333   2.474   4.167  2.4803 -0.4779  2.7636
   64MOL   H14812874   1.271   2.674   4.381 -0.2107  0.1469  1.1471
   64MOL   H14912875   1.496   2.698   4.509 -1.7736  0.9860  1.4354
   64MOL   H15012876   1.397   2.575   4.589 -2.3956  0.7021 -1.7378
   64MOL   H15112877   1.562   2.543   4.536 -0.5155 -2.7371 -1.2445
   64MOL   C15212878   1.407   2.731   4.234 -0.1852  0.4616  0.1644
   64MOL   C15312879   1.311   2.822   4.146  0.7292 -0.1335  0.5333
   64MOL   O15412880   1.254   2.921   4.244  0.6945  0.2699  0.7810
   64MOL   C15512881   1.111   2.937   4.230 -0.3781 -0.1842 -0.8153
   64MOL   H15612882   1.477   2.676   4.171  0.6154  2.1900 -0.4707
   64MOL   H15712883   1.467   2.791   4.303  0.3512  1.3284 -1.0404
   64MOL   H15812884   1.233   2.766   4.094  1.6059  0.0274 -0.9819
   64MOL   H15912885   1.050   2.851   4.255 -1.3265  0.2034 -1.7469
   64MOL   H16012886   1.069   3.015   4.293 -0.2012 -0.4395 -0.3815
   64MOL   H16112887   1.086   2.971   4.129 -1.3724  1.9462  0.1258
   64MOL   C16212888   1.392   2.907   4.047  0.6571 -0.3943 -0.0719
   64MOL   C16312889   1.353   2.870   3.902  0.0942 -0.5287 -0.4734
   64MOL   O16412890   1.418   2.963   3.810 -0.0300 -0.1299  0.4803
   64MOL   C16512891   1.369   3.092   3.816 -0.0748 -0.3762  0.4902
   64MOL   H16612892   1.499   2.905   4.067  0.5050 -1.5678  0.6447
   64MOL   H16712893   1.363   3.009   4.072 -0.2505 -0.8173  0.6078
   64MOL   H16812894   1.245   2.877   3.895  0.3282  2.2691 -2.3408
   64MOL   H16912895   1.415   3.159   3.743 -0.6470  0.9141  1.2938
   64MOL   H17012896   1.261   3.100   3.805  0.1735  0.8371 -1.3694
   64MOL   H17112897   1.387   3.133   3.915 -1.2305 -2.0253  1.3941
   64MOL   C17212898   1.401   2.737   3.852  0.0342  0.6810  0.7714
   64MOL   C17312899   1.352   2.700   3.706  0.6901 -0.7675  0.4168
   64MOL   O17412900   1.425   2.594   3.649 -0.3522 -0.1767  0.7210
   64MOL   C17512901   1.548   2.637   3.592  0.2818 -0.0530  0.1648
   64MOL   H17612902   1.363   2.665   3.924  1.3171  0.2805  1.0591
   64MOL   H17712903   1.510   2.737   3.854  0.0641 -1.2334  0.0467
   64MOL   H17812904   1.359   2.786   3.639 -0.9649 -1.2532 -0.3815
   64MOL   H17912905   1.522   2.718   3.524 -2.4287 -0.9024  0.1283
   64MOL   H18012906   1.628   2.661   3.662  0.0837  2.7100 -0.4832
   64MOL   H18112907   1.589   2.562   3.524  0.9157  0.5525 -0.1273
   64MOL   C18212908   1.203   2.655   3.711  0.4313 -0.4442  0.5764
   64MOL   C18312909   1.142   2.633   3.567 -0.2646  0.0370 -0.1964
   64MOL   O18412910   1.028   2.558   3.552  0.0064  0.1971 -0.1044
   64MOL   C18512911   1.036   2.427   3.602 -0.1449  0.3051 -0.4402
   64MOL   H18612912   1.145   2.732   3.761 -2.4779 -2.7047  0.8063
   64MOL   H18712913   1.202   2.560   3.765  1.5769 -0.8057 -0.0287
   64MOL   H18812914   1.221   2.589   3.506 -0.0810  0.7337 -0.4643
   64MOL   H18912915   1.128   2.377   3.573 -0.0642  0.6375 -0.7605
   64MOL   H19012916   1.030   2.433   3.711 -1.6835  4.0816 -0.6601
   64MOL   H19112917   0.954   2.367   3.562  0.5766 -0.6234 -0.5406
   64MOL   C19212918   1.111   2.770   3.503  0.0050  0.2054 -0.8337
   64MOL   C19312919   1.077   2.749   3.354 -0.7763 -0.1189  0.0741
   64MOL   O19412920   1.075   2.872   3.278 -0.3293  0.6938 -0.5194
   64MOL   C19512921   0.960   2.885   3.198  0.2384  0.1351 -0.5169
   64MOL   H19612922   1.194   2.839   3.519 -0.7383  0.9770 -0.2363
   64MOL   H19712923   1.027   2.824   3.548  0.8650  0.9324 -0.0925
   64MOL   H19812924   0.979   2.701   3.347 -1.5780  1.6124 -0.8082
   64MOL   H19912925   0.964   2.818   3.112 -1.6456 -0.0262 -0.5031
   64MOL   H20012926   0.866   2.868   3.251  0.3127  0.5449 -0.2520
   64MOL   H20112927   0.932   2.986   3.165  0.2476  0.9730  1.9391
   64MOL   H20212928   1.150   2.682   3.307 -0.9138 -0.5315  0.4466
   65MOL     C112929   4.334   1.792   7.011 -0.2460  0.0269 -0.1050
   65MOL     C212930   4.302   1.640   7.020  0.3811 -0.7413  0.4216
   65MOL     O312931   4.407   1.563   6.956 -0.6360 -0.4290 -0.4134
   65MOL     C412932   4.405   1.560   6.812 -0.3715 -0.3270 -1.2065
   65MOL     H512933   4.318   1.818   6.906 -1.0974  1.3523  0.3479
   65MOL     H612934   4.269   1.850   7.076 -0.4554 -0.7047  0.3423
   65MOL     H712935   4.210   1.612   6.969  1.6176 -0.0593 -2.2715
   65MOL     H812936   4.306   1.568   6.769  0.8348 -1.8944 -4.4143
   65MOL     H912937   4.471   1.638   6.773 -0.4119 -0.1505 -0.9246
   65MOL    H1012938   4.454   1.470   6.774  0.5812 -1.7665  3.0649
   65MOL    H1112939   4.438   1.816   7.037 -0.6540  0.7490  0.8755
   65MOL    C1212940   4.306   1.579   7.157 -0.2547  0.6093  0.1603
   65MOL    C1312941   4.184   1.604   7.248 -0.1507  0.0299  0.5535
   65MOL    O1412942   4.069   1.587   7.174  0.1106 -0.1150  0.1631
   65MOL    C1512943   3.992   1.705   7.144 -0.3464  0.2002  0.0482
   65MOL    H1612944   4.395   1.606   7.213  2.1150 -1.2152 -2.6184
   65MOL    H1712945   4.320   1.471   7.162 -0.9789  0.4527 -0.8480
   65MOL    H1812946   4.186   1.707   7.282 -1.0872  0.5875 -1.0265
   65MOL    H1912947   3.928   1.683   7.058  1.2309  0.1462 -1.1462
   65MOL    H2012948   3.928   1.737   7.226  1.3521 -0.0160  1.4856
   65MOL    H2112949   4.062   1.780   7.107  0.6566 -0.5539  0.4023
   65MOL    C2212950   4.171   1.507   7.362  0.0839 -0.0521 -0.1950
   65MOL    C2312951   4.280   1.516   7.470  0.3557  0.2763 -0.1132
   65MOL    O2412952   4.316   1.654   7.498  0.1472  0.1038 -0.6990
   65MOL    C2512953   4.215   1.724   7.573 -0.0703 -0.1487  0.1595
   65MOL    H2612954   4.148   1.406   7.327 -1.4963  0.7177 -1.4532
   65MOL    H2712955   4.074   1.532   7.405 -0.4935 -0.8165 -1.0451
   65MOL    H2812956   4.368   1.469   7.425  1.4074  2.1763 -0.0987
   65MOL    H2912957   4.221   1.823   7.529 -1.7212  0.8686  2.1165
   65MOL    H3012958   4.110   1.697   7.560 -0.1632  0.4432 -0.3169
   65MOL    H3112959   4.234   1.736   7.680  0.0505 -0.7651  0.2106
   65MOL    C3212960   4.264   1.435   7.594  0.2731  0.2348 -0.2083
   65MOL    C3312961   4.256   1.289   7.562 -0.6066 -0.9970  0.3847
   65MOL    O3412962   4.382   1.247   7.509  0.1265  0.4669 -0.1012
   65MOL    C3512963   4.368   1.170   7.391  0.2073 -0.3299  0.0961
   65MOL    H3612964   4.171   1.471   7.637 -0.6091 -0.0034 -1.8407
   65MOL    H3712965   4.351   1.452   7.657  0.0639 -1.2405  0.5028
   65MOL    H3812966   4.168   1.277   7.498 -0.1641 -3.3026  0.1684
   65MOL    H3912967   4.334   1.068   7.409  0.2381 -0.7490 -2.0597
   65MOL    H4012968   4.315   1.221   7.311  2.6068  1.4681 -0.3779
   65MOL    H4112969   4.469   1.149   7.355 -0.6803 -1.0555 -2.0579
   65MOL    C4212970   4.233   1.214   7.693 -0.2465 -0.1199 -0.0710
   65MOL    C4312971   4.227   1.056   7.681  0.8123  0.1373 -0.3018
   65MOL    O4412972   4.222   0.999   7.806 -0.1469 -0.3197 -0.5942
   65MOL    C4512973   4.346   0.975   0.049 -0.2553  0.4844 -0.0922
   65MOL    H4612974   4.151   1.255   7.752 -0.7384  0.4180 -1.1247
   65MOL    H4712975   4.315   1.242   7.758 -0.4904  0.3819  0.0244
   65MOL    H4812976   4.314   1.022   7.625 -0.0774 -1.7604 -0.5557
   65MOL    H4912977   4.342   0.981   0.158 -1.5245 -0.6963 -0.0555
   65MOL    H5012978   4.374   0.873   0.025  0.5392  1.0335 -1.4877
   65MOL    H5112979   4.430   1.038   0.023  0.7975  0.3879  2.8453
   65MOL    C5212980   4.100   1.010   7.612  0.4613 -0.1296 -0.6443
   65MOL    C5312981   4.068   0.853   7.630 -0.2453 -0.0964  0.3840
   65MOL    O5412982   3.928   0.833   7.600 -0.0942  0.0804 -0.3789
   65MOL    C5512983   3.838   0.887   7.695  0.2050 -0.1370 -0.0464
   65MOL    H5612984   4.118   1.018   7.505  0.1070  0.1046 -0.6853
   65MOL    H5712985   4.012   1.067   7.640  0.1882 -1.3492  1.0854
   65MOL    H5812986   4.084   0.820   7.733  1.0386  2.1409  0.9347
   65MOL    H5912987   3.742   0.836   7.694 -1.0416  2.1384  1.0789
   65MOL    H6012988   3.866   0.893   7.800 -0.7686  0.1486  0.2013
   65MOL    H6112989   3.815   0.990   7.669 -1.6245 -0.1145  1.5686
   65MOL    C6212990   4.141   0.753   7.528 -0.2037  0.2404  0.0543
   65MOL    C6312991   4.145   0.608   7.586  0.2166 -0.1060 -0.0249
   65MOL    O6412992   4.196   0.603   7.718  0.1392  0.5372 -0.5832
   65MOL    C6512993   4.334   0.576   7.720 -0.2143 -0.3753 -0.4556
   65MOL    H6612994   4.243   0.792   7.516  0.3022 -1.1914 -0.3663
   65MOL    H6712995   4.097   0.759   7.428 -2.3236  1.1511  1.0110
   65MOL    H6812996   4.206   0.539   7.526  0.9568  1.0281 -0.5937
   65MOL    H6912997   4.369   0.563   0.012 -1.8039  0.1149  0.1599
   65MOL    H7012998   4.367   0.487   7.666  0.2596  0.7721 -2.0956
   65MOL    H7112999   4.383   0.664   7.677 -0.1857 -1.1147 -1.9718
   65MOL    C7213000   4.003   0.548   7.590 -0.8725 -0.4547 -0.2170
   65MOL    C7313001   3.996   0.409   7.641  0.0144 -0.2848  0.0425
   65MOL    O7413002   3.857   0.368   7.641 -0.5835  0.2634 -0.3739
   65MOL    C7513003   3.822   0.284   7.750  0.5224 -0.5436  0.4078
   65MOL    H7613004   3.965   0.574   7.492  0.6335 -3.3470 -1.6288
   65MOL    H7713005   3.948   0.607   7.664  0.0568 -0.3336  0.4026
   65MOL    H7813006   4.029   0.407   7.745  0.9137  0.3920 -0.2214
   65MOL    H7913007   3.884   0.198   7.775 -0.3294 -0.5494  2.7022
   65MOL    H8013008   3.813   0.344   0.030 -1.5109 -0.3946  0.1331
   65MOL    H8113009   3.715   0.262   7.739  0.9667 -2.4708 -0.2182
   65MOL    C8213010   4.082   0.296   7.567  0.5858 -0.3094 -0.0317
   65MOL    C8313011   4.067   0.264   7.411 -0.4205  0.0752  0.0707
   65MOL    O8413012   4.143   0.144   7.383  0.0370 -0.3007  0.2003
   65MOL    C8513013   4.280   0.165   7.354 -0.1189 -0.4464  0.3115
   65MOL    H8613014   4.055   0.205   7.620 -1.3330  0.2759  0.0305
   65MOL    H8713015   4.185   0.328   7.586  0.0174  2.6601 -1.6333
   65MOL    H8813016   4.109   0.348   7.355  0.6619 -0.9307 -0.6606
   65MOL    H8913017   4.320   0.252   7.406 -0.5459  0.4055 -0.7743
   65MOL    H9013018   4.340   0.076   7.371  0.1699 -0.6074 -1.5236
   65MOL    H9113019   4.266   0.193   7.250  0.5276 -0.9352  0.0904
   65MOL    C9213020   3.927   0.240   7.356 -0.4253 -0.6697  0.4877
   65MOL    C9313021   3.923   0.215   7.204 -0.4824 -0.1261 -0.9045
   65MOL    O9413022   3.794   0.165   7.168  0.0255 -0.5533 -0.3261
   65MOL    C9513023   3.795   0.022   7.151 -0.2235 -0.4584  0.5113
   65MOL    H9613024   3.853   0.314   7.386 -1.2481 -0.2735 -2.4323
   65MOL    H9713025   3.898   0.145   7.402  0.9460 -1.2203  0.2223
   65MOL    H9813026   3.995   0.135   7.187 -0.0266  0.2036 -0.5425
   65MOL    H9913027   3.701   7.810   7.101 -1.2228  1.1481  1.6231
   65MOL   H10013028   3.866   7.790   7.080  1.8503  0.5676  1.9289
   65MOL   H10113029   3.795   7.776   7.245 -1.2215 -1.4923 -0.1004
   65MOL   C10213030   3.948   0.336   7.118  0.3753 -0.2004 -0.0416
   65MOL   C10313031   3.970   0.302   6.965  0.3101  0.1657 -0.3338
   65MOL   O10413032   3.974   0.419   6.876  0.2915  0.2053  0.0196
   65MOL   C10513033   3.880   0.414   6.772 -0.5795  0.0046 -0.1892
   65MOL   H10613034   4.030   0.405   7.141 -0.0575  0.6188 -0.8982
   65MOL   H10713035   3.858   0.398   7.120 -2.4318 -4.1520 -0.0340
   65MOL   H10813036   3.883   0.242   6.940 -0.3082  1.0164 -0.2324
   65MOL   H10913037   3.912   0.489   6.699  1.1158  1.0554  1.5782
   65MOL   H11013038   3.877   0.316   6.725  0.0978  0.0037 -0.2284
   65MOL   H11113039   3.781   0.441   6.811 -0.0728 -1.0162  1.8688
   65MOL   C11213040   4.089   0.217   6.945  0.0819  0.0906  0.5590
   65MOL   C11313041   4.138   0.192   6.802  0.7796  0.2630 -0.0263
   65MOL   O11413042   4.279   0.228   6.793  0.3684 -0.0957  0.7262
   65MOL   C11513043   4.288   0.368   6.757 -0.2859  0.2870  0.3114
   65MOL   H11613044   4.074   0.117   6.985 -3.4118  0.4249  0.2265
   65MOL   H11713045   4.178   0.253   6.996  1.0553 -1.5459  0.0651
   65MOL   H11813046   4.083   0.251   6.729 -1.8724  0.6648  2.2276
   65MOL   H11913047   4.232   0.401   6.669  0.1844  1.9541  0.6206
   65MOL   H12013048   4.268   0.434   6.841  0.5913 -0.6910  1.3075
   65MOL   H12113049   4.390   0.394   6.730 -1.4799  6.1028  0.8966
   65MOL   C12213050   4.127   0.047   6.754 -0.1651  0.5107  0.6217
   65MOL   C12313051   3.993   7.783   6.766 -0.4296  0.0646  0.0955
   65MOL   O12413052   3.912   0.045   6.666  0.5516 -0.8765 -0.1164
   65MOL   C12513053   3.771   0.007   6.663 -0.3766  0.7895 -0.5543
   65MOL   H12613054   4.202   0.000   6.817 -0.6975  1.2355  1.8007
   65MOL   H12713055   4.154   0.025   6.651 -1.4363 -0.0306  0.3926
   65MOL   H12813056   3.947   7.786   6.865 -0.7746 -1.4547  0.0059
   65MOL   H12913057   3.720   0.049   6.576  0.4250  0.7887 -1.0279
   65MOL   H13013058   3.756   7.712   6.640 -0.4743 -0.2514  3.9346
   65MOL   H13113059   3.721   0.029   6.757  0.9723  1.3003  0.0557
   65MOL   C13213060   4.002   7.628   6.742  0.2187  1.0783  0.5905
   65MOL   C13313061   4.093   7.549   6.838 -0.0066  0.0821  1.3120
   65MOL   O13413062   4.046   7.563   6.968  0.0983  0.0079  0.0751
   65MOL   C13513063   4.134   7.630   7.057 -0.2314 -1.0136  0.0778
   65MOL   H13613064   4.036   7.611   6.640 -1.5628 -1.3841  0.3489
   65MOL   H13713065   3.907   7.574   6.742  1.9380 -2.0511 -0.0376
   65MOL   H13813066   4.194   7.588   6.827  0.5419 -1.4607  0.7713
   65MOL   H13913067   4.153   7.733   7.028 -2.5885  0.0271  2.0709
   65MOL   H14013068   4.076   7.647   7.147 -0.7559 -1.3840 -0.1840
   65MOL   H14113069   4.227   7.575   7.075 -0.2779 -0.1281  3.1216
   65MOL   C14213070   4.100   7.397   6.816 -0.1404  0.3807 -0.7801
   65MOL   C14313071   4.211   7.322   6.894 -0.4837  0.6387 -0.2080
   65MOL   O14413072   4.186   7.189   6.862 -0.0057 -0.2799 -0.0105
   65MOL   C14513073   4.105   7.125   6.963 -0.4691  0.1170  0.3117
   65MOL   H14613074   4.105   7.381   6.708  2.9450 -0.0304 -0.6104
   65MOL   H14713075   4.006   7.353   6.849 -0.2695 -0.8826 -2.7667
   65MOL   H14813076   4.207   7.336   7.002  1.1517 -0.4580  0.0149
   65MOL   H14913077   4.012   7.178   6.985  0.2108  1.9702 -1.1002
   65MOL   H15013078   4.078   7.029   6.919  2.6098 -0.4046 -0.5259
   65MOL   H15113079   4.170   7.115   7.050 -0.0736 -1.3538 -0.1385
   65MOL   C15213080   4.350   7.350   6.827 -0.5115 -0.4921  0.0335
   65MOL   C15313081   4.468   7.286   6.899  0.0105  0.2364 -0.3725
   65MOL   O15413082   4.539   7.194   6.812  0.9670 -0.1569 -0.7914
   65MOL   C15513083   4.514   7.062   6.827 -0.2793  0.6384 -0.0537
   65MOL   H15613084   4.360   7.459   6.821  0.9443 -0.5897  0.5823
   65MOL   H15713085   4.350   7.306   6.727 -2.4860  1.1129 -0.7282
   65MOL   H15813086   4.424   7.234   6.984 -1.3124  1.6964 -0.1312
   65MOL   H15913087   4.574   7.006   6.755 -0.2237  1.1048 -0.3722
   65MOL   H16013088   4.539   7.036   6.930 -1.4563 -2.0257 -0.4126
   65MOL   H16113089   4.410   7.041   6.803 -0.2136  1.6949 -1.3216
   65MOL   C16213090   4.577   7.390   6.943 -0.1011 -0.0615 -0.3440
   65MOL   C16313091   4.548   7.447   7.079 -0.3567  0.5086 -0.0492
   65MOL   O16413092   4.542   7.331   7.167 -0.1761  0.0667 -0.2881
   65MOL   C16513093   4.484   7.353   7.297 -0.2458 -0.2057 -0.2461
   65MOL   H16613094   4.586   7.474   6.874  2.0497  0.1956  0.2156
   65MOL   H16713095   4.673   7.339   6.931  0.2198  0.2580  0.8243
   65MOL   H16813096   4.457   7.507   7.077 -0.5638  0.2293  0.7735
   65MOL   H16913097   4.456   7.255   7.336  0.4768  0.0847  1.0414
   65MOL   H17013098   4.557   7.407   7.357  0.0198 -1.5610  0.6803
   65MOL   H17113099   4.392   7.411   7.285 -1.3899 -1.4809  2.0554
   65MOL   C17213100   4.658   7.534   7.132  0.1464 -0.1690 -0.8310
   65MOL   C17313101   4.645   7.679   7.075 -0.7008  0.0440  0.1529
   65MOL   O17413102   4.531   7.740   7.138 -0.3869  0.0476 -0.5451
   65MOL   C17513103   4.486   0.043   7.077 -0.4871 -0.4021  0.2733
   65MOL   H17613104   4.751   7.490   7.097  0.5416 -0.2161  0.2706
   65MOL   H17713105   4.671   7.532   7.240 -2.0136  2.6080 -0.4733
   65MOL   H17813106   4.636   7.676   6.967 -1.8903 -0.1083  0.2451
   65MOL   H17913107   4.455   0.016   6.976 -1.3490 -1.6597  0.8586
   65MOL   H18013108   4.395   0.073   7.129  1.2351  0.1986  3.0509
   65MOL   H18113109   4.552   0.130   7.076 -0.7384 -0.1589  2.5200
   65MOL   C18213110   4.767   7.769   7.122  0.2448  0.2495  1.0872
   65MOL   C18313111   4.903   7.722   7.061 -0.1402 -0.3528 -0.0162
   65MOL   O18413112   4.888   7.726   6.918 -0.3140  0.6481  0.2673
   65MOL   C18513113   4.908   7.603   6.851  0.4703 -0.1996  0.0960
   65MOL   H18613114   4.793   7.766   7.227 -0.9466  2.8403  1.4885
   65MOL   H18713115   4.752   0.063   7.096 -0.5667 -0.3645 -1.0401
   65MOL   H18813116   4.931   7.626   7.105 -2.2436 -0.6612  0.7044
   65MOL   H18913117   4.850   7.521   6.894  1.7161 -1.5044 -0.6354
   65MOL   H19013118   4.892   7.625   6.746  0.1743  0.7641  0.3372
   65MOL   H19113119   5.013   7.577   6.865  0.5108 -0.9873 -1.5600
   65MOL   C19213120   5.014   0.018   7.081 -0.3011  0.6264 -0.4404
   65MOL   C19313121   5.151   7.776   7.045 -0.2819  0.1306  0.0644
   65MOL   O19413122   5.240   0.065   7.090  0.3194  0.2678  0.0885
   65MOL   C19513123   5.370   0.014   7.114 -0.2021 -0.6302  0.2178
   65MOL   H19613124   5.002   0.046   7.186  0.5204 -0.5241 -0.0322
   65MOL   H19713125   4.990   0.108   7.023  0.2713  1.8912  1.2379
   65MOL   H19813126   5.155   7.762   6.937 -2.0406  0.1428 -0.0176
   65MOL   H19913127   5.452   0.080   7.144  0.2375 -0.3665 -1.4879
   65MOL   H20013128   5.360   7.746   7.189 -2.6313  0.5115  1.1112
   65MOL   H20113129   5.405   7.771   7.025 -2.1721 -0.6096 -0.5910
   65MOL   H20213130   5.172   7.681   7.095  1.9470 -0.0042 -1.0661
   66MOL     C113131   6.651   0.535   3.574  0.7024 -0.0104 -0.4941
   66MOL     C213132   6.648   0.658   3.668  0.1180  0.1646  0.8755
   66MOL     O313133   6.704   0.759   3.592  0.0691  0.1220 -0.1050
   66MOL     C413134   6.823   0.827   3.644  0.4747 -0.3912  0.2816
   66MOL     H513135   6.611   0.560   3.476 -0.0456  1.4186  0.1492
   66MOL     H613136   6.753   0.498   3.565 -0.3744 -2.5200 -2.7784
   66MOL     H713137   6.716   0.627   3.747 -0.5143 -1.5426  0.7767
   66MOL     H813138   6.903   0.754   3.658  0.6910 -0.3708 -0.7915
   66MOL     H913139   6.841   0.910   3.576 -0.7605 -0.2269  0.1369
   66MOL    H1013140   6.786   0.885   3.729  1.1749 -0.4486  0.6264
   66MOL    H1113141   6.597   0.452   3.619  0.4417 -0.2632 -1.2756
   66MOL    C1213142   6.503   0.697   3.704  0.4170 -0.5150  0.2483
   66MOL    C1313143   6.442   0.613   3.814  0.1780 -0.4131 -0.4946
   66MOL    O1413144   6.435   0.693   3.938 -0.4475  0.1479  0.0492
   66MOL    C1513145   6.557   0.723   3.994  0.7659 -0.7745  0.7637
   66MOL    H1613146   6.434   0.688   3.620  1.4172 -1.1349 -0.5160
   66MOL    H1713147   6.496   0.804   3.722  3.0001 -0.3769  0.6222
   66MOL    H1813148   6.500   0.521   3.819 -1.6364 -1.4931  1.5554
   66MOL    H1913149   6.617   0.632   4.000  5.1889  1.9441  0.6184
   66MOL    H2013150   6.623   0.792   3.941 -0.8425  0.1778 -0.0368
   66MOL    H2113151   6.545   0.759   4.096  0.4797 -0.3317  0.5746
   66MOL    C2213152   6.288   0.579   3.793 -0.1527 -0.4561  0.4299
   66MOL    C2313153   6.266   0.477   3.675 -1.0007 -0.0597 -0.7467
   66MOL    O2413154   6.334   0.350   3.700  0.9655  0.5835 -0.5707
   66MOL    C2513155   6.298   0.267   3.818  0.1088  0.1002  0.2159
   66MOL    H2613156   6.232   0.668   3.768  0.2176 -0.1896  0.5340
   66MOL    H2713157   6.237   0.553   3.886  0.7646 -0.4009  0.9627
   66MOL    H2813158   6.321   0.505   3.585  1.9153  1.1088  1.3497
   66MOL    H2913159   6.345   0.312   3.905  0.2395  1.3267 -0.4902
   66MOL    H3013160   6.191   0.246   3.831  0.4466 -0.6897  1.9080
   66MOL    H3113161   6.357   0.176   3.804  0.5439  0.7807 -2.6903
   66MOL    C3213162   6.123   0.453   3.627  0.4421  0.6276 -0.4921
   66MOL    C3313163   6.095   0.373   3.498  0.5014  0.9919 -0.1024
   66MOL    O3413164   5.964   0.322   3.497  0.3043 -0.3087  0.2868
   66MOL    C3513165   5.951   0.190   3.558 -0.1924  0.0427  0.2826
   66MOL    H3613166   6.076   0.551   3.629  1.1182  0.9681 -0.8859
   66MOL    H3713167   6.078   0.407   3.715  1.9623  0.6716  0.3232
   66MOL    H3813168   6.166   0.289   3.497 -1.1973 -0.4876  1.0581
   66MOL    H3913169   5.983   0.186   3.662 -1.1821 -1.6491  0.5438
   66MOL    H4013170   5.847   0.157   3.554 -0.1288  0.0400 -1.6982
   66MOL    H4113171   6.020   0.117   3.517  1.2985  2.8326 -2.3874
   66MOL    C4213172   6.113   0.448   3.367 -0.5314  0.9856  0.1684
   66MOL    C4313173   6.085   0.365   3.240 -0.7434 -0.5191  0.2554
   66MOL    O4413174   6.078   0.457   3.128  0.2352  0.0156  0.0839
   66MOL    C4513175   5.946   0.465   3.073 -0.5152 -0.1908  0.6076
   66MOL    H4613176   6.213   0.488   3.355 -0.0139 -0.0364  1.0726
   66MOL    H4713177   6.050   0.537   3.362  0.2079  1.6557  2.5163
   66MOL    H4813178   5.989   0.317   3.258  0.9658 -3.5908  1.4826
   66MOL    H4913179   5.931   0.370   3.021 -0.5800 -0.0404  0.3519
   66MOL    H5013180   5.875   0.480   3.155 -0.5563  3.7611 -0.0733
   66MOL    H5113181   5.935   0.553   3.011  0.2539 -0.4573  0.0861
   66MOL    C5213182   6.201   0.260   3.214  0.4971 -0.3181 -0.3240
   66MOL    C5313183   6.146   0.144   3.121 -0.2173  0.0636  0.1401
   66MOL    O5413184   6.260   0.056   3.100 -0.4793 -0.0674  0.7333
   66MOL    C5513185   6.356   0.094   3.003 -0.3536  0.1863 -0.6534
   66MOL    H5613186   6.230   0.221   3.312  0.8362  2.1271  0.5833
   66MOL    H5713187   6.283   0.311   3.165  0.2485 -1.0802 -1.5473
   66MOL    H5813188   6.107   0.177   3.024 -2.2764  0.5111  1.0980
   66MOL    H5913189   6.309   0.094   2.904 -0.1764  1.3377 -0.7421
   66MOL    H6013190   6.393   0.193   3.028 -0.0201 -0.3348  0.9324
   66MOL    H6113191   6.436   0.020   3.010 -1.5422 -1.1160 -0.6867
   66MOL    C6213192   6.035   0.057   3.195 -0.1236 -0.2654  0.2246
   66MOL    C6313193   5.999   7.742   3.120 -1.1064  0.2516  0.2439
   66MOL    O6413194   5.954   7.655   3.222  0.4223  0.4036 -0.1984
   66MOL    C6513195   6.038   7.547   3.254  0.2620  0.8242  0.6586
   66MOL    H6613196   5.944   0.113   3.217  0.0904  0.4608 -0.6828
   66MOL    H6713197   6.065   0.033   3.297 -1.6486 -1.4504  0.3943
   66MOL    H6813198   6.087   7.711   3.064  0.1942  0.9358  1.8805
   66MOL    H6913199   6.116   7.573   3.326 -0.0546 -1.8050  2.0027
   66MOL    H7013200   5.974   7.475   3.305 -0.6591  1.4230  0.3631
   66MOL    H7113201   6.071   7.483   3.173 -2.0219 -0.5166  0.7449
   66MOL    C7213202   5.878   7.764   3.025  0.4603  0.2028 -0.8257
   66MOL    C7313203   5.850   7.658   2.932 -0.2800  0.5815  0.5527
   66MOL    O7413204   5.968   7.625   2.864 -0.6719  0.4942  0.0766
   66MOL    C7513205   5.955   7.598   2.724 -0.2117 -0.1653  0.0105
   66MOL    H7613206   5.895   0.043   2.965 -0.1657 -0.0923 -1.4499
   66MOL    H7713207   5.792   7.786   3.088  1.1679  0.7752 -0.0493
   66MOL    H7813208   5.789   7.697   2.850  1.6346 -1.3209 -1.8797
   66MOL    H7913209   5.867   7.537   2.706 -0.6740  1.4409 -3.5290
   66MOL    H8013210   5.957   7.684   2.657  2.3356 -2.5634 -3.1637
   66MOL    H8113211   6.046   7.544   2.698  0.1378  0.0304  0.7994
   66MOL    C8213212   5.787   7.520   2.980 -0.1014  0.2211 -0.1735
   66MOL    C8313213   5.663   7.547   3.065  0.1325 -0.6633  0.4530
   66MOL    O8413214   5.573   7.609   2.977  0.9196 -0.1560 -0.5251
   66MOL    C8513215   5.464   7.679   3.039 -0.0716  0.5610 -0.2300
   66MOL    H8613216   5.860   7.455   3.027 -2.6808 -1.3283  1.8123
   66MOL    H8713217   5.747   7.464   2.895 -2.2670 -0.1277  1.0382
   66MOL    H8813218   5.698   7.600   3.154  1.5089  1.3177 -1.2126
   66MOL    H8913219   5.512   7.770   3.076 -0.2068  0.9432 -0.9633
   66MOL    H9013220   5.391   7.698   2.961  0.6866 -1.6829 -1.5407
   66MOL    H9113221   5.424   7.621   3.122 -2.8268 -0.6439 -2.3427
   66MOL    C9213222   5.601   7.422   3.129 -1.0352 -0.0747 -0.5890
   66MOL    C9313223   5.698   7.344   3.219 -0.0067 -0.5098  0.0395
   66MOL    O9413224   5.625   7.297   3.325 -0.0751 -0.1758  0.1089
   66MOL    C9513225   5.628   7.390   3.434 -0.1613  0.8208  0.2100
   66MOL    H9613226   5.553   7.354   3.059  1.3219 -1.4797 -0.8971
   66MOL    H9713227   5.521   7.447   3.199  1.1086 -3.6100  3.3584
   66MOL    H9813228   5.773   7.411   3.261  0.8536 -0.4459 -1.5458
   66MOL    H9913229   5.721   7.387   3.491 -0.2383 -0.0556  0.3009
   66MOL   H10013230   5.604   7.492   3.404  1.0807  2.0718  3.2211
   66MOL   H10113231   5.558   7.363   3.513  0.3962 -0.7465  0.1851
   66MOL   C10213232   5.753   7.220   3.149  0.5023 -0.0643 -0.1751
   66MOL   C10313233   5.823   7.123   3.241 -0.2449  0.1546  0.2105
   66MOL   O10413234   5.866   7.009   3.166  0.4023  0.3243  0.3200
   66MOL   C10513235   5.762   6.920   3.124 -0.0302  0.1136 -0.1414
   66MOL   H10613236   5.822   7.242   3.067  1.8930 -3.3157  0.0286
   66MOL   H10713237   5.674   7.166   3.098 -1.0739  0.7150  1.3739
   66MOL   H10813238   5.750   7.078   3.309  0.0236 -2.0593 -0.9062
   66MOL   H10913239   5.725   6.863   3.209  0.2488 -0.5461 -0.4650
   66MOL   H11013240   5.678   6.967   3.072 -0.2250  0.6986  0.6864
   66MOL   H11113241   5.801   6.838   3.065  1.2162  0.3367  0.3534
   66MOL   C11213242   5.944   7.175   3.313  0.0715 -0.0471 -0.5010
   66MOL   C11313243   6.029   7.063   3.387  0.1019 -0.7514 -0.4327
   66MOL   O11413244   6.141   7.129   3.435 -0.1311 -0.4329 -0.4329
   66MOL   C11513245   6.235   7.161   3.339 -0.2403 -0.2953  0.2967
   66MOL   H11613246   5.923   7.247   3.391  0.1089 -0.3755 -0.1852
   66MOL   H11713247   6.011   7.218   3.238  0.5968  0.2980  0.1584
   66MOL   H11813248   6.055   6.979   3.323  0.6705 -0.4733 -0.5751
   66MOL   H11913249   6.256   7.083   3.266  2.8471  0.7328  0.0288
   66MOL   H12013250   6.217   7.253   3.283 -0.2230  0.8347  2.0938
   66MOL   H12113251   6.325   7.175   3.398 -0.6264  1.2839  0.5281
   66MOL   C12213252   5.950   7.000   3.500  0.4987 -0.1372  0.0757
   66MOL   C12313253   6.024   6.892   3.587  0.7562 -0.2468  0.6552
   66MOL   O12413254   5.948   6.858   3.702 -0.1187 -0.6162 -0.6343
   66MOL   C12513255   5.982   6.932   3.814 -0.5389  0.3580  0.0768
   66MOL   H12613256   5.867   6.953   3.446  0.2321  0.8175 -0.3442
   66MOL   H12713257   5.904   7.079   3.560  0.7457 -1.5561  2.2095
   66MOL   H12813258   6.120   6.932   3.618  0.0659  0.5105  1.8549
   66MOL   H12913259   6.090   6.933   3.825 -0.5434 -3.2067  0.9094
   66MOL   H13013260   5.943   7.030   3.788  2.2741  1.8852  1.3751
   66MOL   H13113261   5.924   6.888   3.894  0.6792 -0.1283  0.7009
   66MOL   C13213262   6.054   6.762   3.508  0.7013 -1.5621 -0.5362
   66MOL   C13313263   6.150   6.673   3.584  0.3442  0.0530 -0.3872
   66MOL   O13413264   6.132   6.540   3.523  0.0586  0.2458  0.0438
   66MOL   C13513265   6.062   6.447   3.607 -0.0536 -0.8111  0.4290
   66MOL   H13613266   6.091   6.777   3.406  1.9505  1.4955  0.3445
   66MOL   H13713267   5.955   6.719   3.490 -0.1403  0.2012 -0.2011
   66MOL   H13813268   6.120   6.678   3.689  0.2913 -0.7803 -0.3581
   66MOL   H13913269   6.120   6.445   3.699 -0.2387 -1.2618  0.5391
   66MOL   H14013270   5.960   6.484   3.618 -0.2183 -1.2724  0.4550
   66MOL   H14113271   6.052   6.358   3.545 -0.7719 -0.4688  0.0467
   66MOL   C14213272   6.297   6.704   3.563 -0.1452  0.3032  0.6613
   66MOL   C14313273   6.381   6.646   3.680 -0.6352  0.0031 -0.1541
   66MOL   O14413274   6.397   6.505   3.661 -0.1822  0.1113  0.0954
   66MOL   C14513275   6.394   6.413   3.770  0.2734  0.2343  0.1100
   66MOL   H14613276   6.322   6.809   3.553  0.6663 -0.0425 -0.9075
   66MOL   H14713277   6.328   6.670   3.465  0.7152  0.0984  1.0034
   66MOL   H14813278   6.343   6.661   3.781  0.5675 -2.9362  0.7786
   66MOL   H14913279   6.358   6.318   3.731  0.3603  0.3828 -0.3316
   66MOL   H15013280   6.496   6.401   3.805  0.8735  1.7311 -1.0529
   66MOL   H15113281   6.326   6.448   3.848 -0.6279 -0.4249 -0.3591
   66MOL   C15213282   6.530   6.707   3.684  0.7193  0.2972  0.5372
   66MOL   C15313283   6.538   6.849   3.725  0.2368 -0.2084 -0.5618
   66MOL   O15413284   6.500   6.846   3.863 -0.1146  0.1941 -0.1162
   66MOL   C15513285   6.421   6.948   3.899  0.4315 -0.2989 -0.3697
   66MOL   H15613286   6.563   6.694   3.580 -0.6541 -1.8206  0.3411
   66MOL   H15713287   6.598   6.653   3.749  1.8826 -0.2658 -1.1004
   66MOL   H15813288   6.464   6.901   3.663  0.5846 -0.5631 -1.2740
   66MOL   H15913289   6.379   6.924   3.996  0.0533  0.9182 -0.2232
   66MOL   H16013290   6.472   7.044   3.891  0.6745 -0.3484  0.6077
   66MOL   H16113291   6.331   6.950   3.837  1.1167  3.1065 -1.3810
   66MOL   C16213292   6.683   6.907   3.729  0.5129 -0.0692 -0.2790
   66MOL   C16313293   6.752   6.918   3.586 -0.3437 -0.1757 -0.0719
   66MOL   O16413294   6.682   7.019   3.522 -0.4025 -0.0902  0.3072
   66MOL   C16513295   6.620   6.986   3.399  0.5240 -0.0283 -0.5065
   66MOL   H16613296   6.746   6.852   3.799  2.6479  0.8678 -1.4406
   66MOL   H16713297   6.679   7.010   3.763 -1.5995 -0.3128  0.2707
   66MOL   H16813298   6.761   6.822   3.534  0.8473 -0.2466  0.2443
   66MOL   H16913299   6.685   6.932   3.330  1.1197  0.3379 -0.2360
   66MOL   H17013300   6.535   6.922   3.418  0.5737 -0.2349 -0.9743
   66MOL   H17113301   6.583   7.075   3.348  1.7086  1.0558  0.4994
   66MOL   C17213302   6.898   6.977   3.598  0.1584  0.0789 -0.6685
   66MOL   C17313303   7.003   6.947   3.485  0.3110 -0.9528  0.1725
   66MOL   O17413304   6.994   6.807   3.476  0.0907 -0.0392  0.3393
   66MOL   C17513305   7.106   6.747   3.410  0.1402  0.5486 -0.4814
   66MOL   H17613306   6.927   6.928   3.691 -0.5399 -0.9421 -0.9765
   66MOL   H17713307   6.901   7.082   3.623  0.2528 -0.1701  0.3809
   66MOL   H17813308   7.106   6.959   3.517  0.7679 -1.2695 -1.1849
   66MOL   H17913309   7.187   6.715   3.476 -0.7176 -1.3248 -0.2973
   66MOL   H18013310   7.081   6.654   3.358 -0.9812  1.2232 -1.1681
   66MOL   H18113311   7.153   6.813   3.336 -0.0628  2.4376  1.0442
   66MOL   C18213312   6.979   7.010   3.352 -0.2148  0.2516  0.1957
   66MOL   C18313313   7.044   7.147   3.341 -0.3815 -0.8636  0.0738
   66MOL   O18413314   7.183   7.130   3.320  0.0255  0.1378  0.4889
   66MOL   C18513315   7.260   7.176   3.433  0.1498 -0.1066  0.0960
   66MOL   H18613316   6.873   7.011   3.328 -0.1279 -1.5804 -0.3055
   66MOL   H18713317   7.009   6.943   3.271  0.7266  0.0416  0.7124
   66MOL   H18813318   7.024   7.190   3.440  0.2841 -2.0190  0.7147
   66MOL   H18913319   7.261   7.099   3.510 -0.8458  1.4315  1.6857
   66MOL   H19013320   7.364   7.183   3.401  0.4339  0.8593  1.2085
   66MOL   H19113321   7.229   7.264   3.489  0.5092  0.5182 -0.6729
   66MOL   C19213322   6.976   7.221   3.223  0.0703  0.2383 -0.2596
   66MOL   C19313323   6.981   7.371   3.235  0.2233  0.2284 -0.1560
   66MOL   O19413324   6.896   7.422   3.134  0.0115 -0.4533 -0.2420
   66MOL   C19513325   6.897   7.562   3.136 -0.3648 -1.0113 -0.1864
   66MOL   H19613326   6.868   7.211   3.224 -0.0321  1.3302  0.7437
   66MOL   H19713327   7.018   7.192   3.126  1.5764  1.9285 -0.1428
   66MOL   H19813328   7.079   7.403   3.198  0.4324 -1.7387 -1.3320
   66MOL   H19913329   6.819   7.582   3.062 -0.1536 -0.6977 -0.3253
   66MOL   H20013330   6.866   7.600   3.233  1.0361 -0.0878 -0.0944
   66MOL   H20113331   6.990   7.608   3.103 -0.4738 -0.2471  0.5401
   66MOL   H20213332   6.963   7.415   3.333 -0.4799  1.8754 -0.9955
   67MOL     C113333   0.097   0.645   2.350 -0.5335  0.4661 -0.1957
   67MOL     C213334   0.077   0.498   2.385 -1.0175 -0.6576 -0.1077
   67MOL     O313335   0.097   0.411   2.276  0.4134  0.4791 -0.2050
   67MOL     C413336   7.780   0.392   2.206  0.0430  0.3356 -0.2527
   67MOL     H513337   0.061   0.710   2.429 -2.2634 -0.8422  0.1046
   67MOL     H613338   0.199   0.676   2.326 -0.7411 -0.6662 -2.7186
   67MOL     H713339   7.787   0.487   2.424 -0.3608 -0.5996  1.6554
   67MOL     H813340   7.790   0.326   2.120 -0.8179 -0.5825  0.3491
   67MOL     H913341   7.718   0.335   2.275 -0.8946  0.0610 -1.3077
   67MOL    H1013342   7.720   0.481   2.184 -1.3479 -0.0777  1.8396
   67MOL    H1113343   0.033   0.664   2.264 -1.3107  1.3256  0.5728
   67MOL    C1213344   0.174   0.453   2.493  0.1057 -0.3643  0.2440
   67MOL    C1313345   0.124   0.317   2.548 -0.3920  0.0101 -0.4707
   67MOL    O1413346   0.236   0.242   2.610 -0.0052 -0.7677  0.0007
   67MOL    C1513347   0.308   0.160   2.528  0.2908  0.5605 -0.1867
   67MOL    H1613348   0.189   0.526   2.573  0.9696  0.1179 -0.3465
   67MOL    H1713349   0.271   0.431   2.447  0.0593 -1.2122  0.5317
   67MOL    H1813350   0.069   0.273   2.465 -0.8721  0.9176 -0.6362
   67MOL    H1913351   0.363   0.212   2.449 -0.1747  0.1620 -0.7842
   67MOL    H2013352   0.369   0.093   2.588 -2.3032  0.5152  2.5152
   67MOL    H2113353   0.229   0.098   2.485  1.3360 -2.0064  1.4853
   67MOL    C2213354   0.036   0.349   2.676  0.4210  0.1742 -0.0618
   67MOL    C2313355   7.739   0.247   2.709 -0.6277 -0.3642 -0.1930
   67MOL    O2413356   7.656   0.246   2.604 -0.2558  0.5825  0.2591
   67MOL    C2513357   7.527   0.287   2.633 -0.0746 -0.5416 -0.5349
   67MOL    H2613358   7.792   0.437   2.643 -1.3258 -1.1648 -0.8935
   67MOL    H2713359   0.098   0.368   2.763 -3.4368  1.5142  2.5082
   67MOL    H2813360   7.685   0.295   2.792  0.9837  0.1803  0.5584
   67MOL    H2913361   7.468   0.209   2.680  0.9248 -0.1456  1.4209
   67MOL    H3013362   7.529   0.371   2.702 -1.1190 -0.0759 -1.0691
   67MOL    H3113363   7.482   0.311   2.537 -0.4503 -0.1930 -0.2722
   67MOL    C3213364   7.785   0.101   2.747  0.1957  0.4349 -0.5091
   67MOL    C3313365   7.686   0.029   2.847 -0.1776 -0.0914 -0.1205
   67MOL    O3413366   7.718   7.703   2.868  0.0990  0.2455  0.1811
   67MOL    C3513367   7.688   7.622   2.758 -0.1433 -0.4073 -0.0874
   67MOL    H3613368   0.077   0.097   2.784 -0.3453 -1.0257  0.9256
   67MOL    H3713369   7.785   0.056   2.647  0.2571 -0.7399  0.0022
   67MOL    H3813370   7.585   0.036   2.805 -0.2189  0.4548  0.0788
   67MOL    H3913371   7.663   7.683   2.670 -3.7357 -0.3385  0.9092
   67MOL    H4013372   7.760   7.548   2.726 -2.9637 -2.4834 -1.9131
   67MOL    H4113373   7.595   7.566   2.768 -2.5482  2.5248 -4.2345
   67MOL    C4213374   7.686   0.096   2.987  0.2730 -0.0855 -0.2040
   67MOL    C4313375   7.581   0.037   3.084  0.3426  0.1947 -0.0238
   67MOL    O4413376   7.613   0.083   3.213 -0.3920 -0.8203  0.3899
   67MOL    C4513377   7.680   7.808   3.304 -0.0445  0.6092  0.0753
   67MOL    H4613378   7.667   0.204   2.981  1.1749  0.0976  0.2304
   67MOL    H4713379   7.782   0.085   3.037  0.5871 -1.8349 -1.1836
   67MOL    H4813380   7.595   7.739   3.079  0.4216  0.2584 -1.5763
   67MOL    H4913381   7.739   0.058   3.373  0.8738 -2.4266  2.0423
   67MOL    H5013382   7.605   7.745   3.351  0.3866 -0.7186 -0.9776
   67MOL    H5113383   7.754   7.736   3.269 -0.3713 -0.2704  1.1635
   67MOL    C5213384   7.427   0.054   3.058  0.5646  0.4512 -0.4416
   67MOL    C5313385   7.323   7.779   3.133  0.1522  0.4153  0.2192
   67MOL    O5413386   7.196   0.020   3.113  0.0291  0.1522  1.1104
   67MOL    C5513387   7.115   0.011   3.223 -0.2882 -0.6112 -0.7337
   67MOL    H5613388   7.420   0.044   2.950 -0.4488 -0.1704 -0.3248
   67MOL    H5713389   7.386   0.154   3.074 -1.9393 -1.1488  4.1830
   67MOL    H5813390   7.345   7.788   3.239 -2.1157  1.1152  0.6635
   67MOL    H5913391   7.015   0.044   3.198 -0.3178  0.0841  0.2732
   67MOL    H6013392   7.106   7.723   3.269 -0.3609 -0.3117 -0.0928
   67MOL    H6113393   7.148   0.085   3.296  0.3121  0.7435 -2.3698
   67MOL    C6213394   7.317   7.632   3.091  0.6766 -0.0568  0.2041
   67MOL    C6313395   7.278   7.593   2.946 -0.0159  0.3001  0.4106
   67MOL    O6413396   7.373   7.648   2.853 -0.0876 -0.1906  0.6402
   67MOL    C6513397   7.317   7.660   2.729 -0.4172  0.1827  0.6816
   67MOL    H6613398   7.258   7.568   3.157  1.1719 -2.5935 -1.7540
   67MOL    H6713399   7.421   7.604   3.106  0.0278 -1.4474  2.3985
   67MOL    H6813400   7.173   7.623   2.941 -1.0390 -2.8223  1.3860
   67MOL    H6913401   7.219   7.709   2.726 -0.3085  0.4552  1.5609
   67MOL    H7013402   7.386   7.710   2.661  1.6210  0.5846  3.0127
   67MOL    H7113403   7.305   7.564   2.678 -1.5774  0.8303 -0.3109
   67MOL    C7213404   7.274   7.437   2.932 -0.5929 -0.2118 -0.3525
   67MOL    C7313405   7.408   7.364   2.926 -0.1860 -0.3524  0.3676
   67MOL    O7413406   7.472   7.371   3.052  0.5420 -0.1052  0.1421
   67MOL    C7513407   7.616   7.389   3.043  0.5257 -0.1774 -0.0130
   67MOL    H7613408   7.234   7.425   2.831 -0.8320  1.7797 -0.5130
   67MOL    H7713409   7.203   7.390   2.999  0.2383 -1.0902 -0.0725
   67MOL    H7813410   7.475   7.410   2.853  0.0749  0.2115  0.9585
   67MOL    H7913411   7.668   7.296   3.018 -0.8896 -0.9154 -0.2758
   67MOL    H8013412   7.649   7.468   2.976  1.5727  0.2648  1.0117
   67MOL    H8113413   7.646   7.413   3.145  0.4997 -1.1684  0.2370
   67MOL    C8213414   7.398   7.211   2.894 -0.6957  0.5503 -0.3260
   67MOL    C8313415   7.342   7.158   2.759  0.9285  0.3215  1.0141
   67MOL    O8413416   7.206   7.201   2.741 -0.4726 -0.3868 -0.3967
   67MOL    C8513417   7.100   7.121   2.788 -0.1656 -0.4233 -0.1231
   67MOL    H8613418   7.343   7.153   2.968 -0.3562  0.2319 -0.3217
   67MOL    H8713419   7.498   7.167   2.893 -1.4400 -1.1822  0.4170
   67MOL    H8813420   7.353   7.050   2.753 -0.1876  0.3159 -1.6334
   67MOL    H8913421   7.007   7.167   2.753 -0.2509  0.6539  1.4791
   67MOL    H9013422   7.106   7.019   2.751  0.3503 -0.2194 -0.6189
   67MOL    H9113423   7.098   7.117   2.896  1.3747 -0.9001 -0.1120
   67MOL    C9213424   7.424   7.219   2.641  0.1871 -0.7611 -0.1573
   67MOL    C9313425   7.420   7.139   2.512 -0.3829 -0.0336  1.0089
   67MOL    O9413426   7.429   7.230   2.404  0.2069 -0.4840  0.0564
   67MOL    C9513427   7.309   7.296   2.378 -0.1766  0.0098  0.1482
   67MOL    H9613428   7.530   7.222   2.664  0.6290  0.1761 -2.1815
   67MOL    H9713429   7.404   7.326   2.636  0.6723 -0.6876 -0.5872
   67MOL    H9813430   7.324   7.088   2.503  0.0426 -0.6438 -0.2736
   67MOL    H9913431   7.267   7.332   2.473 -0.2163  1.6290 -0.4663
   67MOL   H10013432   7.324   7.383   2.314  1.4609 -0.6254 -0.3393
   67MOL   H10113433   7.247   7.231   2.317 -1.5473  3.1961 -1.9617
   67MOL   C10213434   7.539   7.033   2.502  0.1098 -0.4848  0.2370
   67MOL   C10313435   7.528   6.923   2.389  0.4281 -0.5489  0.4934
   67MOL   O10413436   7.655   6.911   2.334 -0.4263 -0.0123  0.6516
   67MOL   C10513437   7.667   6.986   2.209 -0.0107  0.4205 -0.4351
   67MOL   H10613438   7.581   6.979   2.587  0.6653 -0.5206 -0.0578
   67MOL   H10713439   7.622   7.098   2.475 -1.1109  0.6939 -0.7210
   67MOL   H10813440   7.462   6.941   2.304 -0.0314  0.7656  1.1137
   67MOL   H10913441   7.769   6.993   2.173 -0.1324 -1.3107 -1.1811
   67MOL   H11013442   7.612   6.927   2.135  0.4436 -1.2570  0.5399
   67MOL   H11113443   7.620   7.084   2.206 -1.9671 -0.3418  2.4733
   67MOL   C11213444   7.502   6.776   2.432  0.1744 -0.0500  0.4193
   67MOL   C11313445   7.377   6.764   2.520 -0.0168  0.7303  0.2566
   67MOL   O11413446   7.266   6.800   2.429 -0.1594 -0.1554  0.4274
   67MOL   C11513447   7.138   6.836   2.480 -0.3383  0.1141  0.0166
   67MOL   H11613448   7.584   6.749   2.499  0.4865  0.8297  0.3947
   67MOL   H11713449   7.499   6.708   2.347 -3.8820  0.6982 -0.1519
   67MOL   H11813450   7.366   6.830   2.606  0.1590  0.8077  0.2200
   67MOL   H11913451   7.106   6.741   2.524  1.1200  0.4951  1.9507
   67MOL   H12013452   7.155   6.913   2.554 -2.5681  1.4765 -0.8503
   67MOL   H12113453   7.060   6.856   2.406  0.7796  1.7947 -0.7256
   67MOL   C12213454   7.353   6.619   2.567  0.1905  0.0015 -0.0664
   67MOL   C12313455   7.451   6.570   2.667 -0.6912  0.6054 -0.1134
   67MOL   O12413456   7.427   6.619   2.803  0.6948 -0.1215 -0.0467
   67MOL   C12513457   7.530   6.701   2.854  0.1955 -0.0088 -0.9474
   67MOL   H12613458   7.349   6.543   2.489  0.7437 -2.3396  2.0879
   67MOL   H12713459   7.253   6.608   2.609  0.2947 -0.9733 -0.0511
   67MOL   H12813460   7.555   6.587   2.638  0.3821 -1.3075  2.3991
   67MOL   H12913461   7.513   6.727   2.959  2.8009 -1.1930 -0.2056
   67MOL   H13013462   7.630   6.660   2.840 -0.1884 -1.6912  0.9207
   67MOL   H13113463   7.526   6.801   2.811 -0.7496 -0.3563 -1.7000
   67MOL   C13213464   7.438   6.418   2.673  0.4391  0.8976 -0.1671
   67MOL   C13313465   7.521   6.348   2.779 -0.1916 -0.7309  0.2643
   67MOL   O13413466   7.457   6.228   2.833 -0.3526 -0.0619  0.0769
   67MOL   C13513467   7.372   6.255   2.944 -0.4335 -0.4468  0.0774
   67MOL   H13613468   7.449   6.367   2.577 -0.3602 -0.3523  0.3974
   67MOL   H13713469   7.335   6.402   2.705  0.2992  0.5568 -0.7649
   67MOL   H13813470   7.549   6.414   2.861  0.7906  1.4929 -1.7994
   67MOL   H13913471   7.298   6.331   2.920  0.8450  1.0717  0.8536
   67MOL   H14013472   7.323   6.159   2.962  0.1356 -1.0729 -1.5456
   67MOL   H14113473   7.417   6.295   3.035 -0.5831  3.5567 -1.5130
   67MOL   C14213474   7.663   6.308   2.724  0.7873 -0.0342  0.1066
   67MOL   C14313475   7.770   6.249   2.821 -0.1066  0.7726  0.1295
   67MOL   O14413476   0.047   6.157   2.767  0.0051  0.1337 -0.1474
   67MOL   C14513477   0.118   6.195   2.653 -0.3700  0.2494  0.4898
   67MOL   H14613478   7.706   6.402   2.690 -2.0186  1.0989 -0.4245
   67MOL   H14713479   7.647   6.243   2.638  0.8217 -0.0843  0.1386
   67MOL   H14813480   7.717   6.198   2.901  2.1613 -0.4727  0.8969
   67MOL   H14913481   0.064   6.249   2.575  1.9177  1.7822 -0.0895
   67MOL   H15013482   0.203   6.258   2.678  1.2041 -1.9592  0.8937
   67MOL   H15113483   0.164   6.102   2.619 -0.0902 -0.1842  2.0164
   67MOL   C15213484   0.045   6.361   2.896 -0.9376  0.1324  0.2369
   67MOL   C15313485   0.126   6.310   3.016  0.2619  0.5278 -0.0806
   67MOL   O15413486   0.194   6.416   3.071  0.3634  0.7627 -0.0373
   67MOL   C15513487   0.332   6.421   3.045  0.5028 -0.4310  0.0678
   67MOL   H15613488   7.784   6.432   2.938 -0.3695  0.6587  0.3183
   67MOL   H15713489   0.109   6.411   2.823 -1.6779  1.3646  0.4274
   67MOL   H15813490   0.181   6.229   2.968 -0.1592 -0.6541  1.3521
   67MOL   H15913491   0.369   6.319   3.055 -0.7465 -1.0633 -1.5190
   67MOL   H16013492   0.373   6.453   2.950  0.4834 -1.8857 -0.4383
   67MOL   H16113493   0.383   6.479   3.122 -0.1934 -1.1070  1.0574
   67MOL   C16213494   0.037   6.256   3.128 -0.2093  0.0938  0.1168
   67MOL   C16313495   0.089   6.152   3.229 -0.0155  0.2568 -0.3091
   67MOL   O16413496   0.148   6.050   3.149  0.3659  0.4155 -0.1151
   67MOL   C16513497   0.061   5.961   3.086  0.0540 -0.0543  0.1310
   67MOL   H16613498   7.753   6.216   3.089 -0.3419  0.8505 -0.3387
   67MOL   H16713499   0.001   6.347   3.176  1.3138  0.9786 -0.3803
   67MOL   H16813500   0.011   6.107   3.290  0.9682 -0.6123  0.3435
   67MOL   H16913501   0.039   5.893   3.168 -0.0410  0.8928  0.9020
   67MOL   H17013502   7.778   6.001   3.046  0.0199 -0.7067 -0.4495
   67MOL   H17113503   0.105   5.891   3.015 -3.2130  0.9126 -3.0322
   67MOL   C17213504   0.190   6.212   3.321 -0.3132 -0.3463 -0.6509
   67MOL   C17313505   0.142   6.319   3.430  0.6397 -0.1862  0.2884
   67MOL   O17413506   0.038   6.268   3.510  0.5953 -0.5479 -0.0804
   67MOL   C17513507   0.057   6.144   3.586  0.0721 -0.2268  0.4468
   67MOL   H17613508   0.261   6.257   3.252 -0.6308  0.1160 -0.6790
   67MOL   H17713509   0.247   6.140   3.381 -1.3527 -0.5423  0.1185
   67MOL   H17813510   0.108   6.409   3.378  0.5202  0.5663  1.6478
   67MOL   H17913511   7.774   6.099   3.619  0.8786 -1.0196  1.6981
   67MOL   H18013512   0.102   6.072   3.518  0.0261  1.4844 -1.4710
   67MOL   H18113513   0.121   6.169   3.670 -0.5798  0.9764  0.6020
   67MOL   C18213514   0.258   6.365   3.521  0.6592 -0.1262 -0.2898
   67MOL   C18313515   0.206   6.471   3.628  0.4884 -0.3119  0.0482
   67MOL   O18413516   0.313   6.488   3.724 -0.2069  0.1483 -0.1495
   67MOL   C18513517   0.290   6.411   3.835 -0.2810 -0.7917 -0.0070
   67MOL   H18613518   0.328   6.411   3.451  1.5073  0.4126  0.9111
   67MOL   H18713519   0.315   6.284   3.568 -2.8057 -1.6612  1.4703
   67MOL   H18813520   0.117   6.436   3.681 -2.0902  0.3736 -3.6401
   67MOL   H18913521   0.377   6.415   3.901 -0.2000  0.7144 -0.1969
   67MOL   H19013522   0.212   6.463   3.891  0.2069  1.9593 -1.7768
   67MOL   H19113523   0.272   6.309   3.799 -2.3706  0.2565 -2.0692
   67MOL   C19213524   0.169   6.609   3.575  0.5734  0.5087 -0.3246
   67MOL   C19313525   0.146   6.721   3.679 -0.4109 -0.0264 -0.6875
   67MOL   O19413526   0.073   6.820   3.603 -0.4742  0.2307 -0.0818
   67MOL   C19513527   0.148   6.907   3.518 -0.3037  0.8166 -0.0246
   67MOL   H19613528   0.091   6.601   3.499  1.6788  1.3419 -1.5754
   67MOL   H19713529   0.263   6.627   3.524  1.3444 -0.5563  0.7163
   67MOL   H19813530   0.235   6.747   3.736 -1.2303  0.6787  0.3045
   67MOL   H19913531   0.134   7.015   3.530  0.0512  0.8638 -0.0436
   67MOL   H20013532   0.253   6.882   3.528 -0.2817  1.6659  1.9752
   67MOL   H20113533   0.125   6.869   3.418 -0.3125 -0.0946  0.3241
   67MOL   H20213534   0.072   6.696   3.755 -0.0012 -0.6755 -0.4999
   68MOL     C113535   1.547   3.232   2.307 -0.6015  0.2234 -0.0804
   68MOL     C213536   1.466   3.145   2.404  0.0225  0.2746 -0.3542
   68MOL     O313537   1.417   3.245   2.499 -0.2340  0.4188  0.0058
   68MOL     C413538   1.383   3.198   2.626  0.2874  0.1963 -0.0059
   68MOL     H513539   1.565   3.179   2.213  0.6084  0.8745 -0.2263
   68MOL     H613540   1.503   3.327   2.278 -0.4206 -0.4592 -2.7213
   68MOL     H713541   1.533   3.078   2.458  1.7381  2.0816 -0.2017
   68MOL     H813542   1.479   3.189   2.676 -0.0632  0.4909  0.7272
   68MOL     H913543   1.324   3.273   2.678  0.9546 -0.2290  1.3681
   68MOL    H1013544   1.327   3.105   2.632  0.4307 -0.1156 -2.7513
   68MOL    H1113545   1.643   3.248   2.356 -1.5518  0.1843  1.8386
   68MOL    C1213546   1.339   3.076   2.340  0.2724  0.6443 -0.3085
   68MOL    C1313547   1.362   2.952   2.256 -0.2019  0.0247 -0.0902
   68MOL    O1413548   1.410   2.994   2.126  0.3201 -0.1282 -0.7251
   68MOL    C1513549   1.313   3.045   2.039  0.4268 -0.4480  0.6608
   68MOL    H1613550   1.289   3.143   2.271 -3.3158 -0.3889  1.1552
   68MOL    H1713551   1.276   3.047   2.424  1.0760  0.7825  0.3547
   68MOL    H1813552   1.263   2.906   2.247  0.1569 -0.5211 -1.3181
   68MOL    H1913553   1.331   3.019   1.935  0.6708  1.1037  0.3023
   68MOL    H2013554   1.223   2.984   2.048  1.4946 -2.1766 -0.0469
   68MOL    H2113555   1.288   3.151   2.042  0.7583 -0.3849  1.2492
   68MOL    C2213556   1.466   2.857   2.306 -0.3229  0.5371  0.0308
   68MOL    C2313557   1.436   2.802   2.449  0.6631  0.1418 -0.1089
   68MOL    O2413558   1.319   2.728   2.438 -0.1139  0.3260  0.5538
   68MOL    C2513559   1.238   2.713   2.554  0.1986 -0.1219  0.4904
   68MOL    H2613560   1.567   2.897   2.306 -0.5678  1.1572  0.4909
   68MOL    H2713561   1.460   2.776   2.233 -1.4062  1.6775 -1.1665
   68MOL    H2813562   1.426   2.892   2.510 -0.2300  0.0665 -0.1401
   68MOL    H2913563   1.143   2.673   2.519 -0.7501  2.3227  0.1127
   68MOL    H3013564   1.272   2.646   2.632 -1.2025 -1.6195 -0.1675
   68MOL    H3113565   1.229   2.805   2.611 -4.8545 -1.0003  1.3172
   68MOL    C3213566   1.542   2.706   2.498  0.2679  0.1065  0.2361
   68MOL    C3313567   1.658   2.775   2.577  0.2515 -0.0009 -0.3121
   68MOL    O3413568   1.606   2.844   2.694  0.6195 -0.0548  0.3046
   68MOL    C3513569   1.660   2.965   2.706 -0.1890 -0.9033 -0.2478
   68MOL    H3613570   1.579   2.650   2.412  0.6520 -1.7241  1.5634
   68MOL    H3713571   1.499   2.626   2.558  0.8064 -0.3669 -0.0017
   68MOL    H3813572   1.695   2.842   2.499 -0.0143 -0.6330 -0.9890
   68MOL    H3913573   1.607   3.026   2.778  1.5589  0.6225 -0.2226
   68MOL    H4013574   1.765   2.962   2.735 -0.3072 -1.6761  0.0978
   68MOL    H4113575   1.652   3.028   2.617 -3.1544 -1.4382 -0.4160
   68MOL    C4213576   1.765   2.677   2.624  0.1984 -0.1715 -0.0489
   68MOL    C4313577   1.722   2.565   2.721  0.1253 -0.7447  0.4445
   68MOL    O4413578   1.806   2.450   2.711 -0.2262  0.1151  0.3619
   68MOL    C4513579   1.774   2.351   2.611 -0.3844 -1.2452 -0.3337
   68MOL    H4613580   1.859   2.724   2.653  0.1059 -1.4119  2.3104
   68MOL    H4713581   1.792   2.629   2.529 -0.4773  0.0207 -0.3425
   68MOL    H4813582   1.624   2.531   2.686 -0.7424  0.5888  1.5056
   68MOL    H4913583   1.774   2.402   2.514  0.1941 -0.8587 -0.1375
   68MOL    H5013584   1.856   2.280   2.600  0.2744 -0.3709 -1.2545
   68MOL    H5113585   1.678   2.307   2.638 -2.1116  1.9732 -0.8763
   68MOL    C5213586   1.705   2.609   2.870 -0.2385 -0.1284  0.2639
   68MOL    C5313587   1.831   2.665   2.941 -0.2749 -0.1362 -0.4419
   68MOL    O5413588   1.855   2.793   2.893  0.5001 -0.1349  0.1351
   68MOL    C5513589   1.986   2.834   2.897 -0.2763  0.4483 -0.0667
   68MOL    H5613590   1.667   2.519   2.920  0.3258 -0.6499 -0.2317
   68MOL    H5713591   1.629   2.687   2.868 -2.6737 -2.4476 -1.0821
   68MOL    H5813592   1.906   2.596   2.904 -1.0718 -1.3794  0.2258
   68MOL    H5913593   2.023   2.841   2.999 -0.2555 -0.6868  0.0106
   68MOL    H6013594   2.046   2.763   2.840 -1.1473  0.6094 -1.2084
   68MOL    H6113595   1.987   2.937   2.860 -0.7376  1.3551  2.3897
   68MOL    C6213596   1.828   2.653   3.093 -0.1531  0.0893 -0.2902
   68MOL    C6313597   1.844   2.519   3.158  0.1671  0.0791 -1.0570
   68MOL    O6413598   1.977   2.464   3.132  0.5844  0.1847 -0.6161
   68MOL    C6513599   1.977   2.339   3.058 -0.2407 -0.8379 -0.0764
   68MOL    H6613600   1.734   2.698   3.125  1.1157  1.7606  1.2682
   68MOL    H6713601   1.909   2.715   3.134 -0.3891 -0.4183  0.9803
   68MOL    H6813602   1.775   2.446   3.117  1.1274 -0.8086 -1.1187
   68MOL    H6913603   2.073   2.287   3.069 -0.2502 -0.4134  2.1917
   68MOL    H7013604   1.899   2.273   3.095 -0.3926 -0.8530 -0.4216
   68MOL    H7113605   1.960   2.374   2.957  2.2712  0.8713  0.0476
   68MOL    C7213606   1.822   2.511   3.310  0.7268 -1.0134  0.2800
   68MOL    C7313607   1.755   2.385   3.364  0.3461  0.1438  0.7234
   68MOL    O7413608   1.772   2.372   3.506  0.1239 -0.0269  0.0898
   68MOL    C7513609   1.795   2.247   3.566 -0.1447  0.2563  0.2138
   68MOL    H7613610   1.766   2.600   3.337  0.7536 -0.9335  0.0731
   68MOL    H7713611   1.921   2.524   3.356  0.1587  0.9502  1.0257
   68MOL    H7813612   1.795   2.299   3.311  0.7656  0.3052  0.7817
   68MOL    H7913613   1.816   2.254   3.672  2.8814  0.2441 -0.3474
   68MOL    H8013614   1.719   2.168   3.558  0.8165 -1.0443  3.1773
   68MOL    H8113615   1.875   2.201   3.509  1.0855  0.1218  2.0240
   68MOL    C8213616   1.601   2.380   3.329  0.0554  0.4280  0.8923
   68MOL    C8313617   1.554   2.248   3.260 -0.0272 -0.6871  0.3908
   68MOL    O8413618   1.555   2.155   3.371  0.6925 -0.9039 -0.0896
   68MOL    C8513619   1.552   2.018   3.326  0.0838  0.2959 -0.8930
   68MOL    H8613620   1.573   2.472   3.278  3.3087  0.3927 -1.1615
   68MOL    H8713621   1.560   2.377   3.429  2.5741 -1.6409  1.9219
   68MOL    H8813622   1.627   2.210   3.188 -2.4790 -3.3192 -0.8306
   68MOL    H8913623   1.616   2.009   3.238  0.7483  0.5324 -0.4341
   68MOL    H9013624   1.593   1.953   3.403 -0.4348 -0.2798 -1.0917
   68MOL    H9113625   1.451   1.994   3.293  0.0591  1.1722 -1.4720
   68MOL    C9213626   1.418   2.275   3.195  0.6714  0.1793 -0.2859
   68MOL    C9313627   1.429   2.327   3.056  0.0856 -0.4893 -0.5897
   68MOL    O9413628   1.472   2.217   2.968  0.2078  0.6680  0.4053
   68MOL    C9513629   1.581   2.256   2.889 -0.2691  0.3126  0.6224
   68MOL    H9613630   1.364   2.344   3.261 -0.3825  0.0087 -0.9566
   68MOL    H9713631   1.360   2.183   3.194  0.7218  0.0906  1.6294
   68MOL    H9813632   1.505   2.405   3.050 -0.0927 -0.3908 -1.6855
   68MOL    H9913633   1.668   2.271   2.952 -0.1187  0.1764  0.4461
   68MOL   H10013634   1.604   2.173   2.822 -1.7722  0.1154  0.3382
   68MOL   H10113635   1.564   2.341   2.822  1.5968  1.0382  1.0486
   68MOL   C10213636   1.300   2.386   2.996  0.0403  0.6343 -0.6253
   68MOL   C10313637   1.262   2.524   3.054 -0.1837 -0.0274 -0.2642
   68MOL   O10413638   1.377   2.601   3.031  0.2889 -0.3706 -0.1613
   68MOL   C10513639   1.371   2.711   3.128  0.7363  0.8558  0.1961
   68MOL   H10613640   1.214   2.320   3.012  2.1019 -1.9387  0.1114
   68MOL   H10713641   1.316   2.400   2.889 -0.7219  3.4504 -0.4195
   68MOL   H10813642   1.234   2.516   3.159  1.4693 -0.1337  0.1730
   68MOL   H10913643   1.278   2.764   3.146 -0.5235 -1.0025 -0.6337
   68MOL   H11013644   1.391   2.666   3.225 -2.5320 -0.1934  0.4281
   68MOL   H11113645   1.444   2.791   3.111  0.7349  0.8984  0.3952
   68MOL   C11213646   1.143   2.591   2.980  0.5393  0.4165  1.1020
   68MOL   C11313647   1.011   2.523   2.996 -0.5369  0.0696 -0.6871
   68MOL   O11413648   0.978   2.545   3.133  0.2946  0.6130  0.3097
   68MOL   C11513649   0.944   2.428   3.210  0.5738 -0.4186  0.6765
   68MOL   H11613650   1.180   2.602   2.878  0.8926  0.6973  1.2603
   68MOL   H11713651   1.146   2.695   3.012  1.6091  0.4998  0.7466
   68MOL   H11813652   1.028   2.419   2.969 -0.6609  0.4191 -2.1583
   68MOL   H11913653   0.933   2.465   3.312  1.4422  0.3466  0.4933
   68MOL   H12013654   0.845   2.403   3.172  0.0578  2.6705 -0.1479
   68MOL   H12113655   1.023   2.352   3.201  0.6810 -0.0985 -1.3005
   68MOL   C12213656   0.897   2.585   2.920  0.1285  0.4076  0.1473
   68MOL   C12313657   0.922   2.576   2.763  0.1794 -0.3573  0.1515
   68MOL   O12413658   0.940   2.438   2.728  0.1148 -0.3974 -0.3955
   68MOL   C12513659   1.011   2.408   2.608  0.1250  0.4227 -0.1204
   68MOL   H12613660   0.871   2.688   2.942  0.5760  0.5912 -0.1802
   68MOL   H12713661   0.803   2.530   2.934 -0.6337  1.9140  1.1315
   68MOL   H12813662   1.013   2.632   2.743 -0.6500  0.9358 -0.0655
   68MOL   H12913663   1.025   2.300   2.598  3.0343  0.7350 -0.0897
   68MOL   H13013664   0.941   2.441   2.531 -2.1125 -0.6855  1.4079
   68MOL   H13113665   1.112   2.450   2.603 -0.3058  1.8332  2.2804
   68MOL   C13213666   0.802   2.631   2.687  0.2097 -0.0239  0.5253
   68MOL   C13313667   0.767   2.782   2.715 -0.3658  0.2957 -0.3371
   68MOL   O13413668   0.883   2.863   2.707 -0.1443 -0.1892  0.4930
   68MOL   C13513669   0.907   2.962   2.811 -0.3741  0.3125 -0.0248
   68MOL   H13613670   0.719   2.560   2.699 -0.0123  0.2328  0.5096
   68MOL   H13713671   0.812   2.625   2.579 -2.7784  1.1851  0.1285
   68MOL   H13813672   0.729   2.786   2.817  0.9579 -2.1651  0.3030
   68MOL   H13913673   0.866   3.060   2.785  0.1957 -0.4108 -3.9603
   68MOL   H14013674   0.870   2.929   2.909  0.3290 -0.7108 -0.1016
   68MOL   H14113675   1.013   2.976   2.832 -0.4922 -0.3946  1.1454
   68MOL   C14213676   0.668   2.852   2.620 -0.2470  0.3099 -0.3997
   68MOL   C14313677   0.524   2.796   2.632 -0.4758  0.3685  0.4724
   68MOL   O14413678   0.469   2.810   2.764 -0.3706 -0.3559  0.1049
   68MOL   C14513679   0.454   2.697   2.838 -0.6642  0.4286 -0.0583
   68MOL   H14613680   0.704   2.857   2.517 -3.2450 -1.4063 -1.6258
   68MOL   H14713681   0.667   2.950   2.665 -2.1979 -0.1487  0.6019
   68MOL   H14813682   0.525   2.691   2.604  0.4024  0.1903  1.1846
   68MOL   H14913683   0.433   2.718   2.943  0.3630  0.8570  0.0664
   68MOL   H15013684   0.367   2.643   2.801 -0.2356  0.0392 -0.5201
   68MOL   H15113685   0.542   2.633   2.830 -1.1990 -0.0254 -2.5330
   68MOL   C15213686   0.423   2.851   2.529  0.4400 -0.4174 -0.2472
   68MOL   C15313687   0.400   3.008   2.529 -0.2540 -1.0627 -0.5161
   68MOL   O15413688   0.504   3.063   2.451 -0.0508  0.3392  0.2200
   68MOL   C15513689   0.565   3.184   2.495 -0.0713  0.9377  0.5291
   68MOL   H15613690   0.328   2.807   2.561  0.7922 -0.5729  0.6047
   68MOL   H15713691   0.436   2.821   2.426  0.3105  1.2867 -0.7861
   68MOL   H15813692   0.404   3.034   2.635 -2.4325 -2.5629 -0.0364
   68MOL   H15913693   0.641   3.210   2.420 -1.4906  0.0255 -1.2646
   68MOL   H16013694   0.497   3.269   2.489 -1.0543  0.2627  2.1425
   68MOL   H16113695   0.629   3.171   2.582  0.3863 -1.3545 -0.1164
   68MOL   C16213696   0.266   3.055   2.478  0.1167  0.3199 -0.0550
   68MOL   C16313697   0.143   3.010   2.553  0.6044  0.2568 -0.1644
   68MOL   O16413698   0.139   3.097   2.669  0.1506 -0.7900  0.6029
   68MOL   C16513699   0.170   3.035   2.789  0.8817 -1.0439  0.3425
   68MOL   H16613700   0.261   3.008   2.379  1.4629  0.2431 -0.0880
   68MOL   H16713701   0.270   3.164   2.472  0.2438  0.2694 -1.0477
   68MOL   H16813702   0.152   2.903   2.573  1.8792  0.5016  0.6397
   68MOL   H16913703   0.242   2.953   2.777  3.3108  1.2186 -1.0835
   68MOL   H17013704   0.203   3.107   2.864 -0.8404 -1.1064  1.1845
   68MOL   H17113705   0.082   2.992   2.838 -0.0871  2.1433  1.4953
   68MOL   C17213706   0.011   3.015   2.478 -0.2402 -0.1416 -0.2716
   68MOL   C17313707   7.709   2.954   2.562  0.2294  0.1039 -0.2803
   68MOL   O17413708   7.592   3.020   2.519  0.5444 -0.6576  0.2575
   68MOL   C17513709   7.533   3.104   2.614 -0.7234  0.2838  0.0168
   68MOL   H17613710   0.021   2.969   2.379 -1.3846 -1.1000  0.0425
   68MOL   H17713711   7.784   3.113   2.449  0.9170 -0.4212 -2.8369
   68MOL   H17813712   7.739   2.981   2.664  2.8509 -0.7190 -0.8066
   68MOL   H17913713   7.605   3.182   2.639 -0.1004  0.4947 -2.2684
   68MOL   H18013714   7.447   3.157   2.573 -0.4546  1.3865  0.8627
   68MOL   H18113715   7.511   3.043   2.702 -0.8497 -0.0999 -0.2750
   68MOL   C18213716   7.688   2.799   2.558 -0.5326  0.4258  0.1602
   68MOL   C18313717   7.559   2.751   2.624 -0.2878 -0.3596 -0.2429
   68MOL   O18413718   7.527   2.612   2.588 -0.4860 -0.3286 -0.3495
   68MOL   C18513719   7.496   2.586   2.455 -0.2601  0.7848 -0.0165
   68MOL   H18613720   7.779   2.749   2.588  0.6447  1.7821 -1.0773
   68MOL   H18713721   7.673   2.788   2.450 -2.0106 -0.2252  0.4158
   68MOL   H18813722   7.480   2.819   2.591 -0.0439  0.9429  1.7904
   68MOL   H18913723   7.578   2.612   2.389  2.0583 -3.4774  1.0043
   68MOL   H19013724   7.475   2.480   2.442 -1.4930  1.0348 -0.2116
   68MOL   H19113725   7.404   2.643   2.440 -1.1062 -0.5994 -0.1959
   68MOL   C19213726   7.577   2.755   2.774  0.5529  0.1785  0.5802
   68MOL   C19313727   7.459   2.717   2.871 -0.3112  0.5449  0.5874
   68MOL   O19413728   7.487   2.766   3.002 -0.1483  0.2058  0.5516
   68MOL   C19513729   7.411   2.701   3.099  0.0508  0.0694 -0.5388
   68MOL   H19613730   7.606   2.859   2.787 -0.3268  0.4940 -0.0264
   68MOL   H19713731   7.667   2.697   2.796  0.5676 -0.6800 -1.6751
   68MOL   H19813732   7.447   2.609   2.862 -1.1488  0.5617  1.4268
   68MOL   H19913733   7.426   2.743   3.198  3.1150 -1.2462 -0.4008
   68MOL   H20013734   7.306   2.709   3.073  0.0964  0.1252 -0.7023
   68MOL   H20113735   7.424   2.593   3.097 -0.5912 -0.0509  1.3202
   68MOL   H20213736   7.362   2.760   2.846 -0.9194 -0.6998  0.7686
   69MOL     C113737   3.238   2.997   3.254 -0.0840  0.6410 -0.1442
   69MOL     C213738   3.388   2.986   3.230 -0.2681  0.1017 -0.5106
   69MOL     O313739   3.427   2.855   3.262  0.5284  0.2976  0.0001
   69MOL     C413740   3.462   2.840   3.398  0.2760  0.1431 -0.0469
   69MOL     H513741   3.215   2.965   3.355 -2.2899 -1.9374 -1.4117
   69MOL     H613742   3.203   3.094   3.219  1.7553  0.6805 -1.9449
   69MOL     H713743   3.438   3.055   3.298 -0.0379  1.4032 -1.9961
   69MOL     H813744   3.444   2.920   3.470  0.4324 -2.1834  2.6640
   69MOL     H913745   3.395   2.760   3.431  0.9749 -0.1965  0.5463
   69MOL    H1013746   3.557   2.789   3.414  0.8615  1.3076  0.2621
   69MOL    H1113747   3.189   2.913   3.205 -0.2665  0.3153  0.5881
   69MOL    C1213748   3.420   3.022   3.086 -0.2248 -0.2328 -0.5261
   69MOL    C1313749   3.570   3.011   3.056  0.5796 -0.3102 -0.2083
   69MOL    O1413750   3.579   2.925   2.941  0.2103  0.3598  0.9281
   69MOL    C1513751   3.594   2.779   2.956  0.1369 -0.8665 -0.0691
   69MOL    H1613752   3.382   3.121   3.060  1.6829  1.3894  2.5286
   69MOL    H1713753   3.361   2.949   3.031 -1.0424  1.1284 -1.4834
   69MOL    H1813754   3.624   2.967   3.140  0.4188  0.6912  0.4233
   69MOL    H1913755   3.648   2.720   2.881  1.9207  1.2106 -0.4821
   69MOL    H2013756   3.649   2.771   3.049 -0.8653  0.3847  0.6450
   69MOL    H2113757   3.497   2.730   2.967 -1.7819  2.5436 -1.0546
   69MOL    C2213758   3.647   3.149   3.022 -0.0467  0.3559 -0.0176
   69MOL    C2313759   3.655   3.244   3.144 -0.5429  0.5735  0.3058
   69MOL    O2413760   3.788   3.217   3.194 -0.1117  0.3169  0.3179
   69MOL    C2513761   3.813   3.267   3.323 -0.3622  0.7398 -0.1860
   69MOL    H2613762   3.580   3.186   2.944  0.3312 -0.5117 -0.7673
   69MOL    H2713763   3.744   3.149   2.973  0.9281 -2.4304  1.8227
   69MOL    H2813764   3.590   3.198   3.219 -1.4299  0.0226 -0.7841
   69MOL    H2913765   3.835   3.374   3.328 -0.2238  0.6077  2.2797
   69MOL    H3013766   3.740   3.226   3.393  1.1005 -1.3156  0.1502
   69MOL    H3113767   3.900   3.217   3.364  1.2880  3.2009 -0.5257
   69MOL    C3213768   3.629   3.396   3.119  0.0851  0.1800  0.2170
   69MOL    C3313769   3.749   3.469   3.055  0.0255  0.5759 -0.4708
   69MOL    O3413770   3.728   3.452   2.916  0.0495  0.1502  0.2796
   69MOL    C3513771   3.848   3.429   2.840 -0.0668 -0.2952 -0.1155
   69MOL    H3613772   3.610   3.435   3.219  3.4243  1.0268  0.5955
   69MOL    H3713773   3.534   3.409   3.068  0.4167  0.5555 -0.3067
   69MOL    H3813774   3.838   3.428   3.101  0.2993 -0.0360 -1.5269
   69MOL    H3913775   3.905   3.340   2.868  1.1522  0.4095 -0.3215
   69MOL    H4013776   3.818   3.421   2.736  0.3598 -0.6915 -0.2114
   69MOL    H4113777   3.905   3.517   2.869 -0.2878 -0.5531  1.1576
   69MOL    C4213778   3.747   3.621   3.068 -0.1006  0.2012  0.2938
   69MOL    C4313779   3.817   3.666   3.202  0.1920  0.2419 -0.4806
   69MOL    O4413780   3.953   3.654   3.179 -0.7509 -0.3556  0.0409
   69MOL    C4513781   4.031   3.614   3.286 -0.1100 -0.0022  0.9689
   69MOL    H4613782   3.642   3.650   3.064  0.0658  0.7961  0.2712
   69MOL    H4713783   3.808   3.671   2.993  0.0635  1.0758  0.9971
   69MOL    H4813784   3.790   3.598   3.283  1.1491  0.4800  0.0440
   69MOL    H4913785   4.020   3.513   3.326 -0.2304 -1.1733 -1.8991
   69MOL    H5013786   4.138   3.628   3.270 -0.8746  1.9802 -2.8106
   69MOL    H5113787   4.004   3.684   3.366  0.7254  1.3198  0.0973
   69MOL    C5213788   3.793   3.814   3.238  0.4111  0.4678  0.1473
   69MOL    C5313789   3.659   3.835   3.317 -0.4178  0.3509  0.3012
   69MOL    O5413790   3.698   3.815   3.458  0.2239  0.2812 -0.8454
   69MOL    C5513791   3.594   3.770   3.544 -0.0002 -0.2722  0.0859
   69MOL    H5613792   3.785   3.864   3.142  2.5708 -0.1587 -0.3858
   69MOL    H5713793   3.874   3.855   3.298  0.9481  0.0649 -0.2975
   69MOL    H5813794   3.582   3.765   3.283 -3.1083  2.0291  2.6916
   69MOL    H5913795   3.566   3.850   3.612  1.6455 -0.3454  0.8898
   69MOL    H6013796   3.511   3.742   3.480  1.2801  1.0929 -2.2331
   69MOL    H6113797   3.627   3.684   3.603  1.0532  2.0751  3.0522
   69MOL    C6213798   3.611   3.981   3.311  0.0764  0.1992  0.2224
   69MOL    C6313799   3.545   4.025   3.171  0.3022  0.4197  0.4615
   69MOL    O6413800   3.429   3.952   3.158  0.1146  0.1162 -0.2581
   69MOL    C6513801   3.376   3.935   3.031  0.2433 -0.5995  0.2395
   69MOL    H6613802   3.695   4.049   3.323  0.5443 -0.6444  2.0536
   69MOL    H6713803   3.543   3.996   3.395 -1.0610  1.8881 -0.9653
   69MOL    H6813804   3.610   3.984   3.094  0.9537 -1.6193  2.0607
   69MOL    H6913805   3.286   3.996   3.031 -1.2673 -2.7291 -1.5034
   69MOL    H7013806   3.437   3.975   2.950  0.0795 -0.4907  0.1703
   69MOL    H7113807   3.346   3.832   3.012 -2.3926  0.3917 -1.2056
   69MOL    C7213808   3.521   4.175   3.166  0.7819 -0.4470  0.4052
   69MOL    C7313809   3.647   4.264   3.128 -0.5344 -0.2698 -0.7349
   69MOL    O7413810   3.680   4.279   2.988 -0.5027  0.0889 -0.3707
   69MOL    C7513811   3.812   4.241   2.950  0.5769 -0.2961  0.0723
   69MOL    H7613812   3.477   4.196   3.263 -0.1205 -1.8544  0.3097
   69MOL    H7713813   3.444   4.204   3.094 -0.7903 -2.3404  1.2999
   69MOL    H7813814   3.731   4.233   3.191 -1.7036  0.6940  1.3372
   69MOL    H7913815   3.837   4.138   2.975 -0.5092 -0.4956  0.3771
   69MOL    H8013816   3.832   4.262   2.845 -3.0375  2.9038 -0.0524
   69MOL    H8113817   3.878   4.301   3.013  0.2453 -0.5198  0.6383
   69MOL    C8213818   3.632   4.409   3.188 -0.4477  0.7262  0.0325
   69MOL    C8313819   3.759   4.498   3.210 -0.7710 -0.2543  0.6233
   69MOL    O8413820   3.712   4.630   3.223  0.0733 -0.1082  0.5487
   69MOL    C8513821   3.705   4.719   3.108  0.0286 -0.0054  0.3572
   69MOL    H8613822   3.589   4.411   3.289  0.1656  1.7250  0.2831
   69MOL    H8713823   3.565   4.459   3.118 -0.1610  0.2244 -0.6080
   69MOL    H8813824   3.829   4.495   3.126  0.2944 -3.9609  1.5212
   69MOL    H8913825   3.643   4.805   3.129 -1.4565 -1.0521  0.3278
   69MOL    H9013826   3.804   4.756   3.079  0.4489 -0.6807  0.9118
   69MOL    H9113827   3.660   4.674   3.020  1.9995  1.5674 -1.5269
   69MOL    C9213828   3.832   4.468   3.348  0.5140 -0.3646  0.2267
   69MOL    C9313829   3.885   4.336   3.386  0.3908 -0.1491  0.0424
   69MOL    O9413830   3.983   4.312   3.287  0.7299  0.0880  0.3434
   69MOL    C9513831   4.032   4.183   3.283 -0.2998 -0.3529  0.5802
   69MOL    H9613832   3.769   4.504   3.429  1.4135  2.5327 -0.3122
   69MOL    H9713833   3.918   4.535   3.355 -2.0111  2.9874 -0.0167
   69MOL    H9813834   3.802   4.266   3.384  1.3544 -1.2659 -1.9361
   69MOL    H9913835   4.124   4.173   3.224  0.4520  2.5697  1.1780
   69MOL   H10013836   4.055   4.133   3.378  1.0532 -0.9680 -0.0481
   69MOL   H10113837   3.962   4.116   3.234 -1.1141  0.6842  0.3239
   69MOL   C10213838   3.950   4.331   3.528  0.0112  0.4756 -0.0154
   69MOL   C10313839   3.844   4.345   3.642  0.6754  0.0115  0.2248
   69MOL   O10413840   3.759   4.231   3.647  0.3232 -0.0405  0.5492
   69MOL   C10513841   3.623   4.264   3.615  0.1720 -0.5354  0.1611
   69MOL   H10613842   4.021   4.414   3.523  0.6019  0.0165  0.6934
   69MOL   H10713843   4.001   4.237   3.544  1.6019  1.2050 -0.6458
   69MOL   H10813844   3.799   4.444   3.634  0.3655 -0.1021  0.5596
   69MOL   H10913845   3.610   4.272   3.507  0.8414  0.2827  0.1362
   69MOL   H11013846   3.570   4.175   3.648  1.3966 -0.4856  2.3760
   69MOL   H11113847   3.586   4.347   3.674 -0.2041  0.1031 -0.9592
   69MOL   C11213848   3.918   4.353   3.778  0.3297  0.0079 -0.4095
   69MOL   C11313849   3.995   4.486   3.796  0.5531  0.3060  0.5142
   69MOL   O11413850   3.896   4.585   3.797  0.4224 -0.0333 -0.3083
   69MOL   C11513851   3.937   4.700   3.728  0.1932  0.5181  0.2645
   69MOL   H11613852   3.978   4.262   3.785  0.2522  0.2040  3.5353
   69MOL   H11713853   3.843   4.349   3.857 -0.5815  1.2019 -1.2005
   69MOL   H11813854   4.059   4.512   3.712 -0.0070 -1.8815 -0.6190
   69MOL   H11913855   3.866   4.778   3.756  1.5584  2.6267 -1.9717
   69MOL   H12013856   4.033   4.746   3.751  1.0484 -1.6053  1.0158
   69MOL   H12113857   3.926   4.673   3.623 -3.0031 -1.1878  0.9842
   69MOL   C12213858   4.075   4.491   3.922  0.3737 -1.0143 -0.7756
   69MOL   C12313859   4.175   4.369   3.934 -0.1508 -0.2262 -0.3351
   69MOL   O12413860   4.274   4.367   3.832 -0.3169 -0.1650 -0.2080
   69MOL   C12513861   4.270   4.251   3.750  0.2007  0.6330 -0.7080
   69MOL   H12613862   4.013   4.502   4.010 -1.0071 -0.1392 -1.8338
   69MOL   H12713863   4.136   4.582   3.927 -0.9116 -0.2732  2.7625
   69MOL   H12813864   4.123   4.274   3.932 -0.3677 -0.1449  1.0797
   69MOL   H12913865   4.242   4.157   3.799  0.0530  0.9318 -0.2198
   69MOL   H13013866   4.217   4.258   3.654  0.0843 -4.0853 -1.1190
   69MOL   H13113867   4.371   4.230   3.717  0.2050  1.0216 -0.9439
   69MOL   C13213868   4.240   4.374   4.079 -0.0014  0.2176  0.3290
   69MOL   C13313869   4.302   4.245   4.132 -0.1853 -0.2162 -0.2300
   69MOL   O13413870   4.398   4.276   4.231 -0.4040  0.0078  0.4810
   69MOL   C13513871   4.525   4.297   4.157  0.7112 -0.0937  0.1687
   69MOL   H13613872   4.158   4.402   4.145 -0.3501 -0.3759  0.1558
   69MOL   H13713873   4.303   4.462   4.090  1.6440 -1.1176  1.7275
   69MOL   H13813874   4.347   4.180   4.057  0.7314 -0.3731  0.4470
   69MOL   H13913875   4.539   4.212   4.091  1.1660  0.8138 -0.9366
   69MOL   H14013876   4.509   4.388   4.098 -0.2493 -1.2296 -1.3455
   69MOL   H14113877   4.608   4.302   4.228  0.4753 -0.1922  0.4507
   69MOL   C14213878   4.202   4.147   4.198  0.3107 -0.0313 -0.1598
   69MOL   C14313879   4.254   4.005   4.226  0.5769  0.2118  0.0860
   69MOL   O14413880   4.261   3.925   4.106 -0.2176  0.4489 -0.3531
   69MOL   C14513881   4.133   3.886   4.049  0.5682  0.9763 -0.0343
   69MOL   H14613882   4.113   4.153   4.134 -0.1033 -0.2679  0.3921
   69MOL   H14713883   4.159   4.185   4.291  2.4267  1.3988  0.2686
   69MOL   H14813884   4.192   3.956   4.301  0.7700 -2.1843 -1.2500
   69MOL   H14913885   4.149   3.834   3.954  0.4586 -2.0276  1.5265
   69MOL   H15013886   4.073   3.813   4.104 -0.7151 -0.0262 -2.6468
   69MOL   H15113887   4.066   3.967   4.021 -2.0762 -1.2476 -0.3863
   69MOL   C15213888   4.390   4.000   4.285  0.4459 -0.7044  0.6591
   69MOL   C15313889   4.443   3.861   4.336 -0.0061  0.4396  0.9397
   69MOL   O15413890   4.581   3.881   4.366 -0.1114 -0.4030 -0.1273
   69MOL   C15513891   4.670   3.845   4.264 -0.4372  0.2006 -0.1311
   69MOL   H15613892   4.386   4.069   4.370 -0.8797 -0.8676  0.7483
   69MOL   H15713893   4.452   4.037   4.204 -0.5516  0.8790  0.5865
   69MOL   H15813894   4.437   3.793   4.251 -0.4471 -0.1997  1.4777
   69MOL   H15913895   4.631   3.871   4.165  0.6014 -3.3327 -1.5306
   69MOL   H16013896   4.768   3.891   4.273  0.6709 -1.8666 -1.4127
   69MOL   H16113897   4.682   3.738   4.275  2.8877  0.2719 -2.4316
   69MOL   C16213898   4.371   3.816   4.463 -0.1888 -0.2302  1.3100
   69MOL   C16313899   4.382   3.673   4.518 -0.1010 -0.4691  0.1815
   69MOL   O16413900   4.316   3.587   4.421  0.0802  0.2650  0.0241
   69MOL   C16513901   4.179   3.561   4.455  0.3721  0.0498  0.0370
   69MOL   H16613902   4.265   3.831   4.442  0.5551  1.9269 -1.0655
   69MOL   H16713903   4.395   3.894   4.535 -1.3466  0.9567  0.4380
   69MOL   H16813904   4.326   3.672   4.612  0.7603  0.7424  0.7178
   69MOL   H16913905   4.163   3.540   4.561 -2.5489  2.4660  0.1531
   69MOL   H17013906   4.111   3.638   4.419 -0.7162 -0.1162  1.6656
   69MOL   H17113907   4.147   3.473   4.400 -0.0464  1.0283 -1.3049
   69MOL   C17213908   4.524   3.625   4.550 -0.3144  0.3800  0.5565
   69MOL   C17313909   4.529   3.483   4.593 -0.0384  0.7597 -0.1916
   69MOL   O17413910   4.664   3.423   4.575  0.9814  0.1828 -0.5052
   69MOL   C17513911   4.710   3.392   4.448  0.2760  0.0373 -0.9839
   69MOL   H17613912   4.569   3.693   4.623  3.0989 -2.1188  0.8496
   69MOL   H17713913   4.573   3.645   4.455 -2.5004 -1.3694 -0.9801
   69MOL   H17813914   4.463   3.431   4.524 -1.0172 -1.3192  2.2522
   69MOL   H17913915   4.643   3.331   4.387 -0.0032 -0.9574  0.3119
   69MOL   H18013916   4.730   3.486   4.397  0.0239  0.6436  0.0193
   69MOL   H18113917   4.804   3.338   4.460 -0.0968 -0.8905 -2.0767
   69MOL   C18213918   4.481   3.453   4.733 -1.2605 -0.3932  0.1344
   69MOL   C18313919   4.497   3.303   4.773  0.5337 -0.6314  0.4646
   69MOL   O18413920   4.560   3.297   4.900  0.0773 -0.6578 -0.7452
   69MOL   C18513921   4.694   3.245   4.893 -0.2825  0.0878  0.9996
   69MOL   H18613922   4.384   3.495   4.761 -0.5775  0.8279  0.7027
   69MOL   H18713923   4.551   3.516   4.789 -1.4219  0.2975 -0.4392
   69MOL   H18813924   4.560   3.256   4.697  0.9298  0.5166  0.0845
   69MOL   H18913925   4.746   3.253   4.988 -0.1966 -2.6230  1.2132
   69MOL   H19013926   4.704   3.143   4.858 -2.2141  0.6892 -1.4514
   69MOL   H19113927   4.759   3.311   4.836 -1.5787 -0.1453 -0.7746
   69MOL   C19213928   4.365   3.231   4.778  0.7601 -0.4687 -0.1103
   69MOL   C19313929   4.383   3.083   4.800  0.5349 -0.3967  0.0573
   69MOL   O19413930   4.259   3.017   4.829  0.2598 -0.5234 -0.2360
   69MOL   C19513931   4.230   2.999   4.967 -0.1695 -0.0991 -0.2363
   69MOL   H19613932   4.301   3.244   4.690 -2.1038  2.6516  2.3038
   69MOL   H19713933   4.297   3.265   4.856 -2.9506 -1.4717 -2.7472
   69MOL   H19813934   4.453   3.067   4.882  1.8126 -0.5138 -1.0347
   69MOL   H19913935   4.129   2.959   4.979  0.0199 -0.7610 -0.8424
   69MOL   H20013936   4.300   2.937   5.022 -0.7516  1.7563  2.6948
   69MOL   H20113937   4.226   3.098   5.012  0.3285  0.2199 -0.8942
   69MOL   H20213938   4.424   3.035   4.710 -1.6256 -1.3462 -0.4782
   70MOL     C113939   3.663   0.506   6.276 -0.0876 -0.3358 -0.7291
   70MOL     C213940   3.673   0.435   6.410  0.0127 -0.2150  0.3309
   70MOL     O313941   3.553   0.372   6.438  0.1134 -0.1618  0.7069
   70MOL     C413942   3.531   0.339   6.571  0.0665  0.6618 -0.2697
   70MOL     H513943   3.568   0.553   6.251 -0.6041 -0.7974  0.3267
   70MOL     H613944   3.743   0.578   6.259 -1.9629  1.8262 -0.5678
   70MOL     H713945   3.698   0.505   6.490 -0.3367  1.0833 -0.6886
   70MOL     H813946   3.504   0.434   6.618  1.9793  1.2047 -0.2428
   70MOL     H913947   3.438   0.282   6.572  1.0469 -0.9716  0.5152
   70MOL    H1013948   3.611   0.290   6.626 -0.5565 -0.1580 -0.0705
   70MOL    H1113949   3.668   0.434   6.193  2.4970 -1.0209 -0.0144
   70MOL    C1213950   3.781   0.330   6.408 -0.3771 -0.1582 -0.1135
   70MOL    C1313951   3.928   0.384   6.369 -0.4615  0.0611  0.1578
   70MOL    O1413952   3.963   0.489   6.454 -1.0585  0.9962  0.2292
   70MOL    C1513953   4.059   0.580   6.404 -0.4275 -1.0479  0.5967
   70MOL    H1613954   3.749   0.257   6.334  0.8100 -0.6107 -0.1913
   70MOL    H1713955   3.797   0.272   6.499  0.0070 -0.5697 -0.4425
   70MOL    H1813956   3.912   0.427   6.270 -2.3779 -0.1042  0.3722
   70MOL    H1913957   4.082   0.659   6.475 -0.1233  0.0765 -0.7398
   70MOL    H2013958   4.160   0.539   6.394 -1.1372 -2.1612 -2.5816
   70MOL    H2113959   4.040   0.636   6.313 -0.3624  0.8960  1.7558
   70MOL    C2213960   4.037   0.273   6.368 -0.1943  0.2562 -0.1817
   70MOL    C2313961   4.022   0.158   6.260  0.0444  0.5483 -1.0856
   70MOL    O2413962   4.057   0.209   6.128 -0.1325 -0.0704  0.2507
   70MOL    C2513963   3.944   0.220   6.051  0.6878 -0.4431 -0.1645
   70MOL    H2613964   4.032   0.237   6.471  2.4301 -0.3887 -0.2338
   70MOL    H2713965   4.135   0.319   6.355 -0.4747  0.5011 -1.4458
   70MOL    H2813966   3.933   0.095   6.254  1.1015 -1.1396  0.4941
   70MOL    H2913967   3.956   0.271   5.956 -2.7383 -0.5526 -0.7137
   70MOL    H3013968   3.921   0.118   6.022 -1.5150  0.5933 -2.2638
   70MOL    H3113969   3.864   0.268   6.108  2.3122  0.6679  1.2235
   70MOL    C3213970   4.138   0.061   6.289 -0.1660 -0.3475 -0.1076
   70MOL    C3313971   4.142   7.749   6.194 -0.4718  0.1566  0.4948
   70MOL    O3413972   4.282   7.712   6.178  0.0359 -0.3794 -0.5173
   70MOL    C3513973   4.335   7.770   6.064 -0.8900  0.2424  0.0787
   70MOL    H3613974   4.134   0.031   6.394 -1.8285 -0.9925 -0.3386
   70MOL    H3713975   4.223   0.128   6.275  0.9575 -1.0837  2.7203
   70MOL    H3813976   4.090   7.778   6.103  1.1657  0.6469 -0.3059
   70MOL    H3913977   4.443   7.762   6.074 -0.6603  1.8127 -0.9511
   70MOL    H4013978   4.295   7.718   5.977 -1.9274 -1.9848  1.8176
   70MOL    H4113979   4.307   0.064   6.049 -0.3410  0.4779  0.6856
   70MOL    C4213980   4.073   7.629   6.255  0.9213  0.1725 -0.2585
   70MOL    C4313981   4.094   7.489   6.180 -0.0422 -0.1440 -0.7047
   70MOL    O4413982   4.028   7.384   6.246 -0.0448 -0.3316 -0.0963
   70MOL    C4513983   4.092   7.343   6.368 -0.0949  0.2701 -0.7458
   70MOL    H4613984   3.968   7.658   6.263  1.1340  0.6844  0.8282
   70MOL    H4713985   4.106   7.630   6.359 -1.6975  1.3154  0.6190
   70MOL    H4813986   4.201   7.467   6.184 -0.0971  0.0033  2.1282
   70MOL    H4913987   4.039   7.254   6.400  0.4236  1.0924  2.5442
   70MOL    H5013988   4.197   7.316   6.360  0.5551  2.0045  1.3307
   70MOL    H5113989   4.091   7.425   6.440 -2.1907  0.2240 -0.6810
   70MOL    C5213990   4.052   7.497   6.032  0.8435 -0.6027 -1.1860
   70MOL    C5313991   3.899   7.512   6.001 -0.0730 -0.1201 -0.4222
   70MOL    O5413992   3.867   7.656   5.999 -0.3465 -0.5142 -0.4251
   70MOL    C5513993   3.745   7.672   6.072  0.1958  0.6811 -0.1605
   70MOL    H5613994   4.087   7.403   5.990 -1.1760 -1.7041 -0.4297
   70MOL    H5713995   4.114   7.572   5.982 -0.9498 -0.3611 -3.1137
   70MOL    H5813996   3.842   7.454   6.074  0.6935 -0.4103 -0.0515
   70MOL    H5913997   3.719   7.778   6.062  1.4360  1.4014  3.5621
   70MOL    H6013998   3.661   7.617   6.029  0.7222 -0.1824 -0.0859
   70MOL    H6113999   3.759   7.638   6.174 -0.0006 -0.3975 -0.4932
   70MOL    C6214000   3.858   7.459   5.860  0.5291 -0.2438  0.7239
   70MOL    C6314001   3.837   7.312   5.841 -0.8025 -0.4753  0.5347
   70MOL    O6414002   3.710   7.264   5.888  0.5705  0.1304  0.5464
   70MOL    C6514003   3.707   7.174   5.993 -0.0938  0.0895  0.1595
   70MOL    H6614004   3.922   7.499   5.782 -1.8944  1.8394 -0.2751
   70MOL    H6714005   3.763   7.510   5.841  1.1341  1.4279  2.0094
   70MOL    H6814006   3.910   7.258   5.901  0.4994 -0.3024 -0.8937
   70MOL    H6914007   3.611   7.129   6.017 -0.1265 -1.2886 -2.3297
   70MOL    H7014008   3.767   7.085   5.971  2.4262  1.7042  0.2801
   70MOL    H7114009   3.742   7.222   6.085  1.2619  0.4022 -0.4992
   70MOL    C7214010   3.854   7.256   5.698 -0.1607 -0.0376  0.2684
   70MOL    C7314011   4.003   7.244   5.655  0.2678  0.2368 -0.6095
   70MOL    O7414012   4.037   7.124   5.717 -0.6277 -0.7813 -0.0463
   70MOL    C7514013   4.172   7.093   5.722  0.6241 -0.1358 -0.7880
   70MOL    H7614014   3.787   7.311   5.632  0.4042  0.1381 -0.1629
   70MOL    H7714015   3.818   7.153   5.691  0.7012 -0.2863 -0.7934
   70MOL    H7814016   4.069   7.328   5.678  1.1407 -0.5763 -0.0898
   70MOL    H7914017   4.196   7.154   5.809  0.0018 -1.1908  0.1544
   70MOL    H8014018   4.181   6.987   5.747  0.4446  0.1142  0.3822
   70MOL    H8114019   4.238   7.104   5.637  0.5482 -2.4341 -1.1935
   70MOL    C8214020   4.023   7.231   5.507 -0.0750 -0.5263 -0.1766
   70MOL    C8314021   3.979   7.352   5.430  0.2281  0.4582  0.7403
   70MOL    O8414022   4.078   7.450   5.432  0.0693 -0.1496 -0.4218
   70MOL    C8514023   4.018   7.572   5.463 -0.2951 -0.4223  0.0537
   70MOL    H8614024   3.957   7.147   5.484  1.6049 -2.0542  0.4246
   70MOL    H8714025   4.124   7.205   5.477  1.6124  0.5874  4.1657
   70MOL    H8814026   3.884   7.388   5.468 -0.0723  0.8713 -0.3853
   70MOL    H8914027   3.939   7.588   5.389  1.0451 -0.8329 -1.5016
   70MOL    H9014028   3.987   7.570   5.567  1.7106 -0.4130  0.6645
   70MOL    H9114029   4.101   7.642   5.469 -0.5665 -0.2240  1.6893
   70MOL    C9214030   3.960   7.319   5.272  0.3735  0.2627 -0.3241
   70MOL    C9314031   3.836   7.236   5.235 -0.1580 -0.1193 -0.1908
   70MOL    O9414032   3.719   7.296   5.297  0.3645  0.9120  0.6362
   70MOL    C9514033   3.643   7.208   5.379  0.1962 -0.2439 -0.4873
   70MOL    H9614034   4.052   7.269   5.242  0.4348  0.9689 -1.3270
   70MOL    H9714035   3.942   7.414   5.222 -0.8873  0.1669 -0.0545
   70MOL    H9814036   3.844   7.134   5.275  1.2948  0.6904  1.6689
   70MOL    H9914037   3.700   7.184   5.469 -0.3195  1.2055  0.2439
   70MOL   H10014038   3.545   7.245   5.411 -0.0882 -0.8599 -0.6526
   70MOL   H10114039   3.631   7.115   5.324 -0.1922 -0.9720  0.8112
   70MOL   C10214040   3.818   7.235   5.085  0.3300 -0.5030 -0.3881
   70MOL   C10314041   3.702   7.141   5.028  0.5311  0.2575  0.3220
   70MOL   O10414042   3.569   7.194   5.047 -0.5168 -0.1334 -0.5493
   70MOL   C10514043   3.542   7.331   5.000 -0.4934 -0.0202  0.5360
   70MOL   H10614044   3.913   7.205   5.042  1.0753  1.0074  0.1611
   70MOL   H10714045   3.796   7.334   5.044 -0.7251 -0.6932 -0.2978
   70MOL   H10814046   3.714   7.050   5.088  0.4376 -0.2738 -0.4627
   70MOL   H10914047   3.543   7.333   4.891  1.8226 -0.3195  0.5162
   70MOL   H11014048   3.436   7.338   5.024  0.1875 -0.0102  3.7467
   70MOL   H11114049   3.601   7.411   5.047 -0.0398 -0.2756  0.4074
   70MOL   C11214050   3.745   7.110   4.879 -0.0355 -1.5826 -0.2451
   70MOL   C11314051   3.654   7.013   4.802  0.3012 -0.0205 -0.1860
   70MOL   O11414052   3.541   7.081   4.740 -0.1745 -0.2317  0.6125
   70MOL   C11514053   3.425   7.060   4.805  0.1828 -0.6704  0.5682
   70MOL   H11614054   3.846   7.069   4.876  0.7147 -0.0044  2.3050
   70MOL   H11714055   3.750   7.198   4.815 -0.7376 -1.4010 -0.0549
   70MOL   H11814056   3.622   6.927   4.860 -1.8452  0.3023 -0.8737
   70MOL   H11914057   3.351   7.113   4.745  1.7935  0.7560 -0.2335
   70MOL   H12014058   3.387   6.960   4.785  2.1108 -1.4945  0.8982
   70MOL   H12114059   3.427   7.085   4.911  1.0925 -2.2051  0.9346
   70MOL   C12214060   3.732   6.941   4.684  0.0970  0.1956 -0.1286
   70MOL   C12314061   3.797   6.798   4.717  0.5575 -1.0934  0.5873
   70MOL   O12414062   3.863   6.758   4.602 -0.2010  0.5756 -0.6327
   70MOL   C12514063   3.776   6.700   4.499  0.2468 -0.2904 -0.1311
   70MOL   H12614064   3.801   7.014   4.642  0.1829  1.2070  1.7205
   70MOL   H12714065   3.659   6.913   4.608 -0.1456 -0.4474  0.3400
   70MOL   H12814066   3.712   6.730   4.726 -0.7476  0.5493  0.7537
   70MOL   H12914067   3.675   6.740   4.489 -0.3353 -1.1053  2.2111
   70MOL   H13014068   3.821   6.701   4.400 -0.3320 -1.4350 -0.4076
   70MOL   H13114069   3.758   6.595   4.522 -1.3809 -0.2150 -0.9687
   70MOL   C13214070   3.899   6.795   4.832 -0.4814 -0.3384  0.1866
   70MOL   C13314071   3.953   6.653   4.871  0.6956 -0.1056  0.5128
   70MOL   O13414072   4.061   6.657   4.974 -0.5221 -0.1792 -0.7602
   70MOL   C13514073   4.158   6.560   4.966 -0.1840 -0.3198 -0.2325
   70MOL   H13614074   3.865   6.854   4.917  0.7521  1.9599 -0.8647
   70MOL   H13714075   3.980   6.856   4.793 -1.0498  0.9286  0.9742
   70MOL   H13814076   3.999   6.606   4.784 -0.5564  0.1483 -0.2888
   70MOL   H13914077   4.209   6.543   4.871  1.4816  0.6886  0.4678
   70MOL   H14014078   4.236   6.570   5.042  0.4642 -0.3028 -0.8877
   70MOL   H14114079   4.108   6.467   4.991 -2.0950  0.6331 -0.3974
   70MOL   C14214080   3.840   6.549   4.921  0.5519 -0.3004 -0.2899
   70MOL   C14314081   3.778   6.453   4.818  0.3027 -0.0478  0.3394
   70MOL   O14414082   3.896   6.377   4.780  0.0454  0.0726 -0.4842
   70MOL   C14514083   3.918   6.355   4.638  0.2270 -0.3226 -0.1014
   70MOL   H14614084   3.763   6.607   4.971  0.8039 -0.1873 -0.0314
   70MOL   H14714085   3.890   6.492   4.998 -1.9868  0.1005  1.7139
   70MOL   H14814086   3.749   6.503   4.725  0.9266  1.3275  0.8732
   70MOL   H14914087   3.845   6.288   4.594 -1.1564  0.0153  1.6290
   70MOL   H15014088   3.945   6.438   4.572 -0.4793  0.1606  0.2091
   70MOL   H15114089   4.014   6.304   4.634 -0.4503 -1.7168  1.0689
   70MOL   C15214090   3.665   6.353   4.880 -0.8230 -0.3388 -0.7282
   70MOL   C15314091   3.539   6.423   4.944 -0.1130 -0.2921  0.1458
   70MOL   O15414092   3.484   6.513   4.842 -0.0292  0.5073  0.3932
   70MOL   C15514093   3.470   6.650   4.877 -0.3042 -0.0005 -0.2250
   70MOL   H15614094   3.712   6.296   4.960 -1.6824  0.7401  0.5754
   70MOL   H15714095   3.639   6.288   4.797  0.6395 -1.5339 -0.2707
   70MOL   H15814096   3.559   6.481   5.034 -1.8382  0.8977 -0.2175
   70MOL   H15914097   3.571   6.690   4.885 -0.1452 -0.6689  1.1755
   70MOL   H16014098   3.427   6.705   4.793  0.5899 -0.2654 -0.8717
   70MOL   H16114099   3.410   6.679   4.963  1.0432  0.4293  0.5932
   70MOL   C16214100   3.428   6.317   4.976  0.4743 -0.4052 -0.8897
   70MOL   C16314101   3.448   6.241   5.111 -0.5510 -0.9428  0.3601
   70MOL   O16414102   3.471   6.337   5.217 -0.0387 -0.4643 -0.6184
   70MOL   C16514103   3.597   6.330   5.290 -0.3645 -0.1125 -0.2062
   70MOL   H16614104   3.429   6.250   4.890 -0.5837 -0.1498 -1.1044
   70MOL   H16714105   3.329   6.359   4.959  0.9424  0.2834 -1.9787
   70MOL   H16814106   3.535   6.177   5.101 -0.8138 -1.3997  0.9983
   70MOL   H16914107   3.595   6.252   5.367 -0.9972 -2.0634 -2.1537
   70MOL   H17014108   3.683   6.316   5.225 -1.5908 -2.7422 -1.3358
   70MOL   H17114109   3.601   6.429   5.335  1.4724  0.8665 -2.4595
   70MOL   C17214110   3.323   6.167   5.153  0.7581  0.1080 -0.5724
   70MOL   C17314111   3.293   6.041   5.063 -0.3313  0.3245  0.4137
   70MOL   O17414112   3.410   5.971   5.035 -0.1171 -0.4793 -0.0593
   70MOL   C17514113   3.431   5.894   4.920  0.5378 -0.2842 -0.0210
   70MOL   H17614114   3.235   6.232   5.157  0.2629 -0.5039 -1.2544
   70MOL   H17714115   3.337   6.124   5.252  0.1715 -0.3110 -0.6645
   70MOL   H17814116   3.260   6.086   4.969  1.2272 -1.5331 -1.0726
   70MOL   H17914117   3.342   5.841   4.886  0.4141 -1.1913  1.7107
   70MOL   H18014118   3.453   5.953   4.830  2.6736  1.6338  1.7145
   70MOL   H18114119   3.514   5.825   4.936 -0.2510 -0.7539  2.1596
   70MOL   C18214120   3.192   5.941   5.124  0.2440  0.2502  0.3156
   70MOL   C18314121   3.044   5.986   5.134 -0.3765  0.1263  0.0189
   70MOL   O18414122   3.003   6.038   5.006 -0.2796  0.0240 -0.0264
   70MOL   C18514123   2.978   6.174   4.991 -0.4712 -0.3136  0.4070
   70MOL   H18614124   3.216   5.914   5.227 -1.0996 -1.6170  0.1716
   70MOL   H18714125   3.196   5.845   5.071 -0.1525  0.3639  0.0777
   70MOL   H18814126   3.031   6.061   5.212  1.4055 -0.4478  0.9057
   70MOL   H18914127   3.058   6.239   5.027  1.2163 -2.9541  1.5329
   70MOL   H19014128   2.975   6.186   4.882  3.9080 -0.7737  0.1511
   70MOL   H19114129   2.890   6.212   5.044  0.9397  1.6756  1.4146
   70MOL   C19214130   2.955   5.866   5.167  0.5313  0.1667  0.0216
   70MOL   C19314131   2.949   5.838   5.314  0.0205 -0.5001  0.5067
   70MOL   O19414132   2.836   5.762   5.334  0.0203  0.2226 -0.7807
   70MOL   C19514133   2.828   5.716   5.470  0.2094 -0.2015 -0.3415
   70MOL   H19614134   2.999   5.786   5.108 -1.1262 -0.0634 -0.9075
   70MOL   H19714135   2.856   5.888   5.129  0.9921  0.9782 -0.7447
   70MOL   H19814136   2.938   5.926   5.378  1.8566  0.2097 -0.1133
   70MOL   H19914137   2.735   5.669   5.504  1.2360 -1.9429  0.1333
   70MOL   H20014138   2.899   5.635   5.486 -1.3455 -1.4123  0.6584
   70MOL   H20114139   2.841   5.794   5.545  0.7997 -0.1400 -0.5097
   70MOL   H20214140   3.045   5.801   5.348  0.7760 -0.0503 -1.1020
   71MOL     C114141   0.856   1.787   6.789 -0.1476 -0.0408 -0.4450
   71MOL     C214142   0.746   1.863   6.862  0.3335 -0.2452  0.6960
   71MOL     O314143   0.620   1.790   6.865 -0.0902  0.1477  0.6503
   71MOL     C414144   0.549   1.791   6.742 -0.1815 -0.3388  0.1830
   71MOL     H514145   0.824   1.753   6.691 -0.3429 -1.0246 -0.0497
   71MOL     H614146   0.946   1.846   6.777 -1.5141  2.2172 -0.0083
   71MOL     H714147   0.729   1.960   6.815  1.5766  0.2192  1.2005
   71MOL     H814148   0.507   1.890   6.724 -0.4851 -0.3581  0.7503
   71MOL     H914149   0.619   1.760   6.664  0.7454 -0.6608  1.1236
   71MOL    H1014150   0.464   1.723   6.748  0.2396 -0.7617  1.5472
   71MOL    H1114151   0.883   1.697   6.844 -0.9154 -0.6008 -0.9657
   71MOL    C1214152   0.803   1.886   7.004 -0.6613 -0.4786 -0.4847
   71MOL    C1314153   0.712   1.980   7.089  0.4390 -0.7974 -0.0076
   71MOL    O1414154   0.753   1.966   7.228 -0.2020 -0.2080 -0.5337
   71MOL    C1514155   0.694   1.864   7.304  0.6447  0.0951  0.0204
   71MOL    H1614156   0.901   1.933   6.997  0.1464 -2.5066 -3.8014
   71MOL    H1714157   0.812   1.789   7.054 -1.4953 -0.4812 -0.3321
   71MOL    H1814158   0.609   1.948   7.078  0.0183  0.2158  0.8843
   71MOL    H1914159   0.585   1.866   7.311  0.5815  0.0133 -0.8829
   71MOL    H2014160   0.716   1.768   7.258 -0.2091 -0.0789 -0.0478
   71MOL    H2114161   0.739   1.860   7.403  0.9661  0.3181 -0.1182
   71MOL    C2214162   0.730   2.129   7.053 -0.4774 -1.2697  0.2803
   71MOL    C2314163   0.602   2.197   7.008 -0.2514  0.4726 -0.4132
   71MOL    O2414164   0.524   2.255   7.114  0.1549 -0.1107  0.0001
   71MOL    C2514165   0.493   2.178   7.229 -0.4777  0.5174 -0.3255
   71MOL    H2614166   0.798   2.153   6.972 -0.4080  0.9836  0.9449
   71MOL    H2714167   0.776   2.180   7.138  1.2717  0.4935 -1.6941
   71MOL    H2814168   0.542   2.123   6.957  0.6381 -0.4039 -0.2042
   71MOL    H2914169   0.455   2.078   7.209 -0.1514  0.3546 -0.1380
   71MOL    H3014170   0.587   2.163   7.282 -0.2893 -0.3616 -0.9009
   71MOL    H3114171   0.420   2.225   7.295 -1.8620  0.2079 -1.6098
   71MOL    C3214172   0.630   2.298   6.894 -0.8691 -0.4396  0.4237
   71MOL    C3314173   0.505   2.372   6.843  0.0944  0.3007 -0.0559
   71MOL    O3414174   0.528   2.503   6.786  0.0637  0.0575  0.1414
   71MOL    C3514175   0.531   2.608   6.887 -0.4784  0.4145  0.2160
   71MOL    H3614176   0.686   2.255   6.811 -3.5380 -1.8686 -0.7214
   71MOL    H3714177   0.693   2.374   6.939 -1.1950  0.5787 -0.8448
   71MOL    H3814178   0.423   2.380   6.915  0.4175 -0.4534  0.4045
   71MOL    H3914179   0.558   2.702   6.840 -0.3536 -0.4720 -1.4992
   71MOL    H4014180   0.443   2.622   6.950 -0.7653 -1.8978  0.3839
   71MOL    H4114181   0.602   2.573   6.963  0.8047  2.3444 -0.0518
   71MOL    C4214182   0.464   2.294   6.712  0.4691 -0.0099 -0.0856
   71MOL    C4314183   0.330   2.336   6.657  0.3192 -0.0328 -0.5367
   71MOL    O4414184   0.336   2.313   6.518 -0.4149 -0.1205 -0.2220
   71MOL    C4514185   0.372   2.434   6.448 -0.1252  0.3150  0.1022
   71MOL    H4614186   0.471   2.185   6.721 -1.3780  0.0148  1.7327
   71MOL    H4714187   0.532   2.302   6.627  0.1163  0.3331 -0.3392
   71MOL    H4814188   0.303   2.439   6.676  0.6568  0.0943 -0.7469
   71MOL    H4914189   0.297   2.504   6.486 -1.7636 -2.1818  1.6405
   71MOL    H5014190   0.474   2.471   6.461 -0.4673  0.9576  1.0795
   71MOL    H5114191   0.342   2.424   6.344  1.3726 -1.2134 -0.1990
   71MOL    C5214192   0.215   2.254   6.714 -0.4637  0.2876 -0.2388
   71MOL    C5314193   0.141   2.300   6.850  0.5079 -0.2110 -0.1284
   71MOL    O5414194   0.090   2.436   6.834  0.1660 -0.1292  0.9041
   71MOL    C5514195   0.104   2.517   6.954  0.0207 -0.0265  0.6819
   71MOL    H5614196   0.242   2.148   6.721 -0.8868  0.1733 -0.3088
   71MOL    H5714197   0.134   2.260   6.642 -0.2056 -1.2975 -0.6979
   71MOL    H5814198   0.214   2.304   6.931  0.3543 -1.5589  0.0807
   71MOL    H5914199   0.029   2.492   7.029  1.8661 -3.6143  1.3888
   71MOL    H6014200   0.207   2.514   6.989  0.6484  1.1040 -0.9761
   71MOL    H6114201   0.078   2.614   6.911 -3.3822 -1.4039 -0.5359
   71MOL    C6214202   0.015   2.214   6.887 -0.0874  0.4521  0.4148
   71MOL    C6314203   0.040   2.063   6.916 -1.0133 -1.4427  0.1363
   71MOL    O6414204   0.158   2.059   7.000 -0.3471 -0.1789 -0.8783
   71MOL    C6514205   0.239   1.935   6.997  0.3648  0.3705 -0.3385
   71MOL    H6614206   7.746   2.227   6.813 -0.8710  0.7409  1.2958
   71MOL    H6714207   7.791   2.257   6.981  2.4586  1.3777  0.9477
   71MOL    H6814208   0.069   2.014   6.822  1.7908 -0.6693  0.5360
   71MOL    H6914209   0.308   1.942   7.081  0.5443 -0.9214 -0.3806
   71MOL    H7014210   0.171   1.850   6.995  2.0923 -1.0093 -1.4956
   71MOL    H7114211   0.295   1.921   6.905  0.2800 -1.9613 -0.0535
   71MOL    C7214212   7.744   1.985   6.995  0.7061 -0.0592  0.0184
   71MOL    C7314213   7.605   1.983   6.934  1.2487  0.0132  0.5151
   71MOL    O7414214   7.602   1.895   6.827  0.0439 -0.1643  0.6192
   71MOL    C7514215   7.589   1.963   6.705  0.0718  0.0580  0.4393
   71MOL    H7614216   7.743   2.036   7.091  0.5227  0.5204 -0.2845
   71MOL    H7714217   7.778   1.890   7.034  0.0727 -0.2074  0.2124
   71MOL    H7814218   7.600   2.086   6.899  0.6607 -0.3113 -0.3633
   71MOL    H7914219   7.493   2.015   6.701  0.3552  0.9067  3.5549
   71MOL    H8014220   7.674   2.026   6.682 -0.2882  0.1630 -0.6351
   71MOL    H8114221   7.592   1.893   6.621  1.1495  1.1699 -0.4629
   71MOL    C8214222   7.494   1.952   7.042 -0.3350  0.2998  0.5780
   71MOL    C8314223   7.456   2.075   7.132  0.0897  0.1828  0.6016
   71MOL    O8414224   7.320   2.078   7.161 -1.0657  0.1890  0.5931
   71MOL    C8514225   7.252   2.141   7.056 -0.0080 -0.3549 -0.0175
   71MOL    H8614226   7.523   1.869   7.106  0.0953  0.5106  0.6615
   71MOL    H8714227   7.406   1.918   6.989  0.1708 -0.9808  0.5272
   71MOL    H8814228   7.488   2.163   7.075  1.6024  1.0199  2.6919
   71MOL    H8914229   7.143   2.133   7.061  0.0434 -1.7456 -0.8371
   71MOL    H9014230   7.262   2.249   7.069  0.3734 -0.5371  1.2990
   71MOL    H9114231   7.293   2.116   6.959  1.7002 -2.3262  1.1702
   71MOL    C9214232   7.528   2.074   7.267 -0.5251  0.1536  0.5342
   71MOL    C9314233   7.546   2.213   7.327  0.4494 -0.2164 -0.4153
   71MOL    O9414234   7.579   2.189   7.465  0.3471 -0.2039  0.0650
   71MOL    C9514235   7.471   2.223   7.555 -0.4661 -0.5080  0.0590
   71MOL    H9614236   7.619   2.015   7.261 -0.8481 -0.6911  3.1187
   71MOL    H9714237   7.461   2.017   7.332 -0.8580 -0.5182 -0.3837
   71MOL    H9814238   7.453   2.270   7.319  0.0510 -0.7855  0.0910
   71MOL    H9914239   7.387   2.155   7.545  0.9216 -2.3517  0.6602
   71MOL   H10014240   7.514   2.210   7.654  1.6629 -1.2591 -0.9303
   71MOL   H10114241   7.437   2.327   7.552  1.8443  0.3811  2.7114
   71MOL   C10214242   7.667   2.286   7.255 -0.1291 -0.6586 -0.2272
   71MOL   C10314243   7.697   2.421   7.323 -0.2145  0.0514 -0.1900
   71MOL   O10414244   0.017   2.471   7.283  0.0302 -0.5497 -0.0643
   71MOL   C10514245   0.113   2.407   7.359  0.5801 -0.0166  0.0964
   71MOL   H10614246   7.647   2.304   7.149 -0.6705  1.3156  0.2018
   71MOL   H10714247   7.755   2.222   7.262  0.5900  0.2065 -1.1338
   71MOL   H10814248   7.704   2.408   7.430  2.7744  0.3977 -0.3225
   71MOL   H10914249   0.104   2.299   7.375  1.2985 -0.6976 -3.7093
   71MOL   H11014250   0.213   2.431   7.324  0.1227  1.7115 -0.0716
   71MOL   H11114251   0.106   2.446   7.461  1.5517 -0.9902  0.5380
   71MOL   C11214252   7.582   2.520   7.298  0.1893 -0.5496  0.1748
   71MOL   C11314253   7.608   2.652   7.391 -0.4575  1.1460 -0.0196
   71MOL   O11414254   7.529   2.757   7.350 -0.0485 -0.0416  0.2327
   71MOL   C11514255   7.565   2.823   7.233 -0.6157  0.3356  0.3519
   71MOL   H11614256   7.481   2.483   7.315 -0.8420  1.2668 -1.8181
   71MOL   H11714257   7.587   2.564   7.198 -1.3324  0.9587  0.7486
   71MOL   H11814258   7.715   2.676   7.393 -0.0122 -0.8546  2.9929
   71MOL   H11914259   7.557   2.770   7.138 -2.1904  2.3518 -0.6621
   71MOL   H12014260   7.507   2.914   7.224  0.8541  1.3379  0.6990
   71MOL   H12114261   7.672   2.842   7.249 -0.5212 -1.9705  2.6769
   71MOL   C12214262   7.541   2.620   7.531  0.1221  0.3576  0.0487
   71MOL   C12314263   7.567   2.735   7.636 -0.0172  0.5262  0.2568
   71MOL   O12414264   7.453   2.755   7.722 -0.5138 -0.4535 -0.1079
   71MOL   C12514265   7.342   2.823   7.667  0.2454 -0.3381  0.0997
   71MOL   H12614266   7.572   2.520   7.563 -1.3840  0.4780  1.9536
   71MOL   H12714267   7.432   2.614   7.526  0.0385  1.7726  0.0056
   71MOL   H12814268   7.595   2.830   7.591  0.6557 -0.1894 -0.8426
   71MOL   H12914269   7.367   2.910   7.608  2.6744 -0.8559  0.3092
   71MOL   H13014270   7.270   2.760   7.614  1.2217 -0.7397 -0.7766
   71MOL   H13114271   7.293   2.865   7.755  0.3558 -0.3869  0.1857
   71MOL   C13214272   7.681   2.690   7.736  0.2802 -0.1144 -0.2056
   71MOL   C13314273   0.006   2.676   7.668 -0.0861  0.4855  0.3522
   71MOL   O13414274   0.034   2.790   7.595 -0.2706 -0.5518  0.3873
   71MOL   C13514275   0.143   2.774   7.499  0.1596  0.1547  0.6818
   71MOL   H13614276   7.645   2.606   7.795  0.3952  0.8221  1.1963
   71MOL   H13714277   7.689   2.771   7.808  2.7905 -0.5043  0.0046
   71MOL   H13814278   7.801   2.599   7.592  1.0965  1.0879 -0.5245
   71MOL   H13914279   0.238   2.744   7.544  0.2462 -1.8830 -0.7918
   71MOL   H14014280   0.126   2.717   7.408  1.3645  0.7744  0.0568
   71MOL   H14114281   0.176   2.869   7.458  1.2735 -1.3078 -1.9023
   71MOL   C14214282   0.115   2.634   7.767 -0.0345  0.3837 -0.5623
   71MOL   C14314283   0.080   2.497   0.020  0.0707  0.2141  0.5991
   71MOL   O14414284   0.071   2.404   7.724 -0.2972  1.1646  0.8742
   71MOL   C14514285   0.011   2.279   7.750  0.9898  0.3936 -0.1590
   71MOL   H14614286   0.141   2.716   0.023 -0.4008 -0.9943  1.3066
   71MOL   H14714287   0.200   2.616   7.701 -2.6778 -2.3543 -3.4055
   71MOL   H14814288   7.797   2.504   0.075  0.2691  3.2474  0.6215
   71MOL   H14914289   0.055   2.216   0.016  0.1258 -2.3233 -1.8217
   71MOL   H15014290   7.716   2.301   7.765  0.9741  1.2851 -1.5017
   71MOL   H15114291   0.020   2.216   7.662  1.1848 -1.9692  1.5063
   71MOL   C15214292   0.192   2.460   0.120  0.0704 -0.4298 -0.9836
   71MOL   C15314293   0.168   2.526   0.255  0.6492 -0.0808  0.0810
   71MOL   O15414294   0.236   2.455   0.362  0.1368  0.5703  0.7941
   71MOL   C15514295   0.179   2.327   0.410  1.2394 -0.4718  0.1122
   71MOL   H15614296   0.291   2.481   0.082  0.1446 -1.4273 -1.3613
   71MOL   H15714297   0.183   2.352   0.131 -2.3889 -0.2025 -0.2876
   71MOL   H15814298   0.066   2.533   0.292  0.9743 -0.3918  1.0481
   71MOL   H15914299   0.085   2.350   0.460  1.7753  0.6265  0.6217
   71MOL   H16014300   0.160   2.251   0.333 -0.1488  0.8909 -0.9204
   71MOL   H16114301   0.248   2.291   0.486 -1.5421 -2.2176  1.9040
   71MOL   C16214302   0.230   2.666   0.266 -0.4215  0.1103 -0.0364
   71MOL   C16314303   0.261   2.720   0.410  0.1707  0.5964 -0.0978
   71MOL   O16414304   0.327   2.846   0.398 -0.3203 -0.2652 -0.2061
   71MOL   C16514305   0.469   2.839   0.388 -0.3257  0.2734 -0.4795
   71MOL   H16614306   0.156   2.730   0.218  1.2841  1.3501 -1.0564
   71MOL   H16714307   0.320   2.680   0.207  0.1934 -0.9771  0.6434
   71MOL   H16814308   0.316   2.647   0.471  1.2056  1.0372 -0.4890
   71MOL   H16914309   0.503   2.801   0.484  0.4034 -0.7066 -1.1079
   71MOL   H17014310   0.488   2.768   0.307  1.6735 -0.4207  0.5599
   71MOL   H17114311   0.512   2.938   0.377  3.8045 -1.2980  0.5187
   71MOL   C17214312   0.125   2.736   0.485  0.1495 -0.7994  0.2027
   71MOL   C17314313   0.135   2.831   0.611 -1.0164  0.7970  0.5044
   71MOL   O17414314   0.015   2.864   0.680 -0.4218 -0.0258 -0.4860
   71MOL   C17514315   7.736   2.942   0.606  0.3808  0.5579  1.0034
   71MOL   H17614316   0.111   2.636   0.526  3.1479 -2.0375 -1.6745
   71MOL   H17714317   0.040   2.765   0.423 -0.9650 -0.8044  1.6788
   71MOL   H17814318   0.191   2.920   0.583  0.6133 -0.1499  0.6595
   71MOL   H17914319   7.780   3.018   0.541  2.0247 -0.9824  0.2457
   71MOL   H18014320   7.673   2.886   0.538  1.5145  1.6864 -1.0172
   71MOL   H18114321   7.670   2.988   0.680 -1.3153  1.1132 -0.8127
   71MOL   C18214322   0.229   2.769   0.722  0.2353  0.9823 -0.6779
   71MOL   C18314323   0.296   2.865   0.819  0.2104  0.1191  0.0283
   71MOL   O18414324   0.323   2.815   0.946 -0.0546  0.1658 -0.1924
   71MOL   C18514325   0.212   2.811   1.035 -0.2019  0.0120  1.2306
   71MOL   H18614326   0.307   2.709   0.676 -0.2143 -1.6253  1.8570
   71MOL   H18714327   0.174   2.694   0.778  1.9550  0.6246  0.5352
   71MOL   H18814328   0.213   2.935   0.829 -0.5021 -0.4448 -1.6279
   71MOL   H18914329   0.118   2.776   0.993 -0.1687 -1.3694  2.2657
   71MOL   H19014330   0.227   2.739   1.116  0.7282 -0.7504  0.3958
   71MOL   H19114331   0.197   2.913   1.070  1.0087 -0.0343  1.9370
   71MOL   C19214332   0.431   2.929   0.766  0.1851 -0.2246 -0.3503
   71MOL   C19314333   0.473   3.069   0.826 -0.7370  0.9738 -0.4749
   71MOL   O19414334   0.367   3.165   0.828 -0.7590  0.7539 -0.0114
   71MOL   C19514335   0.328   3.221   0.703 -0.0527 -0.2494  0.0018
   71MOL   H19614336   0.421   2.941   0.658 -0.0469 -2.0983 -0.5527
   71MOL   H19714337   0.513   2.860   0.784 -0.4117 -0.9915 -0.5228
   71MOL   H19814338   0.565   3.113   0.789 -0.0001  1.6150  2.0370
   71MOL   H19914339   0.274   3.141   0.651 -0.9538 -0.0841  0.6540
   71MOL   H20014340   0.260   3.306   0.711  0.5546  0.1559  0.8412
   71MOL   H20114341   0.415   3.257   0.649 -1.6003 -0.8261 -2.9640
   71MOL   H20214342   0.503   3.054   0.929 -1.2088  0.7490 -0.3670
   72MOL     C114343   0.252   2.935   6.407 -1.3853 -0.1154  0.2071
   72MOL     C214344   0.189   2.929   6.539  0.1223  0.2486  0.5047
   72MOL     O314345   0.254   2.808   6.585  0.6340 -0.3711  0.1595
   72MOL     C414346   0.184   2.743   6.692  0.1341  0.4999 -0.5031
   72MOL     H514347   0.359   2.959   6.403 -1.1473 -0.8662  1.6040
   72MOL     H614348   0.231   2.848   6.345 -0.2042  0.7490 -1.4655
   72MOL     H714349   0.083   2.916   6.520 -0.3513  2.3180  1.4916
   72MOL     H814350   0.081   2.710   6.684 -1.0544  3.8595 -0.2086
   72MOL     H914351   0.232   2.655   6.733 -1.3292 -0.3766 -0.6588
   72MOL    H1014352   0.177   2.808   6.780  0.3619  1.2469 -1.0310
   72MOL    H1114353   0.207   3.016   6.350 -0.2522  0.3584 -0.0406
   72MOL    C1214354   0.223   3.050   6.629  0.1845 -1.1136 -0.3316
   72MOL    C1314355   0.131   3.176   6.602  0.2061  0.0160  0.7539
   72MOL    O1414356   0.138   3.218   6.464  0.1964 -0.2236  0.2731
   72MOL    C1514357   0.102   3.355   6.437 -0.6039 -0.6134  0.0540
   72MOL    H1614358   0.323   3.092   6.615  0.1974 -0.6379  1.0867
   72MOL    H1714359   0.229   3.027   6.736 -2.4250  0.2822  0.1471
   72MOL    H1814360   0.166   3.250   6.673 -0.4471  2.1771 -1.1190
   72MOL    H1914361   0.145   3.424   6.509  1.9899 -0.9836 -1.0912
   72MOL    H2014362   0.137   3.375   6.336  0.4183 -1.6846  0.1819
   72MOL    H2114363   7.804   3.363   6.447 -0.8648  1.1053 -3.4739
   72MOL    C2214364   7.792   3.156   6.628  0.3850 -0.7313 -0.3458
   72MOL    C2314365   7.754   3.113   6.762 -0.0986  0.5919 -0.5327
   72MOL    O2414366   7.801   3.214   6.858  0.0736 -0.4284  0.0775
   72MOL    C2514367   0.007   3.152   6.997  0.5315  0.2120  0.2612
   72MOL    H2614368   7.749   3.088   6.554  0.6072 -1.5492  0.2648
   72MOL    H2714369   7.745   3.253   6.611 -0.3745 -1.2121 -1.0407
   72MOL    H2814370   0.000   3.026   6.794 -1.7641 -0.6129 -0.8350
   72MOL    H2914371   0.079   3.071   6.986  2.0475  1.7426 -1.3112
   72MOL    H3014372   0.032   3.222   7.076 -0.6607  1.0131 -0.0634
   72MOL    H3114373   7.726   3.099   7.023  0.0157 -0.7177 -3.1178
   72MOL    C3214374   7.599   3.098   6.790  0.4957 -0.0025  0.2372
   72MOL    C3314375   7.541   2.959   6.756 -0.1599  0.2221  0.1810
   72MOL    O3414376   7.626   2.867   6.829  0.5208 -0.2313  0.9436
   72MOL    C3514377   7.621   2.730   6.771 -0.6793  0.4830  0.1016
   72MOL    H3614378   7.535   3.157   6.724  0.2834  2.0444  2.2081
   72MOL    H3714379   7.576   3.122   6.894  1.7122 -0.9030  0.7147
   72MOL    H3814380   7.561   2.936   6.651 -0.9356  1.6930 -0.2896
   72MOL    H3914381   7.525   2.682   6.754 -0.0277 -1.0422  0.7007
   72MOL    H4014382   7.679   2.728   6.678  0.8196 -0.8929  1.0550
   72MOL    H4114383   7.676   2.657   6.830  0.7561 -0.0244 -1.8113
   72MOL    C4214384   7.394   2.939   6.806 -0.1174 -0.0769  0.7002
   72MOL    C4314385   7.284   3.000   6.713 -0.0460  0.5614 -0.0555
   72MOL    O4414386   7.290   2.913   6.600 -0.0967  0.0395  0.2089
   72MOL    C4514387   7.249   2.981   6.478 -0.5262 -0.4014 -0.2606
   72MOL    H4614388   7.375   2.953   6.913 -0.5887 -2.3996  0.9456
   72MOL    H4714389   7.383   2.831   6.804  0.0830 -0.1566  2.7634
   72MOL    H4814390   7.309   3.100   6.678 -0.8317  0.4816 -0.8660
   72MOL    H4914391   7.314   3.067   6.457 -2.2609  1.0306  0.1837
   72MOL    H5014392   7.281   2.919   6.394  0.1148 -2.3622  1.3841
   72MOL    H5114393   7.144   3.008   6.476  0.2467  2.8310  0.6999
   72MOL    C5214394   7.149   3.001   6.782 -0.0029  0.0231 -0.3411
   72MOL    C5314395   7.129   3.113   6.876  0.1521  0.1560 -0.4964
   72MOL    O5414396   7.106   3.232   6.802  1.0215  0.0600  0.6338
   72MOL    C5514397   7.180   3.337   6.847 -1.0461 -0.2701  0.1241
   72MOL    H5614398   7.142   2.904   6.831  1.5276 -1.3727 -2.7594
   72MOL    H5714399   7.077   3.013   6.701 -1.2142 -0.0215  0.7202
   72MOL    H5814400   7.214   3.126   6.942 -0.1502 -0.7145  0.0842
   72MOL    H5914401   7.157   3.359   6.951  2.0133  0.5445  0.6752
   72MOL    H6014402   7.286   3.327   6.823 -0.7789  2.8152 -0.1174
   72MOL    H6114403   7.140   3.418   6.786 -1.7877 -0.9740 -0.3566
   72MOL    C6214404   7.005   3.090   6.968 -0.1231 -0.4245  0.0365
   72MOL    C6314405   7.013   2.995   7.083 -0.4863 -0.5058  0.2368
   72MOL    O6414406   7.117   3.023   7.177 -0.7307 -0.1605  0.0518
   72MOL    C6514407   7.212   2.921   7.203  0.4145  0.3494  0.6509
   72MOL    H6614408   6.926   3.069   6.897  1.8039  0.0057 -2.3148
   72MOL    H6714409   6.970   3.185   7.009  1.3526  0.7706 -1.3801
   72MOL    H6814410   7.033   2.897   7.041 -1.6253  0.2133 -2.0470
   72MOL    H6914411   7.305   2.967   7.234  0.0324  1.2503  0.4715
   72MOL    H7014412   7.183   2.848   7.279  2.2968 -2.1032 -0.9127
   72MOL    H7114413   7.229   2.858   7.116 -1.8928  0.3364  0.1630
   72MOL    C7214414   6.876   2.994   7.165  0.2069  0.2202  0.0921
   72MOL    C7314415   6.748   2.949   7.084  0.0100  0.6087  0.4065
   72MOL    O7414416   6.776   2.808   7.052  0.0044 -0.1150  0.6620
   72MOL    C7514417   6.780   2.795   6.908 -0.4777 -0.0741  0.7323
   72MOL    H7614418   6.854   3.091   7.209  1.7401  0.3681  0.5293
   72MOL    H7714419   6.894   2.930   7.251  0.6763 -1.6129 -1.3341
   72MOL    H7814420   6.743   3.018   6.999 -0.0396  0.2542  0.1220
   72MOL    H7914421   6.863   2.848   6.863 -0.6612  0.9810  1.6227
   72MOL    H8014422   6.790   2.688   6.888  2.3435  0.3377 -0.2211
   72MOL    H8114423   6.694   2.837   6.855 -0.1829  0.2525  0.5171
   72MOL    C8214424   6.610   2.940   7.149 -0.3149 -0.5011 -0.0961
   72MOL    C8314425   6.558   3.085   7.174 -0.0357 -0.2198 -0.8545
   72MOL    O8414426   6.512   3.121   7.043 -0.1761 -0.6564 -0.4415
   72MOL    C8514427   6.525   3.254   7.000 -0.5639 -0.3250 -0.1212
   72MOL    H8614428   6.625   2.895   7.247  0.4432  0.7062  0.3459
   72MOL    H8714429   6.542   2.889   7.081 -0.7284  1.1121 -0.9153
   72MOL    H8814430   6.637   3.152   7.208  0.5295 -1.3274  0.0400
   72MOL    H8914431   6.632   3.276   7.011 -0.3754 -1.1200 -0.3279
   72MOL    H9014432   6.486   3.274   6.901  1.7047  0.4314 -0.9004
   72MOL    H9114433   6.476   3.319   7.073  3.0710  0.8740  1.3804
   72MOL    C9214434   6.440   3.095   7.270  0.6985  0.6974 -0.1291
   72MOL    C9314435   6.484   3.144   7.405 -0.1301  0.0494 -0.1876
   72MOL    O9414436   6.513   3.285   7.379  0.6197 -0.4177 -0.3827
   72MOL    C9514437   6.633   3.330   7.423 -0.1503 -0.4513 -0.4815
   72MOL    H9614438   6.393   2.998   7.287  1.4367  0.7915  2.6219
   72MOL    H9714439   6.358   3.158   7.233 -0.8781 -1.5908 -0.6424
   72MOL    H9814440   6.582   3.100   7.422 -1.0193 -1.5734  0.8637
   72MOL    H9914441   6.649   3.315   7.529  0.8731  0.2226 -0.5295
   72MOL   H10014442   6.720   3.285   7.374 -0.1091 -0.8059 -0.0828
   72MOL   H10114443   6.639   3.437   7.400 -1.3726 -0.4072 -0.6078
   72MOL   C10214444   6.378   3.138   7.522 -0.5858  0.1981 -0.1666
   72MOL   C10314445   6.354   3.005   7.592  0.0682  0.1082 -0.1665
   72MOL   O10414446   6.289   2.905   7.511 -0.0081 -0.5336 -0.5860
   72MOL   C10514447   6.157   2.936   7.471  0.2386  0.8464  0.4773
   72MOL   H10614448   6.284   3.177   7.483 -0.3167 -0.4526 -1.4703
   72MOL   H10714449   6.412   3.204   7.602  0.1644 -1.9295  1.3336
   72MOL   H10814450   6.283   3.022   7.673 -1.8715 -0.6038 -1.6871
   72MOL   H10914451   6.117   2.878   7.387  0.4487  1.1860  0.1440
   72MOL   H11014452   6.084   2.925   7.551  0.1131  2.1761  0.5603
   72MOL   H11114453   6.142   3.043   7.457 -0.9691  0.7103  0.6926
   72MOL   C11214454   6.484   2.932   7.645  0.3224  0.1560 -0.0290
   72MOL   C11314455   6.448   2.822   7.748 -0.5102  0.4202 -0.6777
   72MOL   O11414456   6.569   2.755   7.791  0.1386  0.6575  0.4822
   72MOL   C11514457   6.607   2.643   7.713 -0.1187 -0.4139 -0.1170
   72MOL   H11614458   6.558   3.003   7.683 -0.7057  1.1125  0.2205
   72MOL   H11714459   6.541   2.890   7.563 -0.3206  1.2072 -1.0392
   72MOL   H11814460   6.376   2.751   7.707 -1.2489  1.2875 -0.8998
   72MOL   H11914461   6.544   2.555   7.727 -0.5343 -0.0288  0.4451
   72MOL   H12014462   6.618   2.670   7.608  0.9889 -2.1961 -0.4909
   72MOL   H12114463   6.707   2.616   7.747 -0.9905 -1.0203  2.0472
   72MOL   C12214464   6.399   2.885   0.069 -0.5651 -0.9116  0.0404
   72MOL   C12314465   6.244   2.876   0.098 -0.2438 -0.0747  0.1771
   72MOL   O12414466   6.221   2.743   0.145 -0.0320  0.0120 -0.4454
   72MOL   C12514467   6.145   2.655   0.059  0.0084  0.0012  0.1300
   72MOL   H12614468   6.444   2.983   0.085 -0.1773 -0.6615 -2.4371
   72MOL   H12714469   6.457   2.831   0.144  0.3636 -0.1065 -0.0887
   72MOL   H12814470   6.177   2.907   0.017  0.7769  0.6355 -0.4060
   72MOL   H12914471   6.111   2.567   0.114 -0.4621  0.2076  0.1713
   72MOL   H13014472   6.054   2.708   0.029 -0.3874 -0.9004 -0.2971
   72MOL   H13114473   6.202   2.615   7.786  2.2293  1.2120  1.0109
   72MOL   C13214474   6.220   2.969   0.214 -0.6096  0.1220  0.1983
   72MOL   C13314475   6.077   2.964   0.276  0.1686  0.2664 -0.4099
   72MOL   O13414476   6.096   2.960   0.412 -0.2941 -0.7088 -0.9713
   72MOL   C13514477   6.126   2.827   0.471  0.8339 -0.3254  0.2824
   72MOL   H13614478   6.239   3.072   0.184  1.5795 -0.0048  1.0546
   72MOL   H13714479   6.296   2.944   0.289  0.8092  0.6024 -1.0525
   72MOL   H13814480   6.025   2.869   0.262  1.8403 -1.0231  1.7674
   72MOL   H13914481   6.207   2.777   0.419  3.6676  1.3231  2.9677
   72MOL   H14014482   6.147   2.839   0.578 -2.5177  1.4481  0.8146
   72MOL   H14114483   6.043   2.757   0.462 -0.0703  0.8761 -0.8416
   72MOL   C14214484   5.984   3.087   0.255  0.1210  0.0387 -0.2856
   72MOL   C14314485   5.935   3.121   0.113  0.1917  0.0694 -0.3065
   72MOL   O14414486   6.049   3.164   0.054 -0.2917 -0.0673 -0.0753
   72MOL   C14514487   6.028   3.263   7.760 -0.7637 -0.1086  0.5221
   72MOL   H14614488   6.029   3.181   0.287 -0.0009  0.8609 -2.4381
   72MOL   H14714489   5.902   3.082   0.326  1.1952  0.0499  0.9632
   72MOL   H14814490   5.868   3.206   0.128  1.0746  0.7197  0.0144
   72MOL   H14914491   6.115   3.315   7.720  0.5336 -0.6106  2.6131
   72MOL   H15014492   5.976   3.220   7.674  0.1637  1.4456 -0.8456
   72MOL   H15114493   5.955   3.340   7.786 -3.0831 -1.7555 -0.9293
   72MOL   C15214494   5.860   3.012   0.040  0.5431 -0.5343  0.3948
   72MOL   C15314495   5.722   2.974   0.102  0.4873  0.2112  0.2019
   72MOL   O15414496   5.642   3.092   0.093 -0.4485  0.2081  0.4435
   72MOL   C15514497   5.587   3.156   0.213 -0.5258 -0.0249  0.3121
   72MOL   H15614498   5.920   2.923   0.057  1.9034 -0.0118 -1.5014
   72MOL   H15714499   5.865   3.024   7.743 -0.1091 -1.5476  0.2520
   72MOL   H15814500   5.721   2.958   0.210 -1.0025  0.8578  0.3020
   72MOL   H15914501   5.657   3.217   0.270  0.6381 -0.7548 -0.3253
   72MOL   H16014502   5.503   3.222   0.189  0.3275  0.2952 -1.8945
   72MOL   H16114503   5.541   3.079   0.274  0.1042  0.4047  1.3330
   72MOL   C16214504   5.652   2.854   0.038 -0.4523  0.2343  0.3027
   72MOL   C16314505   5.714   2.716   0.064  0.4691  0.5648  0.2001
   72MOL   O16414506   5.684   2.675   0.198 -0.4807  0.0587  0.2878
   72MOL   C16514507   5.780   2.707   0.296  0.7226  0.1744  0.1730
   72MOL   H16614508   5.645   2.870   7.741 -0.5002 -1.4678  0.0476
   72MOL   H16714509   5.557   2.849   0.090 -1.0047  0.2170 -0.6879
   72MOL   H16814510   5.821   2.726   0.045  0.6882 -0.1654  1.0520
   72MOL   H16914511   5.761   2.637   0.378  0.5891  1.0471  0.8935
   72MOL   H17014512   5.879   2.675   0.265  0.5656  0.6141 -0.7948
   72MOL   H17114513   5.775   2.806   0.340  2.2571  0.0327  0.6776
   72MOL   C17214514   5.662   2.597   7.785 -0.5115  0.1890  0.1387
   72MOL   C17314515   5.724   2.595   7.638  0.3893  0.0308  0.2420
   72MOL   O17414516   5.861   2.562   7.656 -0.0447 -1.1437  0.0777
   72MOL   C17514517   5.954   2.601   7.562  0.4325 -0.5667  0.6209
   72MOL   H17614518   5.554   2.609   7.780 -0.5414  0.2836  1.0120
   72MOL   H17714519   5.683   2.502   0.022 -0.5275  0.0341 -0.1586
   72MOL   H17814520   5.705   2.697   7.608  0.2289  0.7609  2.7134
   72MOL   H17914521   5.955   2.704   7.525  2.6968 -0.4789  0.8095
   72MOL   H18014522   6.051   2.566   7.598  0.7864 -1.1291 -0.8603
   72MOL   H18114523   5.920   2.554   7.470 -2.5770  2.7735 -0.0675
   72MOL   C18214524   5.651   2.500   7.543  0.5600  0.0849  0.0389
   72MOL   C18314525   5.502   2.535   7.511  0.1478 -0.5163 -0.2213
   72MOL   O18414526   5.497   2.662   7.439  0.8387  0.3436  0.5289
   72MOL   C18514527   5.381   2.741   7.467 -0.2516 -0.6441  1.0188
   72MOL   H18614528   5.671   2.399   7.578 -2.3642  0.1769  2.1920
   72MOL   H18714529   5.711   2.494   7.452  1.1435  2.9323  0.1900
   72MOL   H18814530   5.439   2.525   7.599 -0.2337 -2.3728 -0.6686
   72MOL   H18914531   5.378   2.840   7.419 -4.4273 -1.2689 -0.2324
   72MOL   H19014532   5.288   2.689   7.449  0.3548 -1.2272 -0.5284
   72MOL   H19114533   5.398   2.768   7.571 -2.2845  0.8424  0.9846
   72MOL   C19214534   5.434   2.429   7.417 -0.3033  0.0421 -0.0596
   72MOL   C19314535   5.398   2.292   7.476  0.2164 -0.2457 -0.4402
   72MOL   O19414536   5.505   2.214   7.516  0.8043  0.1032  0.1933
   72MOL   C19514537   5.464   2.085   7.564 -1.3725 -0.3570 -0.2009
   72MOL   H19614538   5.508   2.400   7.343 -0.9156 -0.9981 -0.2734
   72MOL   H19714539   5.345   2.465   7.366  0.6227  2.3713 -0.1017
   72MOL   H19814540   5.346   2.229   7.404 -0.3371 -0.4884  0.1671
   72MOL   H19914541   5.472   2.017   7.479 -0.0165 -1.1035  0.5142
   72MOL   H20014542   5.539   2.062   7.639 -2.6386 -0.7530  0.9528
   72MOL   H20114543   5.367   2.079   7.611  0.3620 -1.8536  3.3428
   72MOL   H20214544   5.327   2.301   7.558  0.8953 -0.1533  0.1410
   73MOL     C114545   4.649   6.421   2.361  0.1033  0.3174  0.8031
   73MOL     C214546   4.715   6.284   2.338  0.1937 -0.4331 -1.0709
   73MOL     O314547   4.669   6.210   2.454 -0.4370 -0.1158  0.0263
   73MOL     C414548   4.758   6.112   2.495 -0.2861  0.4374 -0.2833
   73MOL     H514549   4.700   6.499   2.305  0.9090  0.7493  2.1491
   73MOL     H614550   4.542   6.418   2.338  0.2196  0.7344  0.1857
   73MOL     H714551   4.824   6.286   2.334  0.1323 -0.8505 -3.3760
   73MOL     H814552   4.736   6.064   2.590 -2.4333 -1.1360 -1.5386
   73MOL     H914553   4.774   6.031   2.423 -2.7221 -0.0702 -0.2736
   73MOL    H1014554   4.854   6.163   2.507 -0.3090  0.6268 -0.8855
   73MOL    H1114555   4.665   6.447   2.465  2.2235 -0.4458  0.6979
   73MOL    C1214556   4.663   6.216   2.204  0.0406  0.2305 -0.6251
   73MOL    C1314557   4.695   6.292   2.076  0.8635 -0.1972 -0.2495
   73MOL    O1414558   4.806   6.229   2.006 -0.4583 -0.5728 -0.4061
   73MOL    C1514559   4.930   6.278   2.052  0.4657  0.8006  0.0802
   73MOL    H1614560   4.557   6.207   2.226  0.2863 -0.2611  0.3903
   73MOL    H1714561   4.695   6.112   2.208  1.3370  0.5910 -1.3874
   73MOL    H1814562   4.713   6.399   2.087 -1.7702  0.1422  1.0379
   73MOL    H1914563   5.012   6.223   2.006  1.2588  1.6293  0.4944
   73MOL    H2014564   4.934   6.387   2.044  1.1117  0.7517 -0.2679
   73MOL    H2114565   4.940   6.251   2.157 -0.0662  1.2110  0.2401
   73MOL    C2214566   4.573   6.284   1.977 -0.8027  0.3530 -0.4563
   73MOL    C2314567   4.586   6.375   1.848 -0.2276  0.1628  0.4665
   73MOL    O2414568   4.510   6.338   1.737 -0.1875 -0.1979  0.5896
   73MOL    C2514569   4.554   6.232   1.664 -0.1625 -0.5801 -0.4410
   73MOL    H2614570   4.478   6.302   2.027 -1.2491 -0.4758 -1.0019
   73MOL    H2714571   4.563   6.180   1.948  0.3262  0.3005 -0.6956
   73MOL    H2814572   4.693   6.372   1.828 -0.5446 -2.0608 -1.0621
   73MOL    H2914573   4.662   6.219   1.671  0.3812  3.3505 -0.1021
   73MOL    H3014574   4.513   6.144   1.712 -1.1020 -0.3788 -0.8736
   73MOL    H3114575   4.524   6.236   1.560  1.1359  0.4207 -0.7949
   73MOL    C3214576   4.545   6.519   1.882 -0.7255 -0.5764 -0.3582
   73MOL    C3314577   4.558   6.625   1.758 -0.3708 -0.2147  0.3146
   73MOL    O3414578   4.528   6.752   1.810  0.1212 -0.1942  0.2943
   73MOL    C3514579   4.474   6.835   1.714 -0.0629 -0.1897 -0.6506
   73MOL    H3614580   4.616   6.553   1.958 -1.6686  2.8887 -0.9185
   73MOL    H3714581   4.443   6.514   1.919  0.0433  1.3252  2.1833
   73MOL    H3814582   4.489   6.592   1.681 -0.2398  0.9117 -0.2951
   73MOL    H3914583   4.479   6.936   1.753  1.2493  0.8828 -3.4948
   73MOL    H4014584   4.504   6.826   1.610 -1.2453  1.1013 -1.1088
   73MOL    H4114585   4.368   6.811   1.706  0.1167 -2.5784  2.7367
   73MOL    C4214586   4.701   6.637   1.689 -0.3240  0.4725 -0.6161
   73MOL    C4314587   4.820   6.668   1.782  0.2001 -0.6033 -0.1356
   73MOL    O4414588   4.941   6.655   1.703 -0.5721 -0.3928  0.2314
   73MOL    C4514589   4.989   6.524   1.688 -0.7359  0.0309 -0.9393
   73MOL    H4614590   4.698   6.723   1.622  4.3947  2.4972  1.5556
   73MOL    H4714591   4.726   6.550   1.628 -0.3645 -0.6294  0.9042
   73MOL    H4814592   4.817   6.596   1.864 -1.2117 -1.4482 -0.9039
   73MOL    H4914593   4.932   6.478   1.607 -2.4933  1.1620 -0.3679
   73MOL    H5014594   5.094   6.523   1.658 -0.7107 -0.0324 -0.8477
   73MOL    H5114595   4.975   6.473   1.783  0.9347 -3.1081 -2.2921
   73MOL    C5214596   4.828   6.811   1.827 -0.4830 -0.1161 -0.1716
   73MOL    C5314597   4.954   6.851   1.915  0.4556  0.2956  0.0618
   73MOL    O5414598   4.958   6.990   1.948 -0.4758  0.2017  0.2045
   73MOL    C5514599   4.986   7.066   1.836 -0.3664 -0.2291  0.1196
   73MOL    H5614600   4.741   6.835   1.889 -0.5792 -0.3126 -0.2304
   73MOL    H5714601   4.817   6.869   1.735  2.5120 -1.0567 -1.1891
   73MOL    H5814602   5.043   6.826   1.857 -0.4316 -1.9717 -0.3602
   73MOL    H5914603   4.910   7.082   1.759 -1.2808  0.7781  1.2245
   73MOL    H6014604   4.993   7.161   1.889  0.0808 -1.1908  1.8210
   73MOL    H6114605   5.085   7.033   1.803  0.3120 -0.0062  1.8769
   73MOL    C6214606   4.942   6.772   2.047 -0.2704 -0.4318 -0.1883
   73MOL    C6314607   5.045   6.800   2.154  0.3103  0.0310 -0.1650
   73MOL    O6414608   5.014   6.729   2.274 -0.5857  0.4156 -0.3594
   73MOL    C6514609   4.915   6.792   2.360  0.3372  0.5879 -0.1001
   73MOL    H6614610   4.934   6.664   2.038 -1.0266 -0.4242  0.3167
   73MOL    H6714611   4.845   6.804   2.085  0.0040 -0.9681  0.9829
   73MOL    H6814612   5.041   6.907   2.173  0.9465 -0.0792  0.6232
   73MOL    H6914613   4.924   6.900   2.358  1.3792  0.5821  2.3253
   73MOL    H7014614   4.814   6.767   2.326  0.4235 -0.7120  0.5678
   73MOL    H7114615   4.919   6.748   2.460 -0.6770  0.0201 -0.3031
   73MOL    C7214616   5.185   6.781   2.110  0.2200 -0.9627  0.4662
   73MOL    C7314617   5.304   6.812   2.202 -0.8404 -0.6541 -0.7330
   73MOL    O7414618   5.431   6.806   2.135  0.1802 -0.5368  0.0087
   73MOL    C7514619   5.473   6.683   2.094  0.4499 -0.4439 -0.5551
   73MOL    H7614620   5.190   6.847   2.024 -0.7258  0.1925  1.2778
   73MOL    H7714621   5.194   6.680   2.070 -0.0249 -0.6739 -0.3180
   73MOL    H7814622   5.307   6.744   2.287 -1.0635  0.8563  0.4914
   73MOL    H7914623   5.551   6.698   2.019 -0.1004  0.2893 -0.9908
   73MOL    H8014624   5.511   6.628   2.180 -2.3196  0.4558  1.2936
   73MOL    H8114625   5.400   6.619   2.045  0.3494 -0.0021 -0.9812
   73MOL    C8214626   5.291   6.962   2.250  0.4969  0.2641 -0.2745
   73MOL    C8314627   5.238   6.984   2.394 -0.1731 -0.1181  0.0674
   73MOL    O8414628   5.337   6.939   2.494 -0.3944 -0.8279  0.0625
   73MOL    C8514629   5.297   6.824   2.570 -0.4754 -0.2054  0.2930
   73MOL    H8614630   5.231   7.019   2.179  1.7631  2.6437  0.5202
   73MOL    H8714631   5.391   7.006   2.253  1.7121 -2.3803 -0.2251
   73MOL    H8814632   5.141   6.935   2.399  0.8936 -2.3157  0.0917
   73MOL    H8914633   5.379   6.790   2.634  0.8630 -1.0910 -1.8115
   73MOL    H9014634   5.209   6.851   2.627 -0.0272  2.4747 -0.2434
   73MOL    H9114635   5.269   6.743   2.502  1.3735  0.0322 -0.7927
   73MOL    C9214636   5.220   7.135   2.434  0.4718  0.2892  0.7950
   73MOL    C9314637   5.111   7.214   2.354  0.3933 -0.1174 -0.4240
   73MOL    O9414638   4.992   7.138   2.375 -0.5687  0.1005 -0.2587
   73MOL    C9514639   4.896   7.148   2.271 -0.3957 -0.3184 -0.1412
   73MOL    H9614640   5.317   7.184   2.432  0.0651  1.0708 -0.6135
   73MOL    H9714641   5.191   7.122   2.539 -0.0972  1.0591  0.7402
   73MOL    H9814642   5.138   7.224   2.249 -0.4602  0.4326 -0.6000
   73MOL    H9914643   4.924   7.077   2.193  1.6004 -0.3697  0.6084
   73MOL   H10014644   4.795   7.121   2.300 -0.9315  0.9950 -0.7424
   73MOL   H10114645   4.902   7.250   2.233 -0.1231 -0.8319 -1.5339
   73MOL   C10214646   5.094   7.348   2.413  0.4620 -0.5831 -0.1153
   73MOL   C10314647   5.213   7.447   2.387 -0.2482  0.3441  0.5133
   73MOL   O10414648   5.224   7.468   2.246  0.2008  0.6275 -0.4802
   73MOL   C10514649   5.354   7.470   2.197 -0.3348 -0.3081  0.1077
   73MOL   H10614650   5.071   7.336   2.519  2.5880 -1.7949  0.2435
   73MOL   H10714651   5.005   7.386   2.363  1.4307 -1.2298 -2.4388
   73MOL   H10814652   5.309   7.408   2.423  0.4403 -0.8219 -2.3650
   73MOL   H10914653   5.402   7.374   2.216  2.1215  0.7534 -0.4928
   73MOL   H11014654   5.359   7.487   2.089  0.6294  0.4038  0.2539
   73MOL   H11114655   5.415   7.538   2.256  2.1586 -2.2772 -0.1428
   73MOL   C11214656   5.187   7.589   2.450  0.1790  0.3154  0.3796
   73MOL   C11314657   5.172   7.591   2.604 -0.2858 -0.4516 -0.4042
   73MOL   O11414658   5.305   7.569   2.660  0.3169  0.8142  0.4988
   73MOL   C11514659   5.307   7.483   2.769  0.1694 -0.5669 -0.0382
   73MOL   H11614660   5.097   7.636   2.411 -1.3185 -2.4521  0.3705
   73MOL   H11714661   5.267   7.651   2.411 -1.0029  1.0964 -0.8501
   73MOL   H11814662   5.103   7.510   2.628 -0.9240  0.2437  0.1309
   73MOL   H11914663   5.409   7.474   2.806  0.2906  1.2943  0.1062
   73MOL   H12014664   5.240   7.526   2.844  1.7299  0.1741  0.9469
   73MOL   H12114665   5.277   7.380   2.751 -0.1122 -0.4615 -0.1704
   73MOL   C12214666   5.120   7.723   2.677  0.8212  0.2026  0.3717
   73MOL   C12314667   4.976   7.767   2.634  0.2057 -0.9283  1.1145
   73MOL   O12414668   4.883   7.670   2.677  0.1983  0.3463 -0.3462
   73MOL   C12514669   4.819   7.594   2.581  0.2574 -0.1428 -0.1866
   73MOL   H12614670   5.190   7.802   2.650 -0.2661  0.6991 -1.1031
   73MOL   H12714671   5.111   7.717   2.785 -0.6204  0.2387  0.2687
   73MOL   H12814672   4.970   7.767   2.525 -0.8121 -2.2155  1.1552
   73MOL   H12914673   4.891   7.541   2.519  0.1523 -0.5132  0.0047
   73MOL   H13014674   4.765   7.519   2.640  0.6886 -0.2391  0.0886
   73MOL   H13114675   4.750   7.649   2.518  0.2856 -1.0405 -1.0102
   73MOL   C13214676   4.939   0.095   2.688 -0.6305 -0.0052 -0.0134
   73MOL   C13314677   4.805   0.165   2.649  0.4779 -0.3949  0.4758
   73MOL   O13414678   4.807   0.293   2.721 -0.8070  0.2521  0.1067
   73MOL   C13514679   4.677   0.351   2.737 -0.3061 -0.1890 -0.3842
   73MOL   H13614680   5.019   0.165   2.667  1.5423 -1.5135  2.8190
   73MOL   H13714681   4.939   0.078   2.796  1.3417 -0.3802 -0.0610
   73MOL   H13814682   4.723   0.102   2.683  2.7855 -3.7790  0.0381
   73MOL   H13914683   4.649   0.421   2.657  0.3004  0.0081 -0.4261
   73MOL   H14014684   4.603   0.272   2.751  1.2421 -1.8223 -1.2291
   73MOL   H14114685   4.679   0.395   2.836 -1.1350  1.6465 -1.1568
   73MOL   C14214686   4.797   0.192   2.491 -0.2310  0.9238 -0.2876
   73MOL   C14314687   4.665   0.148   2.420 -0.5727 -0.2518  0.1507
   73MOL   O14414688   4.561   0.240   2.463 -0.1788 -0.0285 -0.2438
   73MOL   C14514689   4.451   0.171   2.508 -0.3351  0.3842 -0.8767
   73MOL   H14614690   4.881   0.140   2.445 -2.4526 -2.6083 -0.5662
   73MOL   H14714691   4.811   0.297   2.468  2.2280  0.6883  0.0112
   73MOL   H14814692   4.635   0.044   2.435 -1.0975 -0.0642  0.4322
   73MOL   H14914693   4.376   0.236   2.551  1.0337  1.8732 -0.7005
   73MOL   H15014694   4.404   0.119   2.424  0.3350 -0.0236 -1.0109
   73MOL   H15114695   4.477   0.093   2.580 -0.3656  0.5556 -0.6808
   73MOL   C15214696   4.678   0.158   2.265 -0.2371  0.3091 -0.1773
   73MOL   C15314697   4.782   0.065   2.199  0.4241  0.3890  0.5019
   73MOL   O15414698   4.734   7.743   2.217 -0.1625  0.6331  0.2288
   73MOL   C15514699   4.825   7.638   2.211 -1.2150  0.6257 -0.3980
   73MOL   H15614700   4.707   0.261   2.245 -2.2289  1.0425  0.6142
   73MOL   H15714701   4.579   0.141   2.224  0.0501  1.2458 -1.2804
   73MOL   H15814702   4.878   0.078   2.251  0.6485  1.1817 -0.1167
   73MOL   H15914703   4.885   7.619   2.300  1.1976 -0.4537 -2.1992
   73MOL   H16014704   4.767   7.546   2.208  1.8273 -1.3246 -3.0284
   73MOL   H16114705   4.888   7.626   2.123  0.4478  0.6387  0.7724
   73MOL   C16214706   4.812   0.079   2.048 -0.3883 -0.1951 -0.2757
   73MOL   C16314707   4.875   0.207   1.995 -0.1479  0.1395  0.8577
   73MOL   O16414708   5.011   0.202   2.044  0.3467 -0.2646 -0.3429
   73MOL   C16514709   5.062   0.330   2.070 -0.4671  0.0731 -0.4035
   73MOL   H16614710   4.726   0.050   1.987 -0.4274  3.8245 -2.3176
   73MOL   H16714711   4.892   0.014   2.015 -0.5964  0.0820 -1.3575
   73MOL   H16814712   4.825   0.294   2.037 -0.1860  0.0482  0.9997
   73MOL   H16914713   5.027   0.362   2.168 -1.4307 -0.2605 -0.6378
   73MOL   H17014714   5.169   0.316   2.083 -0.2539  2.7087  1.1128
   73MOL   H17114715   5.032   0.405   1.998 -0.9551 -0.4209 -0.7187
   73MOL   C17214716   4.866   0.219   1.846  0.0015 -0.4567 -0.1073
   73MOL   C17314717   4.930   0.102   1.757  0.6793 -0.1099  0.0874
   73MOL   O17414718   4.823   0.004   1.757  1.3227  0.2231 -0.4225
   73MOL   C17514719   4.866   7.683   1.719 -1.0556 -0.7561  0.3907
   73MOL   H17614720   4.894   0.319   1.812  0.0245 -0.0043  1.2112
   73MOL   H17714721   4.758   0.219   1.831  0.0724  1.1138 -0.7466
   73MOL   H17814722   5.023   0.067   1.802  0.7608 -1.7525 -1.3041
   73MOL   H17914723   4.787   7.629   1.666 -0.9157 -1.3828  0.8204
   73MOL   H18014724   4.942   7.694   1.641 -0.6213 -1.3524  0.7324
   73MOL   H18114725   4.917   7.621   1.793  3.3952  2.1474 -0.0536
   73MOL   C18214726   4.962   0.160   1.618 -0.5039  0.0602  0.5219
   73MOL   C18314727   5.077   0.270   1.617 -0.3944 -0.1193  0.5563
   73MOL   O18414728   5.202   0.215   1.667 -0.4538 -0.4310  0.1541
   73MOL   C18514729   5.274   0.289   1.760  0.6277  0.0244 -0.2327
   73MOL   H18614730   4.870   0.210   1.587  0.7993  1.7006 -0.8174
   73MOL   H18714731   4.986   0.084   1.543  0.7218 -0.0596  1.0334
   73MOL   H18814732   5.051   0.349   1.687  1.1155 -0.0109  1.0238
   73MOL   H18914733   5.379   0.264   1.779  0.6832  0.4353  0.0178
   73MOL   H19014734   5.282   0.391   1.723 -0.4189  0.2736  0.2080
   73MOL   H19114735   5.221   0.279   1.855  3.6171 -2.8642  1.2764
   73MOL   C19214736   5.097   0.333   1.476  0.3815  0.3057  0.2603
   73MOL   C19314737   4.972   0.400   1.414 -0.2103  0.3180  0.0608
   73MOL   O19414738   4.931   0.507   1.494 -0.6593 -0.1340 -0.1562
   73MOL   C19514739   4.799   0.548   1.456  0.0720 -0.1753  0.1140
   73MOL   H19614740   5.127   0.246   1.416  1.2973 -0.7944  2.2749
   73MOL   H19714741   5.186   0.395   1.479 -0.4642  1.5037  0.7787
   73MOL   H19814742   4.888   0.335   1.387 -0.1788  0.7383 -1.1013
   73MOL   H19914743   4.761   0.623   1.526 -0.1819 -3.4778  3.7094
   73MOL   H20014744   4.802   0.578   1.352  0.5300  0.9452  0.4436
   73MOL   H20114745   4.729   0.466   1.467  1.1607 -0.8387  2.5380
   73MOL   H20214746   4.999   0.448   1.320  0.2779  0.2769  0.1798
   74MOL     C114747   4.749   7.388   5.058  0.0960  0.2181  0.3374
   74MOL     C214748   4.800   7.445   5.191  0.2471 -0.4959 -0.7461
   74MOL     O314749   4.931   7.502   5.189  0.6093 -0.2986  0.2772
   74MOL     C414750   5.042   7.413   5.165  0.0844  0.4989 -0.6124
   74MOL     H514751   4.817   7.332   4.993 -0.9162  1.0438 -1.4726
   74MOL     H614752   4.659   7.325   5.060  0.7439 -0.7247 -0.1585
   74MOL     H714753   4.793   7.357   5.255 -0.9579 -0.7126 -1.1572
   74MOL     H814754   5.020   7.311   5.197 -1.2442  0.9922  0.1066
   74MOL     H914755   5.051   7.401   5.057 -1.5924  1.6564 -0.9188
   74MOL    H1014756   5.138   7.454   5.198 -1.1155  2.1013  1.0263
   74MOL    H1114757   4.726   7.472   4.992  0.3529 -0.1826 -0.2661
   74MOL    C1214758   4.708   7.562   5.246 -0.0695  0.3340 -0.3243
   74MOL    C1314759   4.560   7.523   5.268 -0.7767 -0.1740 -0.0507
   74MOL    O1414760   4.556   7.447   5.389  0.3575 -0.7968  0.4676
   74MOL    C1514761   4.446   7.351   5.403 -0.0045  0.0132 -0.1247
   74MOL    H1614762   4.702   7.647   5.179 -1.9360  0.9430  0.5734
   74MOL    H1714763   4.763   7.595   5.334  1.4330 -0.5453 -0.9016
   74MOL    H1814764   4.523   7.461   5.187 -0.8710  1.2873 -1.1349
   74MOL    H1914765   4.357   7.405   5.436 -1.5145 -1.8040 -1.0847
   74MOL    H2014766   4.428   7.312   5.303 -1.3369  1.1294 -0.3271
   74MOL    H2114767   4.464   7.280   5.483  1.8664  1.6701  0.9603
   74MOL    C2214768   4.467   7.648   5.276  0.9978  0.0431  0.1920
   74MOL    C2314769   4.497   7.755   5.382 -0.4140  0.9137 -0.1247
   74MOL    O2414770   4.439   0.071   5.342  0.3015  0.1059  0.3379
   74MOL    C2514771   4.537   0.174   5.329 -0.2493  0.3477  0.2632
   74MOL    H2614772   4.365   7.610   5.283  0.9650  0.2003  0.5605
   74MOL    H2714773   4.478   7.696   5.179 -0.6293  0.3386  0.1370
   74MOL    H2814774   4.602   7.769   5.407 -0.4631 -0.3232  0.8407
   74MOL    H2914775   4.513   0.274   5.293  2.3518  0.8317 -0.2229
   74MOL    H3014776   4.575   0.199   5.428  1.5018 -0.7496 -0.1168
   74MOL    H3114777   4.614   0.126   5.269 -0.7199 -0.5772  0.3953
   74MOL    C3214778   4.427   7.721   5.515  0.2791 -0.1756  0.1212
   74MOL    C3314779   4.428   0.023   5.629 -0.2458  0.0547 -0.4169
   74MOL    O3414780   4.350   7.782   5.738 -0.0375 -0.7317 -0.3972
   74MOL    C3514781   4.225   0.044   5.753  0.2902 -0.6704  0.8163
   74MOL    H3614782   4.485   7.639   5.557 -1.5461 -1.0466  1.0116
   74MOL    H3714783   4.322   7.694   5.501  0.0630 -0.8088  2.6622
   74MOL    H3814784   4.408   0.124   5.592  2.7611  0.3898 -1.3053
   74MOL    H3914785   4.152   7.801   5.813  1.1025 -1.4959  1.0863
   74MOL    H4014786   4.257   0.139   5.796  3.1727 -1.0285 -0.4002
   74MOL    H4114787   4.184   0.078   5.658  0.2892 -0.3540  0.9326
   74MOL    C4214788   4.572   0.030   5.692  1.3354  0.1068 -0.2407
   74MOL    C4314789   4.611   0.136   5.806  0.1755  0.9090 -0.0147
   74MOL    O4414790   4.747   0.121   5.845 -0.2109 -0.2175  0.2007
   74MOL    C4514791   4.759   0.063   5.970 -0.1804 -0.2574  0.9218
   74MOL    H4614792   4.642   0.042   5.609  1.2459 -2.6880 -0.7634
   74MOL    H4714793   4.594   7.746   5.740 -1.1824 -0.9332 -1.0248
   74MOL    H4814794   4.533   0.115   5.879  1.0811  0.7340  0.9185
   74MOL    H4914795   4.709   0.121   6.048 -0.5096 -0.8413  1.1437
   74MOL    H5014796   4.709   7.777   5.970 -0.0195 -0.3448 -0.0817
   74MOL    H5114797   4.861   0.064   6.007 -0.2555  0.1060  1.1263
   74MOL    C5214798   4.584   0.275   5.758 -0.1986  0.4113  0.3443
   74MOL    C5314799   4.599   0.388   5.863  0.1336  0.5098  0.6456
   74MOL    O5414800   4.586   0.516   5.803 -0.5147  0.4126 -0.2243
   74MOL    C5514801   4.703   0.593   5.799  0.0293  0.0482 -0.2650
   74MOL    H5614802   4.486   0.280   5.712  0.5937 -1.2305 -1.6075
   74MOL    H5714803   4.645   0.303   5.672 -0.7293 -0.4711 -0.3338
   74MOL    H5814804   4.692   0.382   5.920  0.0742 -0.7005  0.6223
   74MOL    H5914805   4.680   0.698   5.784 -0.3426  0.0090  0.0398
   74MOL    H6014806   4.766   0.593   5.888  0.5999 -1.4392 -0.6518
   74MOL    H6114807   4.767   0.548   5.722  1.4743 -0.3669  1.1547
   74MOL    C6214808   4.485   0.372   5.968 -0.0183  0.2910 -0.2559
   74MOL    C6314809   4.467   0.486   6.071  0.5451  0.1261 -0.4071
   74MOL    O6414810   4.360   0.472   6.156  0.0938  0.2279 -0.2192
   74MOL    C6514811   4.232   0.504   6.102  0.8413 -0.1282 -0.2590
   74MOL    H6614812   4.500   0.283   6.029 -0.9713  0.7046  0.5999
   74MOL    H6714813   4.391   0.361   5.915  0.7233  1.2626 -1.8200
   74MOL    H6814814   4.451   0.567   6.000 -2.3391  0.6983  0.8338
   74MOL    H6914815   4.155   0.492   6.177 -0.4384 -0.1717 -1.5546
   74MOL    H7014816   4.243   0.611   6.085  1.6346 -0.3638 -1.3181
   74MOL    H7114817   4.215   0.449   6.010 -0.3817  0.6100 -0.4902
   74MOL    C7214818   4.588   0.511   6.154 -0.1720 -0.3874 -0.7369
   74MOL    C7314819   4.604   0.654   6.214  0.0575  0.1039  0.1153
   74MOL    O7414820   4.697   0.628   6.321  0.1411  0.4300 -0.0394
   74MOL    C7514821   4.643   0.580   6.444 -0.3152  0.0548  0.5679
   74MOL    H7614822   4.672   0.501   6.085  2.0024  1.7969  1.4708
   74MOL    H7714823   4.596   0.437   6.234 -0.6975 -0.2404 -0.5467
   74MOL    H7814824   4.504   0.686   6.242 -0.1299  0.6095 -1.1034
   74MOL    H7914825   4.674   0.478   6.462  1.3549 -0.5533 -4.9160
   74MOL    H8014826   4.690   0.633   6.527  1.7836  0.4713 -0.8365
   74MOL    H8114827   4.535   0.582   6.454 -0.5376  3.5748 -1.5494
   74MOL    C8214828   4.661   0.759   6.115  0.5456  0.0930  0.1975
   74MOL    C8314829   4.646   0.905   6.160 -0.0873 -0.0495 -0.0043
   74MOL    O8414830   4.510   0.939   6.181  0.0120 -0.5046 -0.0872
   74MOL    C8514831   4.447   0.983   6.058 -0.0557 -0.2074 -0.2598
   74MOL    H8614832   4.613   0.749   6.018  0.3810  0.2842  0.2605
   74MOL    H8714833   4.767   0.740   6.095  0.3344  1.1956 -2.1472
   74MOL    H8814834   4.685   0.971   6.083  0.6715 -0.6270 -0.1166
   74MOL    H8914835   4.463   1.090   6.041 -0.5490 -0.3145 -1.3917
   74MOL    H9014836   4.495   0.937   5.972  1.0024 -0.8988  0.6925
   74MOL    H9114837   4.342   0.957   6.056 -0.3933  1.1268 -0.6269
   74MOL    C9214838   4.732   0.951   6.278  0.8786  0.3415  0.2147
   74MOL    C9314839   4.771   1.098   6.281 -0.1758  0.4320 -0.5118
   74MOL    O9414840   4.834   1.126   6.160  0.0473 -0.1411  0.0510
   74MOL    C9514841   4.972   1.104   6.144 -0.1432  0.1002 -0.0643
   74MOL    H9614842   4.829   0.902   6.269  1.2391  1.3636 -1.5139
   74MOL    H9714843   4.693   0.913   6.373 -0.2354  0.1376 -0.3143
   74MOL    H9814844   4.841   1.107   6.364 -2.9448 -1.6474  2.1821
   74MOL    H9914845   5.015   1.185   6.203 -1.4472  1.9245 -1.5787
   74MOL   H10014846   4.996   1.004   6.180  1.4415  0.9329  1.2707
   74MOL   H10114847   5.000   1.123   6.041  0.8132 -1.1217 -0.0327
   74MOL   C10214848   4.646   1.186   6.307  0.1470  0.4338  0.4678
   74MOL   C10314849   4.566   1.169   6.433  0.8703 -0.0032 -0.2686
   74MOL   O10414850   4.633   1.247   6.532  0.0921  0.6623  0.0618
   74MOL   C10514851   4.723   1.166   6.607 -0.7662 -0.4826 -0.4292
   74MOL   H10614852   4.586   1.180   6.217  0.2998  1.8945  0.2592
   74MOL   H10714853   4.686   1.287   6.294  0.9310 -0.0945 -1.2756
   74MOL   H10814854   4.548   1.062   6.451 -0.9939 -0.0828 -2.4356
   74MOL   H10914855   4.695   1.065   6.636  0.0853  0.2210  3.0991
   74MOL   H11014856   4.823   1.178   6.564 -0.3398  1.9060  1.0852
   74MOL   H11114857   4.745   1.217   6.701 -0.4648  1.1476 -1.3583
   74MOL   C11214858   4.420   1.227   6.424  0.0203  0.0990 -0.4910
   74MOL   C11314859   4.315   1.169   6.521  0.1809 -0.7003  0.5998
   74MOL   O11414860   4.283   1.269   6.619 -0.2156  0.4279  0.5441
   74MOL   C11514861   4.317   1.232   6.756  0.2705 -0.1980  0.1947
   74MOL   H11614862   4.385   1.206   6.323 -4.9065 -1.4530  1.3969
   74MOL   H11714863   4.421   1.336   6.433 -0.3465 -0.0442  1.5860
   74MOL   H11814864   4.361   1.086   6.575  1.4719  0.7841  1.8026
   74MOL   H11914865   4.272   1.306   6.823 -2.2523 -0.9362 -0.6184
   74MOL   H12014866   4.270   1.135   6.772  0.4362  0.1921  3.4438
   74MOL   H12114867   4.421   1.209   6.776  0.1130 -0.6148  0.5632
   74MOL   C12214868   4.182   1.125   6.467  0.4023 -0.1932  0.1922
   74MOL   C12314869   4.202   0.993   6.384  0.3838 -0.2621 -0.3271
   74MOL   O12414870   4.227   0.890   6.477 -0.4847  0.2073  0.2936
   74MOL   C12514871   4.331   0.799   6.431 -0.1105  0.0201  0.2372
   74MOL   H12614872   4.135   1.204   6.407 -2.4953 -1.5750  0.5390
   74MOL   H12714873   4.115   1.106   6.551 -1.5596 -0.6490 -1.4127
   74MOL   H12814874   4.281   1.015   6.313 -1.2208 -0.1293 -2.1261
   74MOL   H12914875   4.345   0.725   6.509 -0.8971  0.4640  0.8051
   74MOL   H13014876   4.288   0.748   6.344 -1.3471  3.0731 -1.0622
   74MOL   H13114877   4.427   0.841   6.402 -0.3910  0.6047  0.1312
   74MOL   C13214878   4.082   0.940   6.301  0.3984  0.1663 -0.3870
   74MOL   C13314879   4.001   1.039   6.217 -0.2752 -0.0345  0.2471
   74MOL   O13414880   4.097   1.108   6.134 -0.0472 -0.3340 -0.2826
   74MOL   C13514881   4.058   1.244   6.107  0.8100 -0.4385  0.1810
   74MOL   H13614882   4.017   0.890   6.373  2.3167 -0.9479  0.5970
   74MOL   H13714883   4.120   0.863   6.235 -1.0478 -0.9160  0.0076
   74MOL   H13814884   3.938   1.106   6.275  1.4172 -0.8573  3.1004
   74MOL   H13914885   4.137   1.300   6.056 -0.5049 -1.1594 -2.7626
   74MOL   H14014886   3.970   1.240   6.043 -0.1753  1.2220  1.4006
   74MOL   H14114887   4.034   1.297   6.199  0.0628  0.4835 -0.5375
   74MOL   C14214888   3.900   0.965   6.124  0.3522  0.0021 -0.0185
   74MOL   C14314889   3.795   0.866   6.187  1.0300 -0.6046 -1.1029
   74MOL   O14414890   3.738   0.945   6.291  0.1797  0.0942  0.0619
   74MOL   C14514891   3.684   0.877   6.405  0.6775  0.3839 -0.4960
   74MOL   H14614892   3.968   0.904   6.065 -0.6144 -1.1568  0.0567
   74MOL   H14714893   3.851   1.041   6.062 -1.3022 -0.9649  0.0823
   74MOL   H14814894   3.841   0.777   6.229 -0.6839  0.0702  2.4187
   74MOL   H14914895   3.647   0.940   6.486  0.4952 -0.5856  0.1971
   74MOL   H15014896   3.607   0.806   6.374 -0.6373  1.1904  0.8623
   74MOL   H15114897   3.759   0.807   6.443  0.9407  0.2553 -1.2449
   74MOL   C15214898   3.688   0.827   6.086 -0.0320 -1.2652  0.3112
   74MOL   C15314899   3.727   0.740   5.967 -0.3480  0.6079  0.2757
   74MOL   O15414900   3.789   0.615   6.000 -0.0611 -0.0938 -0.1339
   74MOL   C15514901   3.931   0.604   6.006 -1.1442 -0.7219  0.0548
   74MOL   H15614902   3.635   0.918   6.059 -0.3992 -2.1701 -2.1665
   74MOL   H15714903   3.612   0.778   6.147 -0.3609 -0.9325  0.1664
   74MOL   H15814904   3.800   0.794   5.908  1.8280 -1.1340  1.2807
   74MOL   H15914905   3.964   0.652   5.914 -0.9714 -2.0060 -0.5696
   74MOL   H16014906   3.978   0.658   6.088  1.9856 -2.1199 -0.7255
   74MOL   H16114907   3.972   0.503   6.004 -1.0532 -0.6809 -0.1140
   74MOL   C16214908   3.596   0.706   5.891  0.3159  0.4177 -0.1669
   74MOL   C16314909   3.612   0.619   5.769  1.0270 -0.0733  0.5247
   74MOL   O16414910   3.474   0.608   5.718  0.9646  0.2564 -0.2811
   74MOL   C16514911   3.440   0.470   5.720  0.2681  0.7633  0.1518
   74MOL   H16614912   3.545   0.801   5.874  2.9164  2.5177  3.0424
   74MOL   H16714913   3.526   0.651   5.953  0.4818 -0.3424 -0.6423
   74MOL   H16814914   3.647   0.522   5.804 -0.5094 -1.8824 -2.7006
   74MOL   H16914915   3.426   0.431   5.821  3.8600 -1.3633 -0.0581
   74MOL   H17014916   3.342   0.452   5.676  0.3379  1.1490 -0.1598
   74MOL   H17114917   3.505   0.402   5.665  2.0909  2.3732  0.2589
   74MOL   C17214918   3.715   0.679   5.670  0.9035 -0.0457  0.0104
   74MOL   C17314919   3.782   0.568   5.583 -0.2297 -0.1788  0.0784
   74MOL   O17414920   3.840   0.637   5.470 -0.6003 -0.2698 -0.2556
   74MOL   C17514921   3.750   0.664   5.361  0.2877  0.4012 -0.7185
   74MOL   H17614922   3.792   0.747   5.706 -1.8416  2.7863  0.6857
   74MOL   H17714923   3.658   0.745   5.604  2.9596  2.7657  0.9583
   74MOL   H17814924   3.716   0.484   5.559  1.8163 -2.0737  0.8891
   74MOL   H17914925   3.712   0.575   5.310 -0.1271 -0.1530  0.5376
   74MOL   H18014926   3.660   0.718   5.392  1.2581  1.6122  0.0629
   74MOL   H18114927   3.786   0.729   5.281  0.4738 -0.2323 -1.1439
   74MOL   C18214928   3.896   0.506   5.666  0.4433 -0.1614 -0.3281
   74MOL   C18314929   3.971   0.392   5.597  0.0507  0.0104  0.1677
   74MOL   O18414930   4.087   0.363   5.679 -0.5868 -0.2174 -0.1510
   74MOL   C18514931   4.205   0.434   5.640  1.0764 -0.4329 -0.1680
   74MOL   H18614932   3.867   0.477   5.767 -0.9145 -0.7722 -0.8890
   74MOL   H18714933   3.967   0.587   5.679 -0.0940  0.1147  0.9702
   74MOL   H18814934   4.020   0.422   5.504 -0.0957  1.6885  0.6099
   74MOL   H18914935   4.288   0.424   5.711 -0.0369 -0.3395  1.1824
   74MOL   H19014936   4.243   0.404   5.543  0.2976  2.9085 -1.5622
   74MOL   H19114937   4.190   0.542   5.633  0.7766 -0.4824 -0.2709
   74MOL   C19214938   3.887   0.265   5.574 -0.1512 -0.4175 -0.6129
   74MOL   C19314939   3.810   0.214   5.698 -0.6039 -0.0154 -0.0419
   74MOL   O19414940   3.711   0.114   5.650  0.1832 -0.4535 -0.1111
   74MOL   C19514941   3.766   7.792   5.638  0.0093 -0.1855  0.2273
   74MOL   H19614942   3.955   0.185   5.548  0.7021  0.3187 -0.6768
   74MOL   H19714943   3.816   0.278   5.492  0.5233  0.7461 -1.0305
   74MOL   H19814944   3.749   0.293   5.743 -0.9548  0.4281 -1.2726
   74MOL   H19914945   3.839   7.783   5.557 -1.9318  1.4830 -1.7556
   74MOL   H20014946   3.803   7.749   5.731  0.3470 -1.3784 -0.4383
   74MOL   H20114947   3.694   7.727   5.588 -0.7603  1.3757 -0.6993
   74MOL   H20214948   3.867   0.174   5.782 -0.4774  0.6669  0.1995
   75MOL     C114949   5.408   5.407   4.956 -0.1411  0.5020  0.2120
   75MOL     C214950   5.256   5.423   4.942  0.6224  0.6541 -0.0724
   75MOL     O314951   5.214   5.328   4.842 -0.1061 -0.6499  0.1856
   75MOL     C414952   5.094   5.358   4.778 -0.5085  0.3313 -0.1677
   75MOL     H514953   5.449   5.321   5.008  1.3080  1.7987  1.2824
   75MOL     H614954   5.451   5.425   4.857  2.3523  1.5440  1.4243
   75MOL     H714955   5.234   5.528   4.922 -1.9832  0.8243  3.2361
   75MOL     H814956   5.058   5.286   4.704 -1.5160  2.6347 -2.0045
   75MOL     H914957   5.005   5.358   4.841  1.4698 -3.0928  2.7899
   75MOL    H1014958   5.104   5.454   4.727  0.0078  0.3303 -0.0746
   75MOL    H1114959   5.450   5.494   5.007  0.3414  0.2656  0.2231
   75MOL    C1214960   5.187   5.388   5.072 -0.3851  0.1138  0.1959
   75MOL    C1314961   5.198   5.478   5.195  0.1194  0.1518  1.1958
   75MOL    O1414962   5.321   5.479   5.251  0.4132  0.2137 -0.4529
   75MOL    C1514963   5.386   5.353   5.278  0.1306 -0.3455 -0.6888
   75MOL    H1614964   5.205   5.284   5.100 -3.7790 -0.0549  2.1006
   75MOL    H1714965   5.080   5.388   5.050 -0.9245 -0.4661  2.7068
   75MOL    H1814966   5.139   5.426   5.271 -1.7043 -0.1034 -0.3801
   75MOL    H1914967   5.412   5.290   5.193 -0.0553  1.3917 -2.0639
   75MOL    H2014968   5.474   5.367   5.341 -0.2242 -0.9183 -0.0611
   75MOL    H2114969   5.321   5.291   5.339  0.5687  0.4409  0.5946
   75MOL    C2214970   5.149   5.616   5.170 -0.6352  0.4644  0.1736
   75MOL    C2314971   5.000   5.623   5.176  0.1749  0.0915 -0.0388
   75MOL    O2414972   4.973   5.607   5.317  0.3618  0.5849  0.0903
   75MOL    C2514973   4.855   5.534   5.354  0.0990  0.3882 -0.0549
   75MOL    H2614974   5.196   5.664   5.084  0.9606  4.0390  2.9113
   75MOL    H2714975   5.195   5.667   5.255  2.1206  0.6233 -1.3548
   75MOL    H2814976   4.946   5.542   5.127  0.5138 -0.7603  0.9892
   75MOL    H2914977   4.853   5.527   5.463  2.0541  1.5869  0.0929
   75MOL    H3014978   4.766   5.591   5.328 -0.8344 -0.9040  0.2753
   75MOL    H3114979   4.849   5.431   5.319 -1.2173  0.3547  0.2439
   75MOL    C3214980   4.942   5.760   5.133 -0.6091 -0.5222 -0.5608
   75MOL    C3314981   4.976   5.800   4.986  0.0941 -0.3137  0.1124
   75MOL    O3414982   4.958   5.696   4.891  0.9561  0.2824  0.3351
   75MOL    C3514983   4.821   5.646   4.866  0.4700 -0.2787 -0.8766
   75MOL    H3614984   4.979   5.850   5.184  1.8790 -1.5255 -0.5049
   75MOL    H3714985   4.834   5.757   5.140 -0.4738 -0.4970  2.0938
   75MOL    H3814986   5.078   5.830   4.961  0.2077 -2.0892 -1.6712
   75MOL    H3914987   4.775   5.618   4.960  0.4572  0.1992 -0.7413
   75MOL    H4014988   4.761   5.722   4.817  0.5739 -0.4212 -1.2268
   75MOL    H4114989   4.835   5.555   4.806  0.1580 -0.4056 -0.7593
   75MOL    C4214990   4.899   5.921   4.928  0.2883 -0.2747 -0.0286
   75MOL    C4314991   4.957   6.064   4.961 -0.5304  0.7990 -0.3543
   75MOL    O4414992   4.948   6.077   5.099  0.1038  0.4018  0.3602
   75MOL    C4514993   4.953   6.206   5.160 -0.0674  0.9363  0.1212
   75MOL    H4614994   4.797   5.920   4.969  0.0003 -0.9658 -0.7361
   75MOL    H4714995   4.891   5.900   4.821  1.5696  1.2410 -0.4201
   75MOL    H4814996   4.880   6.135   4.928 -0.9363  0.8518  0.7032
   75MOL    H4914997   4.979   6.208   5.266  1.1463  2.3577 -0.1765
   75MOL    H5014998   5.038   6.259   5.116 -1.8583  3.0965 -0.8685
   75MOL    H5114999   4.863   6.261   5.131 -0.2488  1.1751  1.1187
   75MOL    C5215000   5.095   6.089   4.893 -1.0589  0.7435  0.0454
   75MOL    C5315001   5.093   6.114   4.741  0.4494 -0.1304 -0.5796
   75MOL    O5415002   5.111   6.252   4.700 -0.1651 -0.4293  0.6423
   75MOL    C5515003   5.002   6.336   4.739 -0.2541 -0.2559  0.7574
   75MOL    H5615004   5.167   6.012   4.920 -2.2415 -1.8785 -3.9469
   75MOL    H5715005   5.142   6.172   4.947 -0.0214 -0.6467  1.3136
   75MOL    H5815006   5.008   6.072   4.688  0.0535 -0.5690  0.3987
   75MOL    H5915007   4.912   6.290   4.697  1.1079 -2.3505  0.0841
   75MOL    H6015008   4.984   6.350   4.845  0.7901 -0.1629  0.9249
   75MOL    H6115009   5.028   6.432   4.694 -0.1215 -1.2009 -1.2537
   75MOL    C6215010   5.222   6.042   4.679  0.7709  0.6433 -0.4738
   75MOL    C6315011   5.224   5.891   4.672 -0.2598 -0.2166  0.5755
   75MOL    O6415012   5.149   5.843   4.561 -0.4906  0.7394 -0.1105
   75MOL    C6515013   5.052   5.738   4.584 -0.7089 -0.1782  0.4479
   75MOL    H6615014   5.312   6.072   4.734  1.5657 -0.7325 -0.9958
   75MOL    H6715015   5.232   6.074   4.575 -2.2864  1.8859 -0.4306
   75MOL    H6815016   5.165   5.855   4.755 -0.4602 -1.5041 -0.1161
   75MOL    H6915017   4.962   5.777   4.633  0.1670  2.7312 -0.1424
   75MOL    H7015018   5.012   5.689   4.496  0.2555  1.0061 -0.6763
   75MOL    H7115019   5.103   5.653   4.630  0.4210 -0.9869 -2.2297
   75MOL    C7215020   5.368   5.825   4.673 -0.9333 -0.1147 -0.0155
   75MOL    C7315021   5.445   5.852   4.812  0.1674 -0.6553 -0.4132
   75MOL    O7415022   5.355   5.830   4.914 -0.4369  0.1188 -0.2326
   75MOL    C7515023   5.384   5.878   5.044 -0.1422 -0.1851  0.1608
   75MOL    H7615024   5.425   5.860   4.588 -1.3402 -2.6950 -1.3986
   75MOL    H7715025   5.365   5.716   4.662  1.6216 -0.2992  0.8224
   75MOL    H7815026   5.472   5.957   4.824 -0.7605 -0.5308  0.6490
   75MOL    H7915027   5.479   5.846   5.085  0.7398  1.3946 -0.5802
   75MOL    H8015028   5.397   5.987   5.037  2.4925 -0.4819 -0.0862
   75MOL    H8115029   5.306   5.852   5.115 -0.1788  2.6378  1.2194
   75MOL    C8215030   5.567   5.755   4.828  1.0742 -0.1631 -0.2237
   75MOL    C8315031   5.684   5.788   4.738 -0.1073 -0.2090 -0.3560
   75MOL    O8415032   5.722   5.916   4.782 -0.4724  0.5663  0.0273
   75MOL    C8515033   5.806   5.986   4.696  1.1292 -0.0408  0.3937
   75MOL    H8615034   5.522   5.656   4.830  0.2027  0.2466  0.9762
   75MOL    H8715035   5.599   5.781   4.929  2.4834  1.1697 -0.9942
   75MOL    H8815036   5.658   5.786   4.632 -0.5035  1.8768 -0.3316
   75MOL    H8915037   5.885   5.919   4.664 -0.2206 -2.5332  2.1101
   75MOL    H9015038   5.758   6.026   4.606  0.5750  1.2234  1.2377
   75MOL    H9115039   5.844   6.065   4.761  0.3222 -0.1724  1.0336
   75MOL    C9215040   5.788   5.668   4.765  0.3444 -0.0339  0.6320
   75MOL    C9315041   5.738   5.525   4.724 -0.2177  0.1459 -0.0303
   75MOL    O9415042   5.769   5.504   4.588  0.1322 -0.3438  0.0743
   75MOL    C9515043   5.671   5.427   4.522  0.5277  0.1853  0.7442
   75MOL    H9615044   5.812   5.669   4.871 -0.4238  0.1105  0.8077
   75MOL    H9715045   5.876   5.694   4.706  0.5490 -1.3760  0.3393
   75MOL    H9815046   5.633   5.514   4.747  0.2813  0.1910  2.4301
   75MOL    H9915047   5.573   5.472   4.536  0.0374 -0.6271 -0.0342
   75MOL   H10015048   5.690   5.422   4.415 -2.3156  0.7544  0.1735
   75MOL   H10115049   5.673   5.322   4.550  1.6864  0.2457  0.9225
   75MOL   C10215050   5.827   5.419   4.797  0.1497 -0.9860 -0.4170
   75MOL   C10315051   5.810   5.399   4.951  0.4067  0.5836  0.7408
   75MOL   O10415052   5.827   5.256   4.965 -0.4367  0.8107  0.2760
   75MOL   C10515053   5.711   5.165   4.955  0.0033 -0.1148  0.1709
   75MOL   H10615054   5.930   5.450   4.785 -0.1770  1.0928  1.6847
   75MOL   H10715055   5.820   5.325   4.742 -1.6623 -1.5016  0.6444
   75MOL   H10815056   5.705   5.416   4.976  0.4683  1.3732  0.4808
   75MOL   H10915057   5.738   5.064   4.986 -0.2302 -0.0156  0.6970
   75MOL   H11015058   5.630   5.181   5.026 -1.2085 -2.0925 -0.7176
   75MOL   H11115059   5.654   5.174   4.863 -3.6179  1.3039  2.4515
   75MOL   C11215060   5.912   5.471   5.047  0.3380 -1.0356  0.3286
   75MOL   C11315061   5.845   5.527   5.183  0.2314  0.1843  0.5682
   75MOL   O11415062   5.748   5.632   5.154  0.0217 -0.4803  0.3636
   75MOL   C11515063   5.696   5.703   5.261  0.0204 -0.2132  0.0516
   75MOL   H11615064   5.981   5.536   4.994  0.1739  0.6859  2.1303
   75MOL   H11715065   5.985   5.394   5.070 -0.3044 -2.1029 -1.1826
   75MOL   H11815066   5.924   5.571   5.243 -0.2443 -0.1566  1.4531
   75MOL   H11915067   5.608   5.653   5.300  2.3769 -1.9255  3.4638
   75MOL   H12015068   5.763   5.713   5.346  0.7309  1.8099 -0.7156
   75MOL   H12115069   5.674   5.804   5.225  2.4603  0.6965  0.9515
   75MOL   C12215070   5.776   5.419   5.260  0.4354  0.2645 -0.4719
   75MOL   C12315071   5.858   5.309   5.321 -0.7386 -0.1761 -0.1004
   75MOL   O12415072   5.961   5.379   5.389 -0.0441  0.8771  0.1656
   75MOL   C12515073   6.094   5.333   5.355 -0.2333  0.2262 -0.4323
   75MOL   H12615074   5.692   5.377   5.205  0.7957  0.4444 -1.1558
   75MOL   H12715075   5.727   5.465   5.346  0.2229 -0.9649  0.0911
   75MOL   H12815076   5.900   5.258   5.234  0.9194 -1.5517  1.4599
   75MOL   H12915077   6.168   5.365   5.429 -2.0798  2.2793  0.5929
   75MOL   H13015078   6.106   5.225   5.364  2.3448  0.2417 -3.3193
   75MOL   H13115079   6.116   5.357   5.251  0.4618 -1.5194 -0.6985
   75MOL   C13215080   5.769   5.219   5.401 -0.7026  0.2925 -0.5613
   75MOL   C13315081   5.835   5.093   5.464  0.4962 -0.4151 -0.3836
   75MOL   O13415082   5.916   5.135   5.576 -0.0983 -0.0635 -0.2517
   75MOL   C13515083   6.030   5.055   5.590 -0.1810  0.0583  0.3214
   75MOL   H13615084   5.696   5.177   5.331  0.4193  1.0925 -2.2354
   75MOL   H13715085   5.725   5.273   5.485 -0.0305  0.0899 -0.0796
   75MOL   H13815086   5.900   5.061   5.382  1.7452  1.5268 -0.1974
   75MOL   H13915087   6.100   5.102   5.659  2.4203 -0.6019 -1.8253
   75MOL   H14015088   6.011   4.957   5.633  0.8054 -0.2928 -0.0480
   75MOL   H14115089   6.083   5.037   5.497  0.2716 -0.3274  0.6569
   75MOL   C14215090   5.737   4.983   5.502 -1.0891 -0.7331 -0.1308
   75MOL   C14315091   5.662   4.922   5.386  0.1370  0.3864 -0.5200
   75MOL   O14415092   5.764   4.851   5.317 -0.1603 -0.7678 -0.3462
   75MOL   C14515093   5.784   4.878   5.180  0.1582  0.1414  0.4819
   75MOL   H14615094   5.657   5.031   5.559  0.7670 -1.2305  3.0404
   75MOL   H14715095   5.773   4.911   5.576 -0.5115 -1.5617 -1.2162
   75MOL   H14815096   5.609   4.992   5.321 -0.9611 -0.5294 -0.6275
   75MOL   H14915097   5.685   4.891   5.136 -0.3597  2.0320  2.1247
   75MOL   H15015098   5.845   4.964   5.155 -0.6537  1.2503  2.2428
   75MOL   H15115099   5.823   4.789   5.130  1.5594  0.8197  0.3355
   75MOL   C15215100   5.559   4.816   5.431  0.1758  0.5024  0.6298
   75MOL   C15315101   5.460   4.766   5.322  0.4154 -0.0396  0.0122
   75MOL   O15415102   5.403   4.635   5.345  0.3609  0.0247 -0.1226
   75MOL   C15515103   5.343   4.612   5.471  0.1207  0.3600  0.2460
   75MOL   H15615104   5.493   4.854   5.509 -0.5121  0.5584  0.0291
   75MOL   H15715105   5.607   4.725   5.467 -0.4405 -0.2456 -0.3881
   75MOL   H15815106   5.514   4.765   5.227  0.5445  0.3678  0.0806
   75MOL   H15915107   5.249   4.665   5.485  0.2416  1.7132 -3.5477
   75MOL   H16015108   5.314   4.507   5.468  3.0636 -0.5219  1.0016
   75MOL   H16115109   5.400   4.617   5.564 -0.5629  1.3893  0.6276
   75MOL   C16215110   5.351   4.873   5.294 -0.4207 -0.1920  0.5587
   75MOL   C16315111   5.295   4.905   5.146 -0.5877 -0.3335 -0.5943
   75MOL   O16415112   5.412   4.921   5.064  0.1238 -0.0281  0.3642
   75MOL   C16515113   5.399   4.991   4.943  0.4532  0.4159 -0.2919
   75MOL   H16615114   5.395   4.971   5.314 -1.5370  0.4744 -0.1777
   75MOL   H16715115   5.270   4.861   5.366 -0.6301 -0.8610  0.2156
   75MOL   H16815116   5.240   4.999   5.156 -1.9272 -1.2348  0.7150
   75MOL   H16915117   5.390   5.095   4.975  1.3697 -0.0874  1.6707
   75MOL   H17015118   5.479   4.982   4.870  0.2301  2.4879 -0.8395
   75MOL   H17115119   5.305   4.985   4.889  0.4401 -2.3090 -0.0202
   75MOL   C17215120   5.193   4.808   5.097 -0.0265 -0.6389  0.1175
   75MOL   C17315121   5.078   4.760   5.192  0.0684 -0.4448  0.2640
   75MOL   O17415122   5.009   4.870   5.245  0.5894  0.2736 -0.4742
   75MOL   C17515123   4.949   4.860   5.369 -0.6614 -0.1450  0.0099
   75MOL   H17615124   5.243   4.717   5.064 -0.1684 -0.5862 -0.2487
   75MOL   H17715125   5.140   4.841   5.007 -2.0087 -0.9851  1.1195
   75MOL   H17815126   5.112   4.699   5.275  1.1893 -2.7728 -1.8096
   75MOL   H17915127   4.994   4.792   5.442 -2.1533 -0.4034  0.7023
   75MOL   H18015128   4.943   4.961   5.410  0.0356 -0.5876  1.2343
   75MOL   H18115129   4.845   4.828   5.357 -0.8191 -0.4457  2.0700
   75MOL   C18215130   4.981   4.669   5.121 -0.2506 -0.0193  0.3104
   75MOL   C18315131   5.041   4.526   5.108 -0.8874  0.2111 -0.2599
   75MOL   O18415132   5.000   4.448   5.224  0.0791 -0.1942  0.7788
   75MOL   C18515133   5.078   4.327   5.243  0.1880  0.7165  0.2731
   75MOL   H18615134   4.957   4.719   5.027 -0.2749 -0.1072  0.2692
   75MOL   H18715135   4.887   4.655   5.174  0.1001 -3.4351  0.1603
   75MOL   H18815136   5.150   4.531   5.106 -0.8453  0.6076  1.8773
   75MOL   H18915137   5.187   4.336   5.239  0.0683  2.1652 -0.1635
   75MOL   H19015138   5.055   4.306   5.348  2.3751  0.3686  0.7128
   75MOL   H19115139   5.034   4.248   5.182  0.0156 -0.5764  2.0362
   75MOL   C19215140   4.990   4.461   4.979 -0.0093 -0.0941  0.3193
   75MOL   C19315141   5.037   4.538   4.856  0.4098  0.5422  0.2959
   75MOL   O19415142   4.997   4.464   4.742 -0.5671 -0.8119 -0.3504
   75MOL   C19515143   5.020   4.521   4.614 -0.0107 -0.2522  0.5699
   75MOL   H19615144   4.882   4.447   4.976  0.1581 -1.7198  1.1672
   75MOL   H19715145   5.030   4.361   4.964 -1.2389 -0.6058  0.4013
   75MOL   H19815146   5.146   4.543   4.852  0.3926  1.1699  0.6508
   75MOL   H19915147   4.967   4.615   4.603  0.9168 -0.0048 -2.3349
   75MOL   H20015148   5.127   4.541   4.607  0.1501 -1.6993 -1.6039
   75MOL   H20115149   4.978   4.463   4.532 -0.0876 -0.2198  0.5879
   75MOL   H20215150   4.996   4.638   4.850 -0.0285  0.3537  0.1692
   76MOL     C115151   1.762   6.022   0.116 -1.0982 -0.7317 -0.3633
   76MOL     C215152   1.884   6.049   0.215 -0.1460 -0.1224 -0.0918
   76MOL     O315153   1.929   5.926   0.267  0.5278  0.2601  0.4534
   76MOL     C415154   1.863   5.900   0.387 -0.4607  0.1264  1.5374
   76MOL     H515155   1.728   6.123   0.091 -3.2386 -1.6354 -1.2742
   76MOL     H615156   1.785   5.965   0.027  1.7589 -0.0800 -0.0751
   76MOL     H715157   1.839   6.114   0.290  2.2803  0.8514  0.5580
   76MOL     H815158   1.913   5.809   0.421  0.5109 -0.0724 -0.3685
   76MOL     H915159   1.883   5.970   0.468  2.2776 -1.3485  2.2263
   76MOL    H1015160   1.757   5.889   0.363  0.0785 -1.2388 -0.3707
   76MOL    H1115161   1.690   5.966   0.175  1.3048 -0.4072  3.0201
   76MOL    C1215162   2.002   6.134   0.155  0.1865  0.0229  0.4552
   76MOL    C1315163   2.113   6.164   0.261 -0.5888  0.5360 -0.2264
   76MOL    O1415164   2.225   6.218   0.186  0.0329  0.4670 -0.0769
   76MOL    C1515165   2.309   6.111   0.128  0.4082  0.3723  0.6671
   76MOL    H1615166   1.964   6.226   0.110  1.3714  0.0505 -0.5217
   76MOL    H1715167   2.037   6.083   0.065  0.7585  1.2713 -0.0331
   76MOL    H1815168   2.137   6.071   0.312 -1.6763  0.9178  0.9907
   76MOL    H1915169   2.388   6.075   0.195  0.7433  1.6551  0.9732
   76MOL    H2015170   2.259   6.022   0.089  3.0931 -1.3232  0.9277
   76MOL    H2115171   2.359   6.154   0.042  1.9513 -0.2228  1.2353
   76MOL    C2215172   2.070   6.270   0.355 -0.2651 -0.7562  0.7736
   76MOL    C2315173   2.161   6.329   0.455  0.0489  0.3272 -0.7304
   76MOL    O2415174   2.082   6.437   0.513  0.3200 -0.3959  0.3240
   76MOL    C2515175   2.127   6.562   0.466  1.5235  0.5016 -0.6170
   76MOL    H2615176   1.981   6.249   0.413 -0.0657 -0.6797  1.1101
   76MOL    H2715177   2.044   6.352   0.288  0.7638 -0.9160  0.1664
   76MOL    H2815178   2.255   6.364   0.412 -0.0829  1.3354 -0.2109
   76MOL    H2915179   2.080   6.647   0.515  1.5504  0.7824 -1.0734
   76MOL    H3015180   2.231   6.581   0.494  1.0931 -0.5775  1.8590
   76MOL    H3115181   2.112   6.583   0.360 -1.6300  0.9141 -0.1441
   76MOL    C3215182   2.206   6.223   0.565  0.0094 -0.1782 -0.2263
   76MOL    C3315183   2.100   6.119   0.610  0.0041 -0.4390  0.4134
   76MOL    O3415184   2.172   6.020   0.676  0.5615  0.2307 -0.2991
   76MOL    C3515185   2.106   5.903   0.721 -0.5052  0.5190  0.0031
   76MOL    H3615186   2.254   6.263   0.655 -0.3835  1.7085 -0.8358
   76MOL    H3715187   2.284   6.172   0.508  0.6030 -0.5960  0.9218
   76MOL    H3815188   2.073   6.069   0.517  1.4626 -0.2634 -0.1192
   76MOL    H3915189   2.047   5.930   0.808 -2.3597 -0.6956 -0.8618
   76MOL    H4015190   2.036   5.874   0.642 -2.3347 -1.5872  2.3477
   76MOL    H4115191   2.176   5.821   0.739 -0.6816  0.1865 -0.7856
   76MOL    C4215192   1.970   6.175   0.684 -0.3477  0.2828  0.4545
   76MOL    C4315193   1.989   6.245   0.825  0.5589  0.7204  0.1200
   76MOL    O4415194   1.861   6.298   0.875 -0.3683  0.3560  0.5189
   76MOL    C4515195   1.836   6.431   0.864 -0.2518 -0.2814  0.2969
   76MOL    H4615196   1.901   6.092   0.696 -0.8894  0.7265  0.4827
   76MOL    H4715197   1.919   6.248   0.620 -0.4423  1.4278  1.7972
   76MOL    H4815198   2.054   6.330   0.807 -0.4660  1.5025  0.0698
   76MOL    H4915199   1.919   6.492   0.900  1.5675 -2.2715 -0.4389
   76MOL    H5015200   1.834   6.462   0.759  0.3481  2.0471  0.9499
   76MOL    H5115201   1.743   6.473   0.904  0.9514  1.7161  1.0433
   76MOL    C5215202   2.042   6.165   0.944 -0.1152 -0.2309 -0.7336
   76MOL    C5315203   2.083   6.245   1.066  0.2624  0.1090 -0.6673
   76MOL    O5415204   2.078   6.167   1.184  0.0526  0.5013 -0.2344
   76MOL    C5515205   1.955   6.138   1.247  0.1060 -0.2300  0.3075
   76MOL    H5615206   2.131   6.107   0.920  0.4794  0.8716 -1.2322
   76MOL    H5715207   1.958   6.099   0.964  1.2545 -1.7753 -0.0096
   76MOL    H5815208   2.019   6.333   1.076 -0.3544 -0.3503 -0.5113
   76MOL    H5915209   1.974   6.110   1.351  2.3482  2.1958  0.6134
   76MOL    H6015210   1.888   6.224   1.246  0.5299  0.0977 -0.8754
   76MOL    H6115211   1.915   6.049   1.199  0.1911  0.1781 -0.5342
   76MOL    C6215212   2.234   6.290   1.077 -0.7599 -0.0837 -0.1682
   76MOL    C6315213   2.301   6.380   0.965 -0.5998 -0.8727  0.5327
   76MOL    O6415214   2.230   6.503   0.968 -0.0226  0.5007 -0.2442
   76MOL    C6515215   2.226   6.572   0.846  0.7200  0.8457 -0.3313
   76MOL    H6615216   2.288   6.196   1.090 -1.8558 -0.7914 -0.5751
   76MOL    H6715217   2.241   6.345   1.170 -1.6976 -0.3833  0.0885
   76MOL    H6815218   2.292   6.329   0.869  0.5107 -1.0383  0.5160
   76MOL    H6915219   2.314   6.625   0.812  1.8318  0.8646  2.4227
   76MOL    H7015220   2.197   6.510   0.761  1.8683  1.7147 -1.3767
   76MOL    H7115221   2.146   6.646   0.852 -1.7730 -1.6395 -1.6074
   76MOL    C7215222   2.452   6.411   0.981 -0.0575  0.0269  0.1593
   76MOL    C7315223   2.536   6.290   0.929 -0.0142 -0.2166 -0.2903
   76MOL    O7415224   2.513   6.275   0.792  0.6126 -0.1444 -0.3496
   76MOL    C7515225   2.504   6.143   0.749 -0.2172  0.0039 -0.3431
   76MOL    H7615226   2.468   6.445   1.083  0.6494  2.5409 -0.7584
   76MOL    H7715227   2.476   6.491   0.912 -0.6242 -0.6849 -0.8719
   76MOL    H7815228   2.502   6.205   0.989  1.2515 -0.8047 -0.3776
   76MOL    H7915229   2.419   6.098   0.800  1.3919 -2.3469  0.3695
   76MOL    H8015230   2.511   6.134   0.640 -0.0689 -2.2343 -0.1755
   76MOL    H8115231   2.594   6.090   0.781  0.2391  0.2261 -1.2242
   76MOL    C8215232   2.689   6.309   0.939  0.4227 -0.7227  0.7640
   76MOL    C8315233   2.743   6.338   1.073 -0.2044  0.0769 -0.1745
   76MOL    O8415234   2.714   6.229   1.156 -0.6794 -0.4218  0.3544
   76MOL    C8515235   2.668   6.261   1.287  0.3938 -0.4246  0.0074
   76MOL    H8615236   2.721   6.388   0.872  0.7519 -2.0749 -0.7104
   76MOL    H8715237   2.739   6.218   0.905  0.4483  0.2049 -1.7786
   76MOL    H8815238   2.708   6.437   1.102  2.3297  1.0306 -0.2545
   76MOL    H8915239   2.645   6.165   1.335 -0.0305 -0.7238 -0.7759
   76MOL    H9015240   2.750   6.299   1.347 -0.0425  0.7315 -0.1208
   76MOL    H9115241   2.581   6.327   1.296  1.4311  0.9203  0.3094
   76MOL    C9215242   2.894   6.354   1.078 -0.3766 -0.2331  0.7091
   76MOL    C9315243   2.961   6.460   0.995 -0.2856  0.0784 -0.4257
   76MOL    O9415244   2.911   6.583   1.037 -0.1263 -0.5435  0.2040
   76MOL    C9515245   2.905   6.682   0.932  0.2841 -0.4262  0.2474
   76MOL    H9615246   2.944   6.261   1.054 -1.4883 -0.5165 -0.5950
   76MOL    H9715247   2.908   6.382   1.182  1.8601 -2.6889  1.1135
   76MOL    H9815248   2.934   6.459   0.890 -0.7605 -0.4255 -0.3026
   76MOL    H9915249   2.824   6.682   0.859 -0.7533 -0.2031  1.3885
   76MOL   H10015250   2.907   6.772   0.993  2.4783  0.3798 -0.9369
   76MOL   H10115251   2.990   6.675   0.863  0.6359  0.5996  0.5737
   76MOL   C10215252   3.117   6.467   1.014 -0.1152  0.5499  0.0959
   76MOL   C10315253   3.194   6.347   0.953  0.3761  1.2755  0.3836
   76MOL   O10415254   3.189   6.346   0.811  0.4247  0.4550 -0.4496
   76MOL   C10515255   3.121   6.229   0.755  0.2623  0.0162 -0.2594
   76MOL   H10615256   3.127   6.478   1.122  0.8924 -0.4385  0.1106
   76MOL   H10715257   3.155   6.550   0.954  3.2364 -0.7960  0.2458
   76MOL   H10815258   3.144   6.260   0.995  1.5207  1.3319  1.9154
   76MOL   H10915259   3.129   6.236   0.646 -0.2560 -0.1186 -0.3086
   76MOL   H11015260   3.158   6.133   0.789  1.5428  1.1436  1.6566
   76MOL   H11115261   3.014   6.228   0.772  0.3776  0.3770  0.4914
   76MOL   C11215262   3.344   6.334   0.997  0.4935 -0.5357 -0.1638
   76MOL   C11315263   3.367   6.302   1.153  0.0394 -0.2716  0.4004
   76MOL   O11415264   3.333   6.397   1.257 -0.2822 -0.7375  0.1165
   76MOL   C11515265   3.406   6.513   1.250 -0.2170 -0.0763  0.8556
   76MOL   H11615266   3.389   6.431   0.977 -0.6353 -0.0805 -0.5347
   76MOL   H11715267   3.400   6.257   0.944  1.1545 -0.6399  0.6783
   76MOL   H11815268   3.475   6.286   1.151  0.0546 -0.3847  1.8717
   76MOL   H11915269   3.375   6.587   1.324 -1.9866 -0.4917  0.5490
   76MOL   H12015270   3.510   6.495   1.277 -0.1066  1.1531  1.2960
   76MOL   H12115271   3.392   6.562   1.154 -0.8890 -1.9772 -0.0293
   76MOL   C12215272   3.315   6.159   1.190  0.9361 -0.4671  0.5082
   76MOL   C12315273   3.381   6.094   1.323 -0.2581 -0.5935  0.9104
   76MOL   O12415274   3.524   6.113   1.291  0.3365  0.8196 -0.3674
   76MOL   C12515275   3.618   6.048   1.376 -0.0872  0.5645 -0.1525
   76MOL   H12615276   3.335   6.103   1.099 -0.2744  0.3420 -0.2652
   76MOL   H12715277   3.206   6.162   1.197  1.0803  1.4685  2.5482
   76MOL   H12815278   3.355   5.988   1.320  1.7241 -1.1654  2.4772
   76MOL   H12915279   3.713   6.048   1.322  0.9331  0.9297  1.6272
   76MOL   H13015280   3.625   6.106   1.467  0.9690 -0.3032  0.3325
   76MOL   H13115281   3.594   5.942   1.392  0.2324  0.8606  2.4681
   76MOL   C13215282   3.333   6.157   1.464 -0.9199 -0.1142 -0.4939
   76MOL   C13315283   3.181   6.170   1.478 -0.3890  0.2699 -0.4528
   76MOL   O13415284   3.132   6.035   1.473 -0.3120  0.0436  0.5181
   76MOL   C13515285   2.992   6.037   1.460  0.1194 -0.3345  0.6333
   76MOL   H13615286   3.389   6.248   1.485  0.4572 -0.8884 -0.7378
   76MOL   H13715287   3.372   6.082   1.532 -0.8333  0.7701  0.4434
   76MOL   H13815288   3.151   6.232   1.393 -1.5049 -2.5829 -2.2271
   76MOL   H13915289   2.933   6.113   1.511  1.1105 -1.0250  2.8824
   76MOL   H14015290   2.965   6.037   1.354  1.1312  1.8890  0.3459
   76MOL   H14115291   2.965   5.938   1.495 -0.6713 -0.1607  0.5116
   76MOL   C14215292   3.148   6.235   1.615 -0.4521  0.7159 -0.4058
   76MOL   C14315293   3.180   6.389   1.614  0.5893  0.6211  0.4758
   76MOL   O14415294   3.056   6.458   1.604  0.3074  0.0056 -0.0816
   76MOL   C14515295   3.044   6.531   1.485 -0.4544  0.2093  0.0247
   76MOL   H14615296   3.214   6.180   1.682  2.1713  0.5378 -3.0016
   76MOL   H14715297   3.047   6.217   1.652 -0.9731  2.1814 -1.0604
   76MOL   H14815298   3.256   6.405   1.537 -0.0497  0.8509 -0.1068
   76MOL   H14915299   3.112   6.616   1.480 -0.3310  0.0150 -1.6048
   76MOL   H15015300   3.071   6.464   1.404 -0.2190 -0.7231  0.8708
   76MOL   H15115301   2.946   6.580   1.483 -0.7157 -0.2359  1.0855
   76MOL   C15215302   3.241   6.438   1.740 -0.0209  0.3723  1.0054
   76MOL   C15315303   3.260   6.588   1.756  0.4344 -0.0090 -0.0383
   76MOL   O15415304   3.279   6.618   1.897 -0.6370  0.3722  0.5217
   76MOL   C15515305   3.205   6.720   1.954  0.4452 -0.2609 -0.1205
   76MOL   H15615306   3.339   6.395   1.759 -0.7518 -1.5895  0.4516
   76MOL   H15715307   3.181   6.403   1.824 -1.2324  1.1508  0.4799
   76MOL   H15815308   3.161   6.621   1.724  0.1749 -1.1686 -0.4574
   76MOL   H15915309   3.126   6.675   2.014 -0.0651  1.6706  0.6965
   76MOL   H16015310   3.273   6.761   2.029  1.7149  1.0387 -1.9197
   76MOL   H16115311   3.174   6.799   1.885 -0.1750 -1.2159 -0.9549
   76MOL   C16215312   3.374   6.639   1.669 -0.4542 -0.1190  0.0926
   76MOL   C16315313   3.399   6.788   1.647  0.1033 -0.6302 -0.3146
   76MOL   O16415314   3.502   6.796   1.546  0.0452  0.4985 -0.2559
   76MOL   C16515315   3.628   6.810   1.602  0.4332  0.0705 -0.4880
   76MOL   H16615316   3.353   6.590   1.574  4.0122 -0.9379 -0.5467
   76MOL   H16715317   3.464   6.589   1.705 -0.3494 -0.0790 -0.1142
   76MOL   H16815318   3.435   6.845   1.733 -0.0088 -2.4411  0.9619
   76MOL   H16915319   3.645   6.905   1.652  0.4923 -0.1454 -0.0984
   76MOL   H17015320   3.649   6.743   1.686 -1.0732 -1.2252 -1.1141
   76MOL   H17115321   3.702   6.790   1.525  2.3555 -0.5967  1.4720
   76MOL   C17215322   3.275   6.857   1.596  0.3615 -0.3554  0.3742
   76MOL   C17315323   3.285   7.014   1.583  0.5674 -0.1257 -0.1291
   76MOL   O17415324   3.180   7.056   1.500 -0.5724 -0.1111 -0.0417
   76MOL   C17515325   3.232   7.108   1.376  0.1583  0.1886  0.1096
   76MOL   H17615326   3.183   6.828   1.646 -0.0105 -1.9333 -1.1943
   76MOL   H17715327   3.263   6.814   1.497  2.2091  0.3938 -0.2051
   76MOL   H17815328   3.383   7.042   1.543  0.0044  0.0304 -1.4363
   76MOL   H17915329   3.154   7.122   1.301 -0.1067  2.8477  0.8538
   76MOL   H18015330   3.279   7.206   1.388 -0.3768  0.4185  0.3104
   76MOL   H18115331   3.303   7.038   1.331  1.1355  1.2384 -0.0211
   76MOL   C18215332   3.251   7.088   1.715 -0.7007 -0.2141 -0.8404
   76MOL   C18315333   3.264   7.238   1.704  0.5323 -0.6187 -0.4102
   76MOL   O18415334   3.247   7.279   1.841  0.0233 -0.2140  0.7384
   76MOL   C18515335   3.139   7.365   1.852 -0.2768 -1.0119  0.1192
   76MOL   H18615336   3.323   7.053   1.789 -1.7875 -0.7011 -0.0030
   76MOL   H18715337   3.151   7.067   1.753  0.5903  0.5332  3.1861
   76MOL   H18815338   3.182   7.275   1.643 -0.8045  0.1379  1.8111
   76MOL   H18915339   3.135   7.448   1.782 -0.3308  0.2648  1.6202
   76MOL   H19015340   3.044   7.312   1.854 -2.0091  2.0471  2.3885
   76MOL   H19115341   3.145   7.415   1.949 -1.6000 -0.5249 -0.0438
   76MOL   C19215342   3.404   7.291   1.663 -0.5427  0.6053  0.2590
   76MOL   C19315343   3.433   7.430   1.714  0.0515  0.4178  0.1684
   76MOL   O19415344   3.557   7.474   1.662  0.0626 -0.1508 -0.7410
   76MOL   C19515345   3.592   7.598   1.711 -0.1075 -0.0040 -0.3342
   76MOL   H19615346   3.400   7.295   1.554 -0.0685 -1.2551  0.1585
   76MOL   H19715347   3.484   7.225   1.694  0.4443  0.6780 -2.0336
   76MOL   H19815348   3.432   7.430   1.823 -1.1004 -2.7044  0.1936
   76MOL   H19915349   3.697   7.623   1.696 -0.4510 -0.1164 -3.1757
   76MOL   H20015350   3.541   7.686   1.671 -1.6301  0.2723  2.0748
   76MOL   H20115351   3.581   7.597   1.820 -0.5298 -0.3066 -0.3774
   76MOL   H20215352   3.363   7.502   1.672 -2.1020 -0.6994  1.7569
   77MOL     C115353   4.747   7.395   7.569  0.4436 -0.6963  0.2838
   77MOL     C215354   4.700   7.541   7.563  0.4933 -0.4097  0.3425
   77MOL     O315355   4.579   7.565   7.647 -0.7473  0.7520  0.1348
   77MOL     C415356   4.451   7.521   7.590 -0.1071 -0.7381  0.4494
   77MOL     H515357   4.825   7.388   7.494  1.6782  2.8768  1.1175
   77MOL     H615358   4.786   7.364   7.666 -0.2253  0.0641  0.8158
   77MOL     H715359   4.679   7.576   7.463  0.2165  0.2106  0.6171
   77MOL     H815360   4.369   7.569   7.645  0.2915  0.5046 -0.0354
   77MOL     H915361   4.429   7.551   7.488 -2.0337 -1.0672  0.7433
   77MOL    H1015362   4.424   7.416   7.604 -2.3360 -0.3483 -0.6503
   77MOL    H1115363   4.665   7.329   7.540  0.7506 -1.1621  0.4844
   77MOL    C1215364   4.821   7.626   7.616 -0.4698  0.5520  0.0017
   77MOL    C1315365   4.797   7.774   7.645  0.6617 -0.6054 -0.5883
   77MOL    O1415366   4.926   0.027   7.668 -0.6265  0.0755 -0.7580
   77MOL    C1515367   4.961   0.042   7.802 -0.5846 -0.0415 -1.4148
   77MOL    H1615368   4.892   7.618   7.533 -0.8562 -1.1764 -0.1751
   77MOL    H1715369   4.875   7.573   7.694 -0.1756  3.1396  1.6200
   77MOL    H1815370   4.734   7.781   7.733  0.3078 -2.6028 -0.6566
   77MOL    H1915371   4.891   0.111   0.039 -2.0403 -3.1207  1.0401
   77MOL    H2015372   4.950   7.760   0.047  0.2634  0.5350 -0.2572
   77MOL    H2115373   5.059   0.090   0.002 -1.5120  1.9356 -1.5494
   77MOL    C2215374   4.748   0.041   7.526  0.5396  0.6679  1.0561
   77MOL    C2315375   4.733   0.200   7.547 -0.5171  0.3269 -0.8016
   77MOL    O2415376   4.744   0.269   7.430  0.3547 -0.0730 -0.8825
   77MOL    C2515377   4.862   0.254   7.354  0.1892 -0.0323  0.4791
   77MOL    H2615378   4.654   7.806   7.495  1.8390  0.1450 -2.2734
   77MOL    H2715379   4.828   0.033   7.453  1.2585 -0.4879  1.9411
   77MOL    H2815380   4.816   0.226   7.613 -0.8523 -0.8513  0.1064
   77MOL    H2915381   4.948   0.231   7.418  1.4706  1.9245 -0.4839
   77MOL    H3015382   4.848   0.173   7.282  2.9760 -2.8021  2.8968
   77MOL    H3115383   4.882   0.338   7.287  0.3464  2.2601  3.3072
   77MOL    C3215384   4.602   0.247   7.615 -0.8247 -1.0438 -0.1510
   77MOL    C3315385   4.567   0.193   7.761 -0.4827 -0.0328 -0.3864
   77MOL    O3415386   4.516   0.282   0.039 -0.3516  0.2380 -0.3539
   77MOL    C3515387   4.608   0.337   0.134  0.3277 -0.6639 -0.2896
   77MOL    H3615388   4.525   0.221   7.542 -0.8119  1.9103 -1.3029
   77MOL    H3715389   4.605   0.356   7.618  0.1288 -1.0716  0.1430
   77MOL    H3815390   4.647   0.138   7.809 -0.9050 -0.2861  0.0252
   77MOL    H3915391   4.550   0.410   0.190  1.2414  0.0551 -0.2828
   77MOL    H4015392   4.638   0.256   0.201 -0.5643 -0.6906  0.0836
   77MOL    H4115393   4.689   0.385   0.080 -0.2520 -0.2420 -0.7849
   77MOL    C4215394   4.446   0.093   7.755 -0.3380 -0.1239  0.0145
   77MOL    C4315395   4.387   0.048   0.077 -0.7575 -0.5292  0.4651
   77MOL    O4415396   4.263   7.801   0.055  0.5160 -0.2889  0.4781
   77MOL    C4515397   4.154   0.085   0.067  0.2365 -0.0167  0.3828
   77MOL    H4615398   4.458   0.004   7.693 -0.7940  0.3131 -0.7155
   77MOL    H4715399   4.366   0.144   7.700 -0.5330 -1.5580 -1.0820
   77MOL    H4815400   4.373   0.133   0.143  0.6744 -0.7143  1.0186
   77MOL    H4915401   4.119   0.083   0.171 -3.0338  0.5708 -0.6697
   77MOL    H5015402   4.187   0.186   0.043 -1.7748  0.7352  0.6787
   77MOL    H5115403   4.067   0.067   0.003 -0.5936 -2.2564  2.0401
   77MOL    C5215404   4.483   7.758   0.144 -0.2962  0.5095  0.2387
   77MOL    C5315405   4.421   7.683   0.268 -0.0569 -0.5936 -0.3187
   77MOL    O5415406   4.517   7.595   0.327  0.8552 -0.0344  0.6594
   77MOL    C5515407   4.549   7.478   0.257 -0.5852 -0.5023 -0.1776
   77MOL    H5615408   4.580   7.799   0.172  0.6911  0.5990 -3.1732
   77MOL    H5715409   4.497   7.683   0.067  1.0098  0.2644  0.7046
   77MOL    H5815410   4.338   7.620   0.235 -1.1539  0.4497  0.4093
   77MOL    H5915411   4.561   7.492   0.149  0.9132 -1.0360 -0.0867
   77MOL    H6015412   4.636   7.431   0.302 -0.9534 -1.6083 -0.6047
   77MOL    H6115413   4.464   7.411   0.268 -2.6087  1.9354 -0.5060
   77MOL    C6215414   4.374   7.780   0.378 -0.2578  0.0169 -0.6032
   77MOL    C6315415   4.295   7.721   0.496  0.1558  0.3747  0.6691
   77MOL    O6415416   4.251   0.025   0.579  0.3127 -0.1398 -0.3723
   77MOL    C6515417   4.218   7.795   0.713 -0.5300 -0.5957  0.2583
   77MOL    H6615418   4.317   0.053   0.337  0.2792  0.5038 -0.3583
   77MOL    H6715419   4.462   0.024   0.412  0.5583 -0.4485 -1.9650
   77MOL    H6815420   4.359   7.655   0.554  1.3914  1.2169  0.2921
   77MOL    H6915421   4.150   7.712   0.731 -0.7724 -0.5461 -0.4378
   77MOL    H7015422   4.309   7.754   0.759  0.9452  1.0629 -1.1323
   77MOL    H7115423   4.192   0.064   0.783 -0.5528 -0.7773  0.4590
   77MOL    C7215424   4.171   7.640   0.452 -0.2386 -0.1084 -0.0122
   77MOL    C7315425   4.200   7.484   0.450  0.9974 -0.8500  0.2260
   77MOL    O7415426   4.202   7.444   0.587  0.0356 -0.5662 -0.1351
   77MOL    C7515427   4.310   7.352   0.612 -0.3592  0.5454 -0.7123
   77MOL    H7615428   4.133   7.677   0.356 -2.0499 -1.5179  0.1394
   77MOL    H7715429   4.084   7.659   0.516 -1.3905 -3.3071 -0.5542
   77MOL    H7815430   4.291   7.468   0.393 -0.2880  2.4621 -2.9404
   77MOL    H7915431   4.292   7.250   0.580  0.3388 -0.1049  0.9198
   77MOL    H8015432   4.405   7.374   0.564 -1.5749  1.2598 -2.8533
   77MOL    H8115433   4.330   7.366   0.718 -1.6888  2.8237 -0.7274
   77MOL    C8215434   4.089   7.397   0.386 -0.4001  0.6915  0.6878
   77MOL    C8315435   4.062   7.414   0.233  0.1534  0.0013 -0.5024
   77MOL    O8415436   4.191   7.380   0.174  0.3464 -0.2358  0.3938
   77MOL    C8515437   4.212   7.426   0.039  0.4374  0.1985  0.0966
   77MOL    H8615438   3.994   7.425   0.430 -0.7487  1.5646 -0.5925
   77MOL    H8715439   4.118   7.294   0.407 -0.6874  0.3554 -0.4963
   77MOL    H8815440   4.043   7.519   0.212  0.4897  0.0697 -0.4593
   77MOL    H8915441   4.135   7.389   7.782 -0.6616  0.7280  1.0262
   77MOL    H9015442   4.238   7.532   0.046 -0.3209  0.6012 -2.6546
   77MOL    H9115443   4.304   7.379   0.005 -0.1031  1.7084 -3.6513
   77MOL    C9215444   3.949   7.327   0.165  0.6535 -0.1431  0.3712
   77MOL    C9315445   3.971   7.177   0.171  0.3189 -0.1688 -0.0536
   77MOL    O9415446   3.936   7.132   0.300  0.7794  0.5594 -0.0717
   77MOL    C9515447   3.997   7.011   0.343  0.1808  0.3160  0.1325
   77MOL    H9615448   3.955   7.359   0.060  0.5566 -0.5841  0.2316
   77MOL    H9715449   3.847   7.352   0.193  0.2720  0.0595 -1.1197
   77MOL    H9815450   4.077   7.160   0.153  0.4312  1.3089 -0.8136
   77MOL    H9915451   3.989   7.010   0.452  2.4318  0.0517  0.3144
   77MOL   H10015452   3.959   6.922   0.295 -0.0926 -1.2117  3.0629
   77MOL   H10115453   4.104   6.996   0.329 -0.1330  0.3741 -2.4585
   77MOL   C10215454   3.893   7.093   0.063 -0.5651  0.1998 -0.3883
   77MOL   C10315455   3.746   7.118   0.043  1.0922 -0.2522  0.5715
   77MOL   O10415456   3.703   7.049   7.740 -0.3327 -0.0044 -0.2680
   77MOL   C10515457   3.692   7.125   7.622 -0.0697  0.5150  0.0866
   77MOL   H10615458   3.918   6.991   0.093 -0.7978  0.4496  0.6668
   77MOL   H10715459   3.937   7.110   7.775  1.9852  0.1240  0.6933
   77MOL   H10815460   3.742   7.226   0.031  0.6450 -0.3185  0.1358
   77MOL   H10915461   3.643   7.221   7.637  0.1908  0.7739 -0.6752
   77MOL   H11015462   3.793   7.151   7.592 -0.7208  2.7298 -0.2844
   77MOL   H11115463   3.641   7.069   7.542  1.1886 -0.3180 -0.1466
   77MOL   C11215464   3.669   7.063   0.165  0.3290 -0.4155  1.0757
   77MOL   C11315465   3.515   7.084   0.149 -0.3793  0.1171 -0.1049
   77MOL   O11415466   3.464   7.053   0.277 -0.1518 -0.4129 -0.4601
   77MOL   C11515467   3.408   6.916   0.285 -0.2097  0.3549 -0.1789
   77MOL   H11615468   3.704   7.112   0.255  0.3197 -0.3227  1.0291
   77MOL   H11715469   3.688   6.958   0.185  2.0413 -0.3131  0.0690
   77MOL   H11815470   3.476   7.026   0.065 -1.6322  0.6520  0.1005
   77MOL   H11915471   3.341   6.900   0.201  0.9197  1.0112 -1.2350
   77MOL   H12015472   3.493   6.849   0.273  0.5876  0.8784  2.2222
   77MOL   H12115473   3.365   6.895   0.383 -2.5871 -0.7216 -1.4270
   77MOL   C12215474   3.479   7.229   0.125 -0.5461  0.5662 -0.5038
   77MOL   C12315475   3.330   7.263   0.114  0.2092  0.2036 -0.0527
   77MOL   O12415476   3.323   7.403   0.087  0.4259 -0.1811  0.3936
   77MOL   C12515477   3.313   7.491   0.194 -0.4295 -0.4633  0.3175
   77MOL   H12615478   3.519   7.265   0.030 -2.2272 -0.5729 -1.6689
   77MOL   H12715479   3.516   7.288   0.209  0.4027  1.0002 -1.2228
   77MOL   H12815480   3.283   7.240   0.210  0.2454 -3.1811 -0.7765
   77MOL   H12915481   3.387   7.489   0.274 -2.3771 -1.5038  2.1511
   77MOL   H13015482   3.304   7.596   0.164  0.4278 -0.2288  0.8586
   77MOL   H13115483   3.227   7.449   0.247 -1.2440  0.3708 -0.3207
   77MOL   C13215484   3.255   7.189   0.007 -0.0329 -0.5868 -0.1967
   77MOL   C13315485   3.104   7.236   0.002 -0.4612 -0.0032 -0.7293
   77MOL   O13415486   3.059   7.187   7.689 -0.0628 -0.2967 -0.1116
   77MOL   C13515487   3.075   7.286   7.581 -0.1240  0.2463  0.3406
   77MOL   H13615488   3.269   7.082   0.019 -2.2279 -0.6930  1.5888
   77MOL   H13715489   3.311   7.214   7.727  0.1101 -0.2418 -0.0146
   77MOL   H13815490   3.110   7.345   7.810 -1.0553  0.0232 -1.1266
   77MOL   H13915491   3.178   7.301   7.547 -1.0170  4.9188 -0.6577
   77MOL   H14015492   3.016   7.268   7.492  1.3140  1.4172 -0.8835
   77MOL   H14115493   3.033   7.383   7.608 -1.9766 -0.0845 -1.2165
   77MOL   C14215494   3.001   7.187   0.108 -0.5236  0.0618  0.1531
   77MOL   C14315495   2.885   7.281   0.127 -0.5447  0.9101  0.2407
   77MOL   O14415496   2.786   7.200   0.185  0.0990 -0.5713  0.0717
   77MOL   C14515497   2.663   7.209   0.104  0.4771  0.2754  0.0106
   77MOL   H14615498   3.051   7.166   0.202  0.4289 -2.2486 -0.8272
   77MOL   H14715499   2.969   7.090   0.069  1.0907  0.2732 -1.8053
   77MOL   H14815500   2.869   7.319   0.026  2.4532  0.7841 -0.3170
   77MOL   H14915501   2.671   7.169   0.003 -3.0099  0.3346 -0.3487
   77MOL   H15015502   2.583   7.156   0.156  0.7383 -1.1681 -1.0065
   77MOL   H15115503   2.619   7.308   0.106 -1.1750 -0.4325 -0.4098
   77MOL   C15215504   2.909   7.405   0.219 -1.1042 -0.2292  0.2504
   77MOL   C15315505   2.935   7.375   0.371 -0.2691 -0.5076 -0.2321
   77MOL   O15415506   3.071   7.345   0.384  0.4350 -0.1805  0.1546
   77MOL   C15515507   3.103   7.226   0.456  0.3533  0.6335  0.1551
   77MOL   H15615508   2.822   7.468   0.201 -2.2588 -1.7833  0.2582
   77MOL   H15715509   2.989   7.467   0.179 -2.4584  1.9897  0.8636
   77MOL   H15815510   2.880   7.283   0.387 -0.3601 -0.7246 -1.7179
   77MOL   H15915511   3.211   7.229   0.469  0.2276  0.2993  1.3558
   77MOL   H16015512   3.069   7.206   0.557 -1.0667  1.3206 -0.1777
   77MOL   H16115513   3.064   7.140   0.402 -0.4487 -0.2308  2.0665
   77MOL   C16215514   2.886   7.496   0.463 -0.8998 -0.0160  0.0281
   77MOL   C16315515   2.897   7.460   0.614  0.3158  0.7763  0.0080
   77MOL   O16415516   2.867   7.577   0.682  0.2326 -0.0196 -0.1122
   77MOL   C16515517   2.984   7.647   0.700 -0.2267 -0.0868  0.3977
   77MOL   H16615518   2.786   7.531   0.440 -0.3585  2.5280  1.4012
   77MOL   H16715519   2.946   7.579   0.426  0.3395 -1.1747 -0.6515
   77MOL   H16815520   2.996   7.421   0.640  0.3299  0.5393 -0.3813
   77MOL   H16915521   2.948   7.738   0.747 -0.3564  0.5319 -0.8674
   77MOL   H17015522   3.061   7.614   0.769 -1.4528 -0.3339  1.6650
   77MOL   H17115523   3.029   7.677   0.605 -0.6008  1.9835  0.8370
   77MOL   C17215524   2.795   7.352   0.662 -0.1768 -0.1378 -0.6008
   77MOL   C17315525   2.786   7.320   0.815  0.1048 -0.4583 -0.5688
   77MOL   O17415526   2.669   7.239   0.842 -0.0223  0.1072 -0.0358
   77MOL   C17515527   2.581   7.285   0.946  0.2768 -0.5171  0.1086
   77MOL   H17615528   2.802   7.262   0.600  1.1144 -0.7456  0.4086
   77MOL   H17715529   2.698   7.386   0.625  0.2674  2.0570  0.2035
   77MOL   H17815530   2.774   7.411   0.874 -0.8025 -1.6189  1.1083
   77MOL   H17915531   2.502   7.213   0.970 -1.1994  0.7855 -0.7372
   77MOL   H18015532   2.636   7.310   1.036 -0.4805 -1.6458  0.9049
   77MOL   H18115533   2.526   7.376   0.924 -2.5697 -2.5354 -1.4845
   77MOL   C18215534   2.908   7.248   0.874 -0.1939 -0.7084 -0.5854
   77MOL   C18315535   3.038   7.335   0.917  0.8776  0.0923  0.1587
   77MOL   O18415536   3.011   7.436   1.013 -0.0852 -0.0457  0.0601
   77MOL   C18515537   2.957   7.403   1.141  0.2708 -0.3768  0.2754
   77MOL   H18615538   2.929   7.167   0.804  1.4318 -0.8971  0.0972
   77MOL   H18715539   2.862   7.204   0.962 -0.2867 -1.8152 -1.1825
   77MOL   H18815540   3.067   7.394   0.830 -1.4001 -0.3001 -0.9111
   77MOL   H18915541   2.859   7.357   1.135  1.4974 -3.1512  0.9618
   77MOL   H19015542   3.024   7.333   1.191  0.8255 -0.6971 -0.8942
   77MOL   H19115543   2.953   7.493   1.203 -4.5253 -2.1304  2.7839
   77MOL   C19215544   3.148   7.237   0.958 -0.2987  0.3616  0.5363
   77MOL   C19315545   3.287   7.297   0.985  0.0496 -0.4562 -0.3916
   77MOL   O19415546   3.346   7.373   0.890  0.1609 -0.4192  0.4681
   77MOL   C19515547   3.471   7.422   0.927 -0.2789  0.0845 -0.1600
   77MOL   H19615548   3.157   7.152   0.890  2.4366  0.4401  0.7483
   77MOL   H19715549   3.119   7.194   1.054  0.6096  4.0587  2.5357
   77MOL   H19815550   3.346   7.207   0.997  0.4656 -0.6268 -3.4484
   77MOL   H19915551   3.531   7.350   0.984 -1.7613 -2.3592 -1.5913
   77MOL   H20015552   3.523   7.472   0.845  1.2217  1.5219  1.6504
   77MOL   H20115553   3.450   7.498   1.001 -2.6909 -1.2188  0.5272
   77MOL   H20215554   3.276   7.353   1.078 -3.3587 -0.6965 -0.5815
   78MOL     C115555   7.128   2.138   5.019 -0.3396  0.4173 -0.6921
   78MOL     C215556   7.201   2.044   4.919 -0.5469  0.1502  0.1223
   78MOL     O315557   7.191   1.908   4.957  0.3170  0.6633  0.1408
   78MOL     C415558   7.272   1.872   5.065  0.3307  0.1870  0.2493
   78MOL     H515559   7.134   2.242   4.987 -0.5092 -0.2687 -3.0723
   78MOL     H615560   7.022   2.112   5.030 -0.2441  0.2451 -0.1921
   78MOL     H715561   7.307   2.070   4.921 -0.8921  1.4796  1.8444
   78MOL     H815562   7.379   1.865   5.048  0.3223 -0.3690  0.4246
   78MOL     H915563   7.267   1.933   5.155 -0.3994 -1.4410  1.3220
   78MOL    H1015564   7.248   1.770   5.096  0.7239  0.6075  1.9766
   78MOL    H1115565   7.183   2.134   5.113 -0.1286 -0.4464 -0.8443
   78MOL    C1215566   7.164   2.053   4.771  0.2533  0.2292 -0.6997
   78MOL    C1315567   7.013   2.025   4.740  0.0699 -0.3851  0.4832
   78MOL    O1415568   6.956   2.144   4.786  0.0734 -0.4575 -0.1301
   78MOL    C1515569   6.831   2.111   4.844  0.3214  0.4061 -0.1817
   78MOL    H1615570   7.218   1.982   4.708 -2.0055 -1.3951 -0.8508
   78MOL    H1715571   7.183   2.155   4.736  1.5638 -0.0445 -0.8010
   78MOL    H1815572   6.985   1.937   4.797 -3.3782  1.6108  1.9993
   78MOL    H1915573   6.753   2.061   4.786 -1.1540  0.4143  1.7180
   78MOL    H2015574   6.846   2.034   4.920 -0.2084  2.0895  1.6606
   78MOL    H2115575   6.786   2.201   4.886  0.3855  0.5833 -0.4972
   78MOL    C2215576   6.987   2.008   4.590  0.5772  0.1877  0.5528
   78MOL    C2315577   7.061   1.909   4.499 -0.0293 -0.5099  1.0068
   78MOL    O2415578   7.031   1.777   4.541 -0.3857  0.2258 -0.1756
   78MOL    C2515579   7.133   1.694   4.598 -0.2811 -0.3758 -0.2788
   78MOL    H2615580   7.009   2.105   4.545  1.2653 -1.0611 -1.9005
   78MOL    H2715581   6.883   1.985   4.570  0.9575 -0.2692 -0.9611
   78MOL    H2815582   7.168   1.927   4.495 -0.0005 -1.0724 -1.0325
   78MOL    H2915583   7.223   1.708   4.539 -1.7908  0.6765 -2.4026
   78MOL    H3015584   7.167   1.716   4.699  0.2160 -1.1571 -0.2686
   78MOL    H3115585   7.097   1.591   4.595  0.2287 -0.6183  1.4282
   78MOL    C3215586   7.025   1.930   4.349 -0.0679  0.1902 -0.0746
   78MOL    C3315587   7.122   1.877   4.244 -0.2149 -0.4370  0.2273
   78MOL    O3415588   7.255   1.918   4.268  0.5072 -0.4994  0.2192
   78MOL    C3515589   7.330   1.952   4.149 -0.3473  0.8407 -1.0682
   78MOL    H3615590   7.009   2.036   4.327 -1.2738  0.3380  1.4357
   78MOL    H3715591   6.925   1.888   4.339  0.2905 -0.7276  0.2197
   78MOL    H3815592   7.089   1.925   4.153  0.7318 -0.5601 -0.1803
   78MOL    H3915593   7.377   1.877   4.086 -0.6434 -0.2437 -0.0167
   78MOL    H4015594   7.278   2.034   4.099 -2.1464 -0.4141 -1.3157
   78MOL    H4115595   7.417   1.999   4.193 -2.0128  1.5605  1.5427
   78MOL    C4215596   7.117   1.723   4.225  0.4131 -0.0839 -0.4293
   78MOL    C4315597   6.979   1.652   4.205 -0.7069 -0.2701  0.5018
   78MOL    O4415598   6.938   1.699   4.080 -0.0773 -0.0591 -0.2820
   78MOL    C4515599   6.794   1.691   4.053  0.1107 -0.5154  0.0169
   78MOL    H4615600   7.142   1.671   4.318 -2.7752  0.1990  0.6208
   78MOL    H4715601   7.191   1.680   4.157  0.9713  1.6367 -0.9418
   78MOL    H4815602   6.915   1.681   4.289 -2.6815 -1.6415 -0.4950
   78MOL    H4915603   6.756   1.698   3.951  2.6267 -2.4230 -1.1256
   78MOL    H5015604   6.768   1.592   4.092 -1.0091 -0.4269 -0.4879
   78MOL    H5115605   6.739   1.755   4.121 -0.1627 -1.8455  1.0590
   78MOL    C5215606   6.984   1.498   4.217  1.2475 -0.0356 -0.0476
   78MOL    C5315607   7.059   1.427   4.107 -0.3546 -0.3338 -0.3008
   78MOL    O5415608   7.059   1.290   4.141  0.3409 -0.0143 -0.3389
   78MOL    C5515609   7.179   1.243   4.206 -1.0168 -0.5169  0.5799
   78MOL    H5615610   6.886   1.454   4.232  1.4397  0.0599  1.5564
   78MOL    H5715611   7.033   1.494   4.315  0.3009 -0.7827  0.4074
   78MOL    H5815612   7.161   1.461   4.093 -0.0100 -1.9703 -1.9371
   78MOL    H5915613   7.261   1.246   4.134 -1.3968  1.1410  0.1793
   78MOL    H6015614   7.192   1.316   4.286 -0.4493 -1.3411  1.2448
   78MOL    H6115615   7.149   1.146   4.244 -1.6916  0.1852  1.9097
   78MOL    C6215616   6.999   1.433   3.958  0.4950  0.0721  0.0459
   78MOL    C6315617   7.045   1.333   3.854  0.6597  0.7042  0.0343
   78MOL    O6415618   6.957   1.336   3.745  0.2876  0.4800  0.3957
   78MOL    C6515619   6.852   1.242   3.743  0.2948  0.4277  0.1492
   78MOL    H6615620   7.001   1.535   3.921 -2.0538  0.9762  2.3027
   78MOL    H6715621   6.895   1.410   3.979  0.0720  1.4339 -0.5110
   78MOL    H6815622   7.044   1.232   3.895 -0.0155  1.1533  1.1723
   78MOL    H6915623   6.794   1.240   3.652  1.4887 -1.7733 -0.6067
   78MOL    H7015624   6.883   1.145   3.783 -1.5414 -0.1589  0.1840
   78MOL    H7115625   6.774   1.259   3.817 -2.1442 -1.9902 -1.7632
   78MOL    C7215626   7.185   1.375   3.801  0.2054 -0.1755  0.8303
   78MOL    C7315627   7.251   1.265   3.720  0.7490 -0.0301 -0.2382
   78MOL    O7415628   7.361   1.329   3.650 -0.7005 -0.1530 -0.5807
   78MOL    C7515629   7.330   1.349   3.512 -0.2589 -0.8036 -0.7293
   78MOL    H7615630   7.249   1.424   3.874 -1.3363 -0.9190  2.7118
   78MOL    H7715631   7.173   1.452   3.725 -0.2048 -1.4138 -0.3731
   78MOL    H7815632   7.171   1.232   3.653  1.3522  1.7661 -1.9039
   78MOL    H7915633   7.378   1.270   3.454  2.1896 -1.2177  1.7758
   78MOL    H8015634   7.223   1.341   3.489 -0.4192  1.0595 -0.6923
   78MOL    H8115635   7.366   1.442   3.470 -3.8882  1.2240  0.3943
   78MOL    C8215636   7.306   1.140   3.793 -0.2626 -0.1781  0.1035
   78MOL    C8315637   7.342   1.023   3.699  0.0275 -0.2304  0.7406
   78MOL    O8415638   7.437   0.935   3.743 -0.3159 -0.1317  0.1064
   78MOL    C8515639   7.553   1.001   3.783 -0.4511 -0.2688  0.5093
   78MOL    H8615640   7.232   1.102   3.864  0.2775 -0.5066  0.4890
   78MOL    H8715641   7.391   1.175   3.850 -0.4646  0.1630  0.1980
   78MOL    H8815642   7.375   1.056   3.600 -0.8176 -0.4358  0.3801
   78MOL    H8915643   7.574   1.090   3.724  0.2823 -0.6411  0.2025
   78MOL    H9015644   7.539   1.040   3.884  1.4797  1.0036  0.3076
   78MOL    H9115645   7.634   0.928   3.779 -2.1301 -2.0861 -1.5794
   78MOL    C9215646   7.219   0.935   3.667 -0.2236  0.0463  0.4600
   78MOL    C9315647   7.240   0.808   3.573 -0.2403 -0.4466 -0.7242
   78MOL    O9415648   7.114   0.739   3.552 -0.0852  0.1799 -0.3150
   78MOL    C9515649   7.120   0.613   3.485 -0.3293  0.4400 -0.8235
   78MOL    H9615650   7.140   1.000   3.630  1.6621  1.7623 -0.6924
   78MOL    H9715651   7.177   0.897   3.759 -1.9712 -1.2015 -0.8331
   78MOL    H9815652   7.303   0.742   3.632 -1.2923 -1.2703 -0.5162
   78MOL    H9915653   7.202   0.560   3.534 -1.6189 -0.5990  0.2309
   78MOL   H10015654   7.019   0.574   3.478 -0.3350  0.0600  0.9995
   78MOL   H10115655   7.156   0.638   3.385 -1.0242 -0.4115 -1.2884
   78MOL   C10215656   7.304   0.841   3.433 -0.7229 -0.6528  0.2602
   78MOL   C10315657   7.211   0.908   3.333 -0.2641  0.6792 -0.2141
   78MOL   O10415658   7.189   1.034   3.388  0.0194 -0.3579  0.2465
   78MOL   C10515659   7.054   1.071   3.390  0.1659 -0.5641  0.1723
   78MOL   H10615660   7.342   0.746   3.395 -0.5416  0.0833 -1.4376
   78MOL   H10715661   7.391   0.906   3.444 -1.4956  0.2119  1.4092
   78MOL   H10815662   7.125   0.842   3.320  0.1802  0.2512 -0.9900
   78MOL   H10915663   6.991   1.006   3.450 -0.7691 -0.0377 -0.2202
   78MOL   H11015664   7.053   1.172   3.431 -0.0427  0.1562 -1.5569
   78MOL   H11115665   7.014   1.071   3.288 -1.2013  2.2198  0.6665
   78MOL   C11215666   7.270   0.935   3.193 -0.6626  0.9015 -0.2232
   78MOL   C11315667   7.293   0.824   3.099 -0.1309 -0.4693 -0.0671
   78MOL   O11415668   7.383   0.729   3.149 -0.2468  0.4577 -0.3669
   78MOL   C11515669   7.517   0.754   3.124 -1.0019  0.4610 -0.3551
   78MOL   H11615670   7.365   0.981   3.222 -0.3777 -0.1224  0.4844
   78MOL   H11715671   7.221   1.017   3.140  1.4462  0.8577 -2.3349
   78MOL   H11815672   7.324   0.864   3.002 -2.6197 -0.5243 -0.9017
   78MOL   H11915673   7.579   0.668   3.148 -0.4995  0.5651 -1.2706
   78MOL   H12015674   7.530   0.790   3.022 -1.3750  1.2915 -0.1187
   78MOL   H12115675   7.555   0.842   3.176  1.8906 -1.0991  0.2510
   78MOL   C12215676   7.166   0.748   3.062 -0.5864 -0.3120  0.0795
   78MOL   C12315677   7.068   0.824   2.970  0.4458  0.1465 -0.1312
   78MOL   O12415678   7.128   0.865   2.852  0.1099  0.1929  0.5307
   78MOL   C12515679   7.147   1.002   2.826  0.0448  0.2235 -0.1404
   78MOL   H12615680   7.115   0.714   3.153 -1.3283 -2.2979 -1.0433
   78MOL   H12715681   7.192   0.657   3.008  0.0796  1.0290 -1.9077
   78MOL   H12815682   7.038   0.915   3.022 -1.4979 -1.7043  2.0721
   78MOL   H12915683   7.190   1.020   2.727  0.0287  0.0917 -0.1703
   78MOL   H13015684   7.044   1.038   2.827 -0.5359 -1.3233  3.1717
   78MOL   H13115685   7.204   1.059   2.900  1.1036  0.7914 -1.3795
   78MOL   C13215686   6.934   0.755   2.938  0.1093 -0.4800 -0.0440
   78MOL   C13315687   6.869   0.668   3.042  0.3219 -0.2460 -0.4206
   78MOL   O13415688   6.838   0.765   3.142 -0.0026  0.4987  0.1246
   78MOL   C13515689   6.828   0.720   3.275  0.5290  0.2803 -0.2030
   78MOL   H13615690   6.945   0.711   2.839  0.4022  0.4422 -0.4227
   78MOL   H13715691   6.869   0.837   2.908  1.1323  0.2126 -0.3573
   78MOL   H13815692   6.936   0.585   3.066 -0.4195 -0.2329  1.8015
   78MOL   H13915693   6.858   0.803   3.339  1.0602  0.5891 -0.8513
   78MOL   H14015694   6.734   0.679   3.312 -0.1273  0.5624 -1.5002
   78MOL   H14115695   6.904   0.644   3.294 -0.2144 -0.4258 -0.0155
   78MOL   C14215696   6.728   0.611   2.996  0.2264  0.1080 -0.1496
   78MOL   C14315697   6.674   0.496   3.070 -0.1752  0.3258  0.6564
   78MOL   O14415698   6.539   0.471   3.029 -0.2433  0.2930 -0.3140
   78MOL   C14515699   6.436   0.548   3.082  0.4987  0.5532 -0.4271
   78MOL   H14615700   6.727   0.590   2.889  0.4583 -0.9181  0.0398
   78MOL   H14715701   6.660   0.696   2.993  1.3988  1.0504 -0.4151
   78MOL   H14815702   6.664   0.521   3.175 -0.0914 -3.3428  1.6166
   78MOL   H14915703   6.424   0.517   3.186  1.5398  0.7385 -0.2460
   78MOL   H15015704   6.461   0.654   3.084 -0.3737  0.7655 -0.6557
   78MOL   H15115705   6.342   0.539   3.029 -0.7061 -2.2080  2.0130
   78MOL   C15215706   6.769   0.373   3.057  0.2938 -0.2087  0.4436
   78MOL   C15315707   6.731   0.244   3.123 -0.8216  0.4192 -0.5587
   78MOL   O15415708   6.805   0.132   3.077 -0.4362  0.1266  0.8077
   78MOL   C15515709   6.746   0.051   2.989  0.0900 -0.4009 -0.2966
   78MOL   H15615710   6.874   0.395   3.077  0.1708 -0.4561  1.3841
   78MOL   H15715711   6.761   0.350   2.950  2.8634 -2.5780  0.7135
   78MOL   H15815712   6.622   0.236   3.118 -0.7332 -0.9944 -0.5772
   78MOL   H15915713   6.672   7.799   3.038  0.6994 -1.1340 -0.2972
   78MOL   H16015714   6.710   0.102   2.900 -1.0976  0.9743  0.9628
   78MOL   H16115715   6.821   7.790   2.954  0.3625 -1.7516  2.9325
   78MOL   C16215716   6.748   0.251   3.275  0.6814  0.1190  0.7677
   78MOL   C16315717   6.707   0.127   3.362  0.2291  0.5454  1.1797
   78MOL   O16415718   6.727   0.155   3.500  0.3139  0.3043  0.0285
   78MOL   C16515719   6.860   0.116   3.552 -0.1716 -0.5489  0.0334
   78MOL   H16615720   6.692   0.331   3.322 -1.9757  0.4151 -2.7525
   78MOL   H16715721   6.854   0.269   3.291  0.2207  2.6037  1.1030
   78MOL   H16815722   6.755   0.035   3.327  1.1249  1.1383  0.8459
   78MOL   H16915723   6.935   0.175   3.499 -0.8402 -0.0941 -0.4292
   78MOL   H17015724   6.868   0.169   3.646 -0.7162 -1.3192  0.5179
   78MOL   H17115725   6.876   0.009   3.560  0.1120 -0.5727 -0.7649
   78MOL   C17215726   6.550   0.111   3.356  0.0061  0.3003  0.0949
   78MOL   C17315727   6.513   7.773   3.386  0.1883  0.6212  0.7991
   78MOL   O17415728   6.378   7.755   3.430  0.2225 -0.0178  0.4056
   78MOL   C17515729   6.332   0.017   3.542  0.1490  0.9057  0.0394
   78MOL   H17615730   6.507   0.152   3.265 -2.4157 -1.1045  0.5588
   78MOL   H17715731   6.522   0.179   3.437  0.8344 -0.9060  1.4079
   78MOL   H17815732   6.581   7.738   3.464  1.1559 -2.0487 -1.1496
   78MOL   H17915733   6.317   0.117   3.503 -1.4441  0.2371 -1.1423
   78MOL   H18015734   6.238   7.783   3.577  1.6109 -0.5855  2.2430
   78MOL   H18115735   6.406   0.028   3.620  0.8325  1.9823 -0.7593
   78MOL   C18215736   6.529   7.675   3.265 -0.4730  0.1810  0.4331
   78MOL   C18315737   6.532   7.532   3.302  0.4019 -0.0389 -0.4699
   78MOL   O18415738   6.546   7.473   3.180  0.9096  0.0074 -0.2531
   78MOL   C18515739   6.488   7.349   3.163  0.2316  0.4188  0.2474
   78MOL   H18615740   6.621   7.693   3.208 -2.4456  2.2235 -2.2182
   78MOL   H18715741   6.444   7.689   3.198 -1.1061  0.5683  1.3130
   78MOL   H18815742   6.430   7.513   3.337  1.0918 -0.5089  1.3300
   78MOL   H18915743   6.521   7.284   3.244  0.0659  1.2276  0.9764
   78MOL   H19015744   6.383   7.370   3.185 -0.0861  0.9754 -1.7346
   78MOL   H19115745   6.503   7.310   3.063  1.2958  3.3015 -0.7699
   78MOL   C19215746   6.651   7.494   3.393  0.1930 -0.2952  0.7357
   78MOL   C19315747   6.611   7.446   3.537 -0.0583  0.2559  0.5129
   78MOL   O19415748   6.729   7.392   3.594  0.0422  0.3007  0.3910
   78MOL   C19515749   6.702   7.331   3.717 -0.0286 -0.4729 -0.2095
   78MOL   H19615750   6.731   7.567   3.409  1.2094 -1.2859  0.2056
   78MOL   H19715751   6.697   7.407   3.347 -1.3263 -0.6984 -0.0290
   78MOL   H19815752   6.541   7.363   3.521  1.3660 -1.3590  2.4596
   78MOL   H19915753   6.618   7.262   3.709  0.2214 -0.5334 -2.6524
   78MOL   H20015754   6.795   7.282   3.745 -0.3815 -1.7723 -1.2401
   78MOL   H20115755   6.686   7.402   3.799  1.9023  0.5199 -0.6549
   78MOL   H20215756   6.559   7.520   3.598 -1.1739 -0.4354  0.4266
   79MOL     C115757   2.713   1.791   6.984 -0.3593 -0.1095  0.2645
   79MOL     C215758   2.587   1.700   6.980 -0.1657 -0.4087  0.2908
   79MOL     O315759   2.528   1.718   7.109 -0.1281 -0.2475  0.0251
   79MOL     C415760   2.554   1.617   7.199  0.0819 -0.7105 -0.6292
   79MOL     H515761   2.687   1.896   7.003  2.8316  0.5844  1.0525
   79MOL     H615762   2.791   1.758   7.053 -0.7255  3.8436  2.7784
   79MOL     H715763   2.607   1.593   6.972 -1.8001 -0.6715 -0.4721
   79MOL     H815764   2.515   1.517   7.177 -3.1942 -0.0445  1.7087
   79MOL     H915765   2.661   1.600   7.213 -0.1344  0.1703  2.4137
   79MOL    H1015766   2.514   1.650   7.295 -1.1345 -0.9324 -1.0559
   79MOL    H1115767   2.760   1.779   6.887  0.5870  0.1791  0.6847
   79MOL    C1215768   2.489   1.744   6.874  0.1244 -1.1865  0.1728
   79MOL    C1315769   2.506   1.679   6.729  0.1200  0.1419 -0.1727
   79MOL    O1415770   2.452   1.545   6.741  0.2146  0.1385  0.3497
   79MOL    C1515771   2.534   1.465   6.661 -0.0636 -0.1596  0.8474
   79MOL    H1615772   2.507   1.851   6.867  0.1611 -1.2827 -1.2498
   79MOL    H1715773   2.384   1.738   6.902 -0.3350  1.0808 -0.9990
   79MOL    H1815774   2.612   1.686   6.707  0.0492  1.3981 -0.2023
   79MOL    H1915775   2.634   1.447   6.700  0.0345  0.6135  0.9568
   79MOL    H2015776   2.488   1.366   6.666 -2.4224  0.9168  0.9622
   79MOL    H2115777   2.538   1.490   6.555  0.2363  1.1262  1.1571
   79MOL    C2215778   2.405   1.760   6.638 -0.0601  0.3672 -0.6528
   79MOL    C2315779   2.450   1.760   6.491 -0.1818  0.0390  0.4386
   79MOL    O2415780   2.358   1.833   6.422  0.2734  0.3365 -0.1159
   79MOL    C2515781   2.249   1.753   6.367  0.4676  0.3257  0.5575
   79MOL    H2615782   2.399   1.861   6.678 -1.2970 -0.1239  0.4277
   79MOL    H2715783   2.309   1.710   6.651  0.9533 -1.5718 -0.4586
   79MOL    H2815784   2.453   1.658   6.452 -3.1648  0.2956 -0.5898
   79MOL    H2915785   2.166   1.807   6.321 -0.0649 -0.1121  0.9960
   79MOL    H3015786   2.290   1.673   6.305  0.5150  0.1012  0.8776
   79MOL    H3115787   2.191   1.703   6.444  0.5535  1.4373  1.3529
   79MOL    C3215788   2.581   1.836   6.485  0.1579  0.1843  0.2167
   79MOL    C3315789   2.627   1.863   6.342 -0.2678 -0.6343 -0.9527
   79MOL    O3415790   2.762   1.914   6.344  0.1479 -0.1582  0.1537
   79MOL    C3515791   2.771   2.044   6.380 -0.2740 -0.4830  0.0074
   79MOL    H3615792   2.664   1.786   6.536 -0.2181 -1.2770 -0.5673
   79MOL    H3715793   2.560   1.933   6.530  1.7006 -0.6299  2.7886
   79MOL    H3815794   2.557   1.935   6.301  1.0832  0.4143 -1.4621
   79MOL    H3915795   2.694   2.107   6.335  0.0461  1.2014  1.7246
   79MOL    H4015796   2.769   2.061   6.488  1.0686 -0.5762  0.0476
   79MOL    H4115797   2.868   2.083   6.350 -0.0521 -0.9433  0.1195
   79MOL    C4215798   2.627   1.736   6.251 -0.6617  0.4095  0.2778
   79MOL    C4315799   2.660   1.769   6.101 -0.9740  0.6537 -0.0989
   79MOL    O4415800   2.658   1.638   6.036 -0.6080 -0.4485  0.6924
   79MOL    C4515801   2.777   1.560   6.042  0.0270  0.4552  0.3598
   79MOL    H4615802   2.527   1.692   6.253 -0.4916 -0.0270 -0.5202
   79MOL    H4715803   2.702   1.667   6.291 -0.9442  1.3644  2.5074
   79MOL    H4815804   2.758   1.818   6.098 -0.9752  0.7568  1.2061
   79MOL    H4915805   2.833   1.595   6.129 -0.1902  1.1848  0.2135
   79MOL    H5015806   2.734   1.461   6.055  1.8502 -0.0079  3.2245
   79MOL    H5115807   2.840   1.573   5.954 -2.0303  0.6326 -1.1417
   79MOL    C5215808   2.547   1.858   6.042 -0.3790 -0.9136  0.3084
   79MOL    C5315809   2.521   1.856   5.883 -0.1487  0.1438 -0.2946
   79MOL    O5415810   2.383   1.828   5.855 -0.2237  0.1794 -0.1768
   79MOL    C5515811   2.345   1.697   5.883  0.2916  0.2427  0.0000
   79MOL    H5615812   2.568   1.963   6.066  0.9484 -0.8578 -1.0239
   79MOL    H5715813   2.459   1.813   6.088  1.2641 -1.9018  2.5883
   79MOL    H5815814   2.571   1.770   5.839 -0.6146  1.0000 -2.5628
   79MOL    H5915815   2.237   1.691   5.894  0.1489 -1.3490 -1.9966
   79MOL    H6015816   2.362   1.634   5.796 -0.8509 -1.8970  1.2814
   79MOL    H6115817   2.404   1.647   5.960 -1.6928 -0.4491  1.1038
   79MOL    C6215818   2.567   1.984   5.805  0.4252  0.0166  0.2838
   79MOL    C6315819   2.719   2.007   5.798 -0.1444 -0.3912  0.0890
   79MOL    O6415820   2.790   1.913   5.711 -0.2550  0.0680 -0.4183
   79MOL    C6515821   2.889   1.838   5.783  0.3012 -0.5998  0.1961
   79MOL    H6615822   2.515   2.068   5.852  0.2145 -0.2281  0.4925
   79MOL    H6715823   2.528   1.974   5.704  1.1140  2.9221 -0.3163
   79MOL    H6815824   2.758   1.994   5.899 -0.6992  1.4123  0.5506
   79MOL    H6915825   2.940   1.777   5.708  1.8624 -1.5240  1.9912
   79MOL    H7015826   2.956   1.899   5.844 -1.6377  0.5656  1.1967
   79MOL    H7115827   2.848   1.773   5.859  0.6775  1.1700  1.9576
   79MOL    C7215828   2.763   2.154   5.755 -0.3676 -0.3724 -0.4948
   79MOL    C7315829   2.718   2.271   5.847 -0.8093  0.3671 -0.4301
   79MOL    O7415830   2.799   2.255   5.961  0.4079 -0.0147 -0.5163
   79MOL    C7515831   2.731   2.273   6.086  0.4605  0.2430 -0.2832
   79MOL    H7615832   2.721   2.172   5.657 -1.8103  2.8168  0.6463
   79MOL    H7715833   2.871   2.154   5.738 -0.0942  1.0716  1.0365
   79MOL    H7815834   2.612   2.266   5.871 -1.2530 -0.2263 -2.3843
   79MOL    H7915835   2.677   2.184   6.119  1.7706 -0.4903 -0.0908
   79MOL    H8015836   2.799   2.288   6.170  0.7675 -1.8041 -0.1333
   79MOL    H8115837   2.676   2.366   6.077 -0.4761 -0.4802 -2.5994
   79MOL    C8215838   2.747   2.409   5.800 -0.0875  0.7660  0.8925
   79MOL    C8315839   2.671   2.459   5.672 -1.0079 -0.2982  0.5640
   79MOL    O8415840   2.533   2.459   5.681  0.6460  0.2567 -0.1171
   79MOL    C8515841   2.469   2.342   5.634  0.2806  0.2863  0.0006
   79MOL    H8615842   2.853   2.422   5.779  0.5300 -1.0636  2.7212
   79MOL    H8715843   2.721   2.486   5.872 -0.5483  1.8823 -0.4369
   79MOL    H8815844   2.706   2.400   5.588 -1.1470  0.8958 -0.3437
   79MOL    H8915845   2.455   2.278   5.721  4.9653  0.9963  1.4042
   79MOL    H9015846   2.376   2.352   5.578 -0.3259  1.2882  1.1582
   79MOL    H9115847   2.527   2.277   5.568 -0.1487  0.4651 -0.5604
   79MOL    C9215848   2.712   2.604   5.643  0.6117 -0.3157 -0.3236
   79MOL    C9315849   2.679   2.659   5.498  0.2644 -0.5652  0.2295
   79MOL    O9415850   2.720   2.562   5.403  0.2705  0.0436 -0.0558
   79MOL    C9515851   2.864   2.556   5.390 -0.0268 -0.4763  0.4193
   79MOL    H9615852   2.814   2.633   5.669  0.2377  2.4613 -1.8166
   79MOL    H9715853   2.652   2.658   5.716  1.1359 -0.9374  0.5908
   79MOL    H9815854   2.732   2.754   5.484 -1.4003  0.3210 -0.2199
   79MOL    H9915855   2.916   2.488   5.458  1.1189 -1.1717 -1.1264
   79MOL   H10015856   2.888   2.507   5.296 -0.6544 -0.1021  0.0627
   79MOL   H10115857   2.919   2.650   5.396 -0.8922  0.0602  0.0237
   79MOL   C10215858   2.532   2.687   5.461  0.7888  0.5156  0.5921
   79MOL   C10315859   2.465   2.800   5.540  0.4947 -0.2167  0.0875
   79MOL   O10415860   2.525   2.931   5.525 -0.4950  0.0848  0.0157
   79MOL   C10515861   2.594   2.985   5.638  0.3817  0.0693 -0.3405
   79MOL   H10615862   2.472   2.597   5.475 -1.4317  2.2165  2.5336
   79MOL   H10715863   2.527   2.708   5.354 -0.4284 -0.1351  0.5101
   79MOL   H10815864   2.476   2.780   5.647  0.7475  2.3271  0.5748
   79MOL   H10915865   2.660   2.922   5.699  1.2721  1.5349  0.2491
   79MOL   H11015866   2.656   3.069   5.607  0.5855 -0.4358 -1.3006
   79MOL   H11115867   2.518   3.019   5.708 -0.1023  2.6663 -2.0591
   79MOL   C11215868   2.319   2.822   5.508  0.2295 -0.7650 -0.0929
   79MOL   C11315869   2.214   2.713   5.529 -0.0012  0.0624 -0.2749
   79MOL   O11415870   2.220   2.686   5.671 -0.2501  0.2173  0.3069
   79MOL   C11515871   2.162   2.558   5.706  0.7718 -0.1720  0.5979
   79MOL   H11615872   2.309   2.849   5.403  0.3416  0.5881  0.2387
   79MOL   H11715873   2.277   2.905   5.564  1.9810  1.0446 -1.3880
   79MOL   H11815874   2.252   2.621   5.484 -2.8130 -1.9047  1.2189
   79MOL   H11915875   2.161   2.532   5.812 -0.5444  0.5952  0.7771
   79MOL   H12015876   2.064   2.532   5.666 -0.8377  0.9848  3.6164
   79MOL   H12115877   2.225   2.476   5.671  1.3628  0.2388  0.7034
   79MOL   C12215878   2.072   2.737   5.477  0.2549 -0.8679  0.5002
   79MOL   C12315879   2.049   2.710   5.334  1.3889 -0.0636  0.0556
   79MOL   O12415880   2.051   2.567   5.315  0.3254 -0.3553  0.7664
   79MOL   C12515881   2.112   2.533   5.192  0.0179 -0.4840 -0.3878
   79MOL   H12615882   2.026   2.830   5.510 -2.6106 -1.0897 -2.6317
   79MOL   H12715883   2.007   2.666   5.529 -0.2566 -0.0063  1.0545
   79MOL   H12815884   2.125   2.760   5.274 -0.9716  2.2774 -1.0836
   79MOL   H12915885   2.087   2.434   5.154  0.5335 -0.1510 -1.6216
   79MOL   H13015886   2.094   2.598   5.106  0.1244  1.9611  1.3679
   79MOL   H13115887   2.219   2.532   5.211  0.0075 -1.1674 -0.3625
   79MOL   C13215888   1.920   2.760   5.275  0.6234  0.3649  1.1154
   79MOL   C13315889   1.907   2.917   5.278 -0.3081 -0.0403 -0.4696
   79MOL   O13415890   2.010   2.977   5.207 -0.3569  0.1853 -0.3257
   79MOL   C13515891   2.062   3.094   5.264  0.0192  0.3780  0.5872
   79MOL   H13615892   1.834   2.731   5.335 -0.5352 -1.1055 -1.1762
   79MOL   H13715893   1.915   2.722   5.173  1.0646  0.1350  1.1808
   79MOL   H13815894   1.915   2.951   5.381  0.5455 -0.7834 -0.2811
   79MOL   H13915895   2.146   3.130   5.204  1.3100  0.7045  2.5668
   79MOL   H14015896   1.992   3.171   5.294 -0.2484  0.3394  0.0764
   79MOL   H14115897   2.117   3.056   5.350  0.5942 -0.5632 -0.1856
   79MOL   C14215898   1.779   2.964   5.203 -0.3104 -0.0792 -0.4140
   79MOL   C14315899   1.641   2.918   5.256  0.8281  0.4901 -0.0606
   79MOL   O14415900   1.624   2.963   5.390  0.4329 -0.4462 -0.1467
   79MOL   C14515901   1.574   2.878   5.498  0.7697  0.3014  0.6796
   79MOL   H14615902   1.790   2.938   5.097  0.4916 -2.0438  0.1310
   79MOL   H14715903   1.779   3.072   5.219  0.2962 -0.2265  0.6096
   79MOL   H14815904   1.658   2.810   5.254 -1.8866 -0.0371  2.3562
   79MOL   H14915905   1.520   2.794   5.455 -0.8378  0.6733  1.8947
   79MOL   H15015906   1.660   2.838   5.552  0.4049  0.1900  1.1884
   79MOL   H15115907   1.512   2.924   5.576 -1.6768 -1.7988  0.0210
   79MOL   C15215908   1.524   2.963   5.173  0.4883  0.2039 -0.7703
   79MOL   C15315909   1.504   2.918   5.022 -0.3494  0.1694  0.0492
   79MOL   O15415910   1.494   2.778   5.023  0.5342  0.8176  0.1457
   79MOL   C15515911   1.511   2.713   4.896 -0.1851  1.0041 -0.1674
   79MOL   H15615912   1.541   3.071   5.181 -0.4585  0.3574 -0.8313
   79MOL   H15715913   1.436   2.944   5.235  1.5834 -2.6042 -0.0380
   79MOL   H15815914   1.596   2.944   4.968  0.9127  1.9862  2.9147
   79MOL   H15915915   1.424   2.722   4.831  1.0834 -1.9048 -2.3600
   79MOL   H16015916   1.602   2.751   4.850  0.7329 -0.2410  0.5858
   79MOL   H16115917   1.537   2.609   4.915  0.6671  0.9825 -1.4467
   79MOL   C16215918   1.382   2.987   4.947  0.2751  0.3760 -0.0898
   79MOL   C16315919   1.388   3.138   4.901  0.3156 -0.0685  0.5492
   79MOL   O16415920   1.414   3.241   4.999  0.1201  0.3189 -0.4102
   79MOL   C16515921   1.304   3.244   5.082 -0.2813 -0.2011  0.1381
   79MOL   H16615922   1.293   2.975   5.009  0.6056  0.5286  0.4160
   79MOL   H16715923   1.361   2.930   4.856  1.6613 -1.7945  0.9011
   79MOL   H16815924   1.298   3.164   4.845 -0.0951  0.4305  1.4218
   79MOL   H16915925   1.328   3.192   5.175 -1.5710  0.9712  1.1554
   79MOL   H17015926   1.288   3.350   5.102 -2.2096 -0.1146 -1.6651
   79MOL   H17115927   1.206   3.208   5.053  0.1537  0.3151 -2.0905
   79MOL   C17215928   1.512   3.156   4.797 -0.1204  0.1905 -0.3303
   79MOL   C17315929   1.515   3.080   4.669  0.4101  0.5000  0.0649
   79MOL   O17415930   1.397   3.110   4.596  0.2522 -0.2193  0.2230
   79MOL   C17515931   1.293   3.015   4.580  0.3167  0.2156  0.1611
   79MOL   H17615932   1.604   3.142   4.855 -1.1602 -0.9091  1.0748
   79MOL   H17715933   1.505   3.261   4.768 -0.1577  0.2277 -0.1885
   79MOL   H17815934   1.509   2.977   4.703  1.0675 -0.2587 -2.0066
   79MOL   H17915935   1.238   3.052   4.493 -0.4392 -1.6390 -0.1911
   79MOL   H18015936   1.338   2.916   4.569  0.6561  0.3191  0.6458
   79MOL   H18115937   1.222   3.017   4.663 -0.7699  0.1850 -0.7405
   79MOL   C18215938   1.639   3.109   4.590 -0.0688 -0.3472 -0.4547
   79MOL   C18315939   1.689   2.999   4.493 -0.5466  0.2352 -0.1014
   79MOL   O18415940   1.792   3.049   4.411 -0.3482 -0.1765 -0.8554
   79MOL   C18515941   1.755   3.114   4.287 -1.0547  0.4288 -0.0204
   79MOL   H18615942   1.724   3.138   4.651 -1.1458  1.2009  0.3477
   79MOL   H18715943   1.628   3.201   4.533  3.4790 -1.0029 -2.3479
   79MOL   H18815944   1.608   2.949   4.439 -1.6464 -0.1988  1.8868
   79MOL   H18915945   1.713   3.046   4.212 -0.5635 -0.5003  0.5412
   79MOL   H19015946   1.680   3.190   4.305  0.3514  1.8698 -0.1722
   79MOL   H19115947   1.845   3.154   4.240 -1.0375  1.9730  1.2940
   79MOL   C19215948   1.757   2.869   4.555  0.3409 -0.7266  0.3358
   79MOL   C19315949   1.789   2.768   4.445  0.3211  0.1664 -0.3724
   79MOL   O19415950   1.843   2.648   4.498  0.0573 -0.1519  0.4553
   79MOL   C19515951   1.821   2.532   4.416  0.1547 -0.1955 -0.3039
   79MOL   H19615952   1.696   2.833   4.638  1.2212  0.7415  1.6526
   79MOL   H19715953   1.851   2.892   4.606  0.0155 -0.2676  0.7304
   79MOL   H19815954   1.866   2.812   4.382 -0.0021  1.1555 -0.0812
   79MOL   H19915955   1.718   2.525   4.382 -0.4630 -0.3509  1.5249
   79MOL   H20015956   1.899   2.536   4.340  1.6541 -2.0778  1.0986
   79MOL   H20115957   1.849   2.437   4.462 -2.4118 -1.2362 -0.8165
   79MOL   H20215958   1.701   2.743   4.386 -0.1080 -0.4430  0.5091
   80MOL     C115959   0.788   0.382   5.289 -0.2118  0.7787  0.5106
   80MOL     C215960   0.795   0.233   5.322  0.1776  0.0250  0.4858
   80MOL     O315961   0.931   0.183   5.297  0.0592  0.0962  0.3392
   80MOL     C415962   0.958   0.126   5.175 -0.0814 -0.5943  0.4680
   80MOL     H515963   0.807   0.409   5.185  1.5790 -1.4776  0.2244
   80MOL     H615964   0.688   0.426   5.298 -0.1455  1.4500 -1.7182
   80MOL     H715965   0.717   0.192   5.258  0.4038 -1.4493  1.1210
   80MOL     H815966   1.055   0.076   5.174  1.3804  2.1697  0.1307
   80MOL     H915967   0.877   0.058   5.145  0.0660 -0.6382  0.1666
   80MOL    H1015968   0.964   0.199   5.095  2.0007  0.9513  2.0014
   80MOL    H1115969   0.855   0.428   5.361  1.3532 -2.2646  1.0613
   80MOL    C1215970   0.756   0.186   5.467  0.4608  0.2257  0.1133
   80MOL    C1315971   0.805   0.043   5.502  0.2389  0.7767  0.3522
   80MOL    O1415972   0.787   0.026   5.644 -0.0305  0.0548  0.2917
   80MOL    C1515973   0.893   0.065   5.727 -0.0039  0.3507 -0.4512
   80MOL    H1615974   0.652   0.209   5.488  0.1207 -0.9728 -0.2892
   80MOL    H1715975   0.797   0.259   5.538 -0.0866  0.7101 -0.0681
   80MOL    H1815976   0.908   0.035   5.469  0.0154 -0.2182 -0.1295
   80MOL    H1915977   0.853   0.050   5.828  1.2979  0.1248  0.0424
   80MOL    H2015978   0.989   0.019   5.704 -0.7722 -2.1605  1.0819
   80MOL    H2115979   0.907   0.173   5.720  1.8900  0.2416  1.1765
   80MOL    C2215980   0.722   7.749   5.424  0.0507 -0.5125 -0.2380
   80MOL    C2315981   0.796   7.616   5.416  0.1800  0.6630  0.5749
   80MOL    O2415982   0.709   7.518   5.467  0.5328 -0.5564  0.1124
   80MOL    C2515983   0.733   7.480   5.599 -0.1072  0.2262 -0.3318
   80MOL    H2615984   0.699   7.784   5.323 -0.3316  1.7704  0.6111
   80MOL    H2715985   0.623   7.731   5.468  0.2460  0.8253  0.7665
   80MOL    H2815986   0.896   7.611   5.459  0.0921  0.6649  0.7778
   80MOL    H2915987   0.819   7.413   5.596  1.1473  1.8554 -3.4700
   80MOL    H3015988   0.746   7.561   5.670 -2.4315  1.6653 -1.4935
   80MOL    H3115989   0.652   7.413   5.631 -1.6194  1.4102 -1.6208
   80MOL    C3215990   0.821   7.568   5.268 -0.1655 -0.2746 -0.2835
   80MOL    C3315991   0.886   7.429   5.260  0.3832 -0.4272 -0.3728
   80MOL    O3415992   0.894   7.395   5.126 -0.4773 -0.5229 -0.0823
   80MOL    C3515993   0.804   7.301   5.082 -0.2394 -0.7896 -0.6089
   80MOL    H3615994   0.879   7.638   5.208 -0.7232  0.9025  0.5249
   80MOL    H3715995   0.725   7.563   5.216  0.2727 -0.0457 -1.1268
   80MOL    H3815996   0.827   7.356   5.316 -0.6698  2.0924  1.9206
   80MOL    H3915997   0.833   7.280   4.979 -0.1515 -0.9268 -0.5581
   80MOL    H4015998   0.798   7.211   5.145 -1.8936  0.2659  0.7763
   80MOL    H4115999   0.700   7.328   5.100  0.2394 -0.1325  1.4095
   80MOL    C4216000   1.026   7.423   5.314  0.7831 -0.7209  0.1233
   80MOL    C4316001   1.081   7.282   5.292 -0.5471  0.5671  0.4096
   80MOL    O4416002   1.222   7.277   5.284 -0.6792  0.7390 -0.5761
   80MOL    C4516003   1.266   7.318   5.161  0.4620  0.3788  0.9015
   80MOL    H4616004   1.022   7.445   5.420  1.5136  0.1207 -0.0200
   80MOL    H4716005   1.088   7.496   5.261 -1.4376 -0.5281 -2.3285
   80MOL    H4816006   1.035   7.239   5.203  0.5460 -0.8758  0.5078
   80MOL    H4916007   1.372   7.346   5.164  0.3748  0.9495 -0.8384
   80MOL    H5016008   1.245   7.240   5.087  1.7301  0.3690  0.5264
   80MOL    H5116009   1.214   7.404   5.119  1.0342  0.3627  0.1435
   80MOL    C5216010   1.031   7.198   5.414 -0.5827  0.7541 -0.3569
   80MOL    C5316011   1.064   7.046   5.401 -0.1971  0.3617 -0.8509
   80MOL    O5416012   1.020   6.977   5.521 -0.2098  0.2853  0.3886
   80MOL    C5516013   1.115   6.903   5.592 -0.7557 -0.1588 -0.3094
   80MOL    H5616014   0.924   7.216   5.427 -1.0232  0.0462 -2.7746
   80MOL    H5716015   1.076   7.229   5.508  0.0783 -0.0143 -0.4085
   80MOL    H5816016   1.168   7.017   5.391 -0.8805 -2.1669 -1.0129
   80MOL    H5916017   1.070   6.854   5.678 -0.7365  2.0365  0.9866
   80MOL    H6016018   1.163   6.825   5.533  1.9842 -0.4513  2.2061
   80MOL    H6116019   1.192   6.966   5.635  0.0088 -1.4992  0.3078
   80MOL    C6216020   0.990   6.971   5.286  0.1288 -0.3468  0.5294
   80MOL    C6316021   1.053   6.847   5.240 -0.4405  0.4286 -0.1852
   80MOL    O6416022   0.980   6.785   5.136 -0.0693 -0.1422 -0.1425
   80MOL    C6516023   0.837   6.777   5.142  0.0363  0.3920  0.8951
   80MOL    H6616024   0.975   7.046   5.209 -0.7900 -1.0593  0.0071
   80MOL    H6716025   0.891   6.954   5.328 -0.0565 -0.0446  0.2162
   80MOL    H6816026   1.066   6.779   5.324  3.6191  1.4656  0.1422
   80MOL    H6916027   0.818   6.692   5.076  1.8691  0.2169  0.5585
   80MOL    H7016028   0.792   6.750   5.237 -0.1159  0.1843  0.7646
   80MOL    H7116029   0.784   6.860   5.095 -0.5334 -0.4726 -0.0116
   80MOL    C7216030   1.196   6.871   5.182 -0.4534 -0.7077 -0.0050
   80MOL    C7316031   1.220   6.800   5.046  0.1018 -0.7152 -0.0817
   80MOL    O7416032   1.331   6.871   4.998  0.3564 -0.5273 -0.2401
   80MOL    C7516033   1.296   6.977   4.915 -1.1691  0.2178  0.5346
   80MOL    H7616034   1.268   6.836   5.257 -0.5077 -0.2832  0.2478
   80MOL    H7716035   1.222   6.977   5.180 -1.1281 -0.4977  1.6091
   80MOL    H7816036   1.135   6.807   4.979  0.1313  1.2847  0.0636
   80MOL    H7916037   1.236   7.057   4.960 -1.0393 -0.6666  2.2987
   80MOL    H8016038   1.392   7.023   4.891 -0.7530 -1.0070 -0.1811
   80MOL    H8116039   1.250   6.937   4.825  1.9478 -1.3100 -0.4435
   80MOL    C8216040   1.249   6.653   5.063  0.0423 -0.4419 -0.6192
   80MOL    C8316041   1.274   6.588   4.932 -0.5385 -0.0093  0.3210
   80MOL    O8416042   1.337   6.461   4.958  0.4766 -0.2644  0.8126
   80MOL    C8516043   1.445   6.433   4.878 -0.8041 -0.2464 -0.8490
   80MOL    H8616044   1.172   6.605   5.123  0.1863  2.8102  2.3198
   80MOL    H8716045   1.332   6.621   5.126 -2.0988 -0.0525  2.4582
   80MOL    H8816046   1.336   6.659   4.877 -0.6283 -0.7330 -0.7214
   80MOL    H8916047   1.473   6.328   4.886 -0.9697 -0.1983  0.4475
   80MOL    H9016048   1.421   6.434   4.772  1.1258 -0.4228 -1.2999
   80MOL    H9116049   1.523   6.508   4.893 -1.3444  0.3456 -0.9667
   80MOL    C9216050   1.144   6.564   4.854 -0.5942  0.1259 -0.1262
   80MOL    C9316051   1.159   6.497   4.720 -0.7146 -0.1319 -0.2636
   80MOL    O9416052   1.032   6.443   4.689 -0.0202  0.4829  0.2995
   80MOL    C9516053   1.022   6.334   4.585  0.7639  0.1136 -0.0799
   80MOL    H9616054   1.083   6.654   4.840  0.2266  0.5184 -1.2572
   80MOL    H9716055   1.091   6.499   4.924 -2.5370  0.8429 -0.8965
   80MOL    H9816056   1.206   6.399   4.731 -1.8909 -0.5812  0.9452
   80MOL    H9916057   1.087   6.250   4.612 -1.3714 -1.9767 -1.3091
   80MOL   H10016058   0.917   6.306   4.579 -0.0168  3.1595 -1.8791
   80MOL   H10116059   1.051   6.370   4.486  1.1301  2.1098  0.7188
   80MOL   C10216060   1.220   6.582   4.612  0.4163  0.2129 -0.2293
   80MOL   C10316061   1.159   6.721   4.573 -0.0663 -0.1716  0.2518
   80MOL   O10416062   1.242   6.785   4.471  0.4809  0.0666  0.3048
   80MOL   C10516063   1.348   6.864   4.518 -0.2582  0.0360 -0.1256
   80MOL   H10616064   1.234   6.511   4.531  2.3112 -0.3386  0.5600
   80MOL   H10716065   1.324   6.600   4.639  0.6860 -2.1657  0.4881
   80MOL   H10816066   1.152   6.787   4.660 -0.6881  2.6861 -1.9124
   80MOL   H10916067   1.407   6.803   4.586 -0.3469 -0.3034 -0.3534
   80MOL   H11016068   1.409   6.886   4.430  1.3814 -0.3615  0.8926
   80MOL   H11116069   1.313   6.958   4.561 -0.4433  0.8316 -1.9661
   80MOL   C11216070   1.024   6.713   4.492  0.5263  0.2699  0.2365
   80MOL   C11316071   0.891   6.703   4.571 -0.2338  0.9421 -0.1854
   80MOL   O11416072   0.847   6.835   4.601  0.2190  0.1981  0.5960
   80MOL   C11516073   0.880   6.875   4.726 -0.3940 -0.5706 -0.6473
   80MOL   H11616074   1.033   6.634   4.418  0.2063  2.2829 -2.0356
   80MOL   H11716075   1.022   6.798   4.424  1.4258  0.4617  0.4352
   80MOL   H11816076   0.913   6.647   4.662  0.5799  1.2320 -0.1974
   80MOL   H11916077   0.824   6.814   4.796  0.8659  0.7357  1.5820
   80MOL   H12016078   0.986   6.868   4.752 -0.1217 -0.0277 -1.5812
   80MOL   H12116079   0.837   6.974   4.741  2.3618  1.0363 -2.7899
   80MOL   C12216080   0.791   6.637   4.469  0.7281 -0.1514 -0.8141
   80MOL   C12316081   0.639   6.627   4.507 -0.8262 -0.1551 -0.9640
   80MOL   O12416082   0.567   6.555   4.410 -0.0081 -0.3985 -0.2019
   80MOL   C12516083   0.501   6.634   4.320 -0.0789 -0.0986  0.3122
   80MOL   H12616084   0.827   6.540   4.437  2.3037 -0.4329  1.6778
   80MOL   H12716085   0.785   6.709   4.387  1.5130  1.0801  0.1747
   80MOL   H12816086   0.601   6.727   4.527 -1.8808 -0.3301 -2.0823
   80MOL   H12916087   0.568   6.702   4.269 -0.1624  0.1679  0.5580
   80MOL   H13016088   0.467   6.561   4.246  0.1955  0.3717 -0.2773
   80MOL   H13116089   0.407   6.678   4.352 -1.4048 -3.4674  1.3706
   80MOL   C13216090   0.614   6.560   4.642 -0.5477  0.0275  0.2471
   80MOL   C13316091   0.467   6.534   4.675  0.9280 -0.1591 -0.3492
   80MOL   O13416092   0.449   6.457   4.797 -0.0505  0.4579 -0.1260
   80MOL   C13516093   0.453   6.316   4.769 -0.6021  0.1798 -0.3115
   80MOL   H13616094   0.666   6.605   4.728 -1.9038 -3.0333  2.7655
   80MOL   H13716095   0.660   6.462   4.635 -1.6166 -0.5412  1.1848
   80MOL   H13816096   0.427   6.474   4.594 -0.1043  1.3344 -0.9584
   80MOL   H13916097   0.513   6.297   4.679 -1.8604 -2.8766 -0.5787
   80MOL   H14016098   0.512   6.264   4.844  1.4991 -0.7366 -2.5331
   80MOL   H14116099   0.351   6.277   4.762 -1.2755  1.3789  2.2655
   80MOL   C14216100   0.380   6.663   4.704  0.0415  0.0547  0.0162
   80MOL   C14316101   0.230   6.638   4.734  0.7483  0.5638 -0.1702
   80MOL   O14416102   0.161   6.755   4.783  0.0970 -0.1283  0.1857
   80MOL   C14516103   0.141   6.770   4.925 -0.1376 -0.3055  0.9896
   80MOL   H14616104   0.388   6.732   4.620  0.5346  0.0369  0.0486
   80MOL   H14716105   0.426   6.727   4.779 -0.8470  0.7555 -0.0278
   80MOL   H14816106   0.216   6.556   4.805 -0.0985 -1.5263 -2.6526
   80MOL   H14916107   0.234   6.777   4.982  1.3249 -1.5610 -1.1462
   80MOL   H15016108   0.084   6.862   4.942  0.9881  0.6669 -0.3216
   80MOL   H15116109   0.070   6.697   4.964 -1.2071 -0.6669 -1.5429
   80MOL   C15216110   0.167   6.593   4.601  0.0603 -0.4677 -1.0038
   80MOL   C15316111   0.035   6.517   4.627 -0.0885  0.2995  0.4809
   80MOL   O15416112   7.770   6.507   4.510 -1.0127 -0.1175  0.4906
   80MOL   C15516113   7.657   6.598   4.511 -0.2775  0.5564 -0.0405
   80MOL   H15616114   0.243   6.539   4.544 -0.6732 -0.7067 -1.7659
   80MOL   H15716115   0.149   6.673   4.528 -0.2739  0.0728 -0.3325
   80MOL   H15816116   7.791   6.560   4.710  0.2833 -0.4395  1.1154
   80MOL   H15916117   7.695   6.697   4.538 -0.9093  0.5521  0.8715
   80MOL   H16016118   7.605   6.610   4.416 -0.0697  2.6499  0.0886
   80MOL   H16116119   7.588   6.572   4.590 -2.2753  1.0500 -1.5919
   80MOL   C16216120   0.062   6.377   4.661  1.1649  0.6151 -1.0372
   80MOL   C16316121   7.742   6.305   4.698 -0.6029  0.0066  0.8111
   80MOL   O16416122   7.730   6.182   4.618  0.5248  0.1817  0.2504
   80MOL   C16516123   7.656   6.196   4.491  0.4624  0.5137 -0.1690
   80MOL   H16616124   0.129   6.381   4.747 -0.5681  0.6599  0.3411
   80MOL   H16716125   0.121   6.338   4.578  0.8287  0.7022 -1.3151
   80MOL   H16816126   7.653   6.365   4.678  0.8975  1.5908 -1.3667
   80MOL   H16916127   7.695   6.280   4.433 -0.5917  1.4767  0.4959
   80MOL   H17016128   7.666   6.111   4.424  0.3363  0.1308  0.2984
   80MOL   H17116129   7.552   6.205   4.520  0.7971 -0.1954  1.3100
   80MOL   C17216130   7.737   6.254   4.844  0.5225  0.2584  0.0118
   80MOL   C17316131   7.700   6.354   4.948 -0.2556  0.3116  0.4953
   80MOL   O17416132   7.561   6.388   4.920  0.6969 -0.7862  0.2837
   80MOL   C17516133   7.503   6.507   4.963 -0.4288  0.4896 -0.2815
   80MOL   H17616134   0.024   6.209   4.861  0.8102  0.9295  0.1339
   80MOL   H17716135   7.669   6.169   4.849  0.8354  0.1010  1.8247
   80MOL   H17816136   7.759   6.443   4.928 -1.2936  0.9232  0.0897
   80MOL   H17916137   7.502   6.505   5.072 -0.4639 -2.4440 -0.2934
   80MOL   H18016138   7.573   6.584   4.932 -1.9692  0.9100 -2.8563
   80MOL   H18116139   7.406   6.534   4.921 -0.3505 -0.8985 -1.3796
   80MOL   C18216140   7.698   6.317   5.095  0.0357 -0.5518  0.7393
   80MOL   C18316141   0.020   6.287   5.159 -0.2417 -0.2331 -0.1856
   80MOL   O18416142   0.103   6.409   5.145  0.3609  0.2160 -0.1578
   80MOL   C18516143   0.212   6.387   5.053  0.4957 -0.2534 -0.0026
   80MOL   H18616144   7.643   6.224   5.104  0.9463 -1.1345  0.3003
   80MOL   H18716145   7.657   6.394   5.160 -0.4090 -0.6614  0.5887
   80MOL   H18816146   0.068   6.203   5.108 -0.6821 -0.5994  0.0049
   80MOL   H18916147   0.281   6.472   5.048  0.1777  0.1229  1.6561
   80MOL   H19016148   0.283   6.315   5.095 -2.0834 -2.1887  1.1310
   80MOL   H19116149   0.177   6.355   4.955  0.2792 -0.7905  0.2509
   80MOL   C19216150   0.007   6.235   5.308 -0.9164 -0.0032 -0.1675
   80MOL   C19316151   7.770   6.332   5.410 -0.7612 -0.0098  0.0677
   80MOL   O19416152   7.760   6.266   5.532  0.1719 -0.5361 -0.4839
   80MOL   C19516153   7.696   6.351   5.631  0.0927 -0.2563 -0.0023
   80MOL   H19616154   0.098   6.197   5.356 -1.6602 -0.6050  0.7774
   80MOL   H19716155   7.747   6.153   5.316  1.3997 -2.1759 -1.1563
   80MOL   H19816156   7.672   6.376   5.391 -0.6991  1.1188  2.2131
   80MOL   H19916157   7.726   6.456   5.632  2.9648 -1.0258  2.3998
   80MOL   H20016158   7.590   6.342   5.607 -0.6602  2.9950  1.7567
   80MOL   H20116159   7.712   6.306   5.729 -1.6980 -0.8904  0.0210
   80MOL   H20216160   0.029   6.416   5.416  1.1798 -1.5542 -0.4624
   81MOL     C116161   4.041   6.800   0.947 -0.7586  0.1161 -0.1259
   81MOL     C216162   4.154   6.841   1.047  0.0594  0.2036 -0.6462
   81MOL     O316163   4.219   6.961   1.003 -0.3600  0.0486  0.0105
   81MOL     C416164   4.354   6.976   1.057 -0.5933 -0.6920  0.1187
   81MOL     H516165   3.967   6.879   0.935 -0.7994  0.0130 -0.5471
   81MOL     H616166   4.079   6.773   0.849 -0.4043 -1.7021  0.4904
   81MOL     H716167   4.233   6.767   1.062 -1.0315 -0.5744  1.5203
   81MOL     H816168   4.412   7.034   0.986 -0.8846 -0.7759 -0.1884
   81MOL     H916169   4.364   7.018   1.157  2.0440 -1.1781  0.0781
   81MOL    H1016170   4.414   6.886   1.043  0.0496 -0.1673 -0.4750
   81MOL    H1116171   4.003   6.708   0.992 -0.5406  0.0467 -0.0813
   81MOL    C1216172   4.105   6.868   1.196  0.1977  0.3601 -0.8111
   81MOL    C1316173   4.200   6.810   1.312 -0.1245 -0.3559 -0.6092
   81MOL    O1416174   4.134   6.844   1.430 -0.3153 -0.2492 -0.4435
   81MOL    C1516175   4.156   6.980   1.473 -0.1654 -0.2718 -0.4399
   81MOL    H1616176   4.013   6.811   1.210 -0.1461  1.2039  0.4279
   81MOL    H1716177   4.095   6.976   1.197  2.4001  0.5703  1.4301
   81MOL    H1816178   4.299   6.853   1.299 -0.7976  1.8272  1.1363
   81MOL    H1916179   4.260   7.008   1.490 -0.2466 -0.2617  0.0312
   81MOL    H2016180   4.110   7.049   1.402  0.5615 -0.7055 -1.3554
   81MOL    H2116181   4.099   6.974   1.566  2.1014 -1.8821  0.8881
   81MOL    C2216182   4.218   6.660   1.313  0.1789 -0.8806 -0.4801
   81MOL    C2316183   4.317   6.611   1.416 -0.1779  0.0949 -0.1984
   81MOL    O2416184   4.291   6.467   1.426  0.0035 -0.2056 -0.4296
   81MOL    C2516185   4.201   6.429   1.540 -0.1971 -0.1287  0.0929
   81MOL    H2616186   4.241   6.636   1.209 -1.2519 -0.6785 -0.8582
   81MOL    H2716187   4.122   6.614   1.334 -0.1474 -0.4726 -1.0735
   81MOL    H2816188   4.291   6.652   1.514  0.2882 -1.4072  0.5776
   81MOL    H2916189   4.110   6.489   1.533  1.8363  2.8322 -2.1411
   81MOL    H3016190   4.166   6.327   1.527  0.1733 -0.2546  0.0725
   81MOL    H3116191   4.251   6.448   1.635 -0.2592 -1.1762  0.3401
   81MOL    C3216192   4.464   6.622   1.374  0.3563  0.4367  0.0225
   81MOL    C3316193   4.522   6.569   1.237  0.7527 -0.2908  0.1334
   81MOL    O3416194   4.484   6.649   1.130  0.1767  0.6456  0.3695
   81MOL    C3516195   4.532   6.611   1.006 -0.3680  0.4046  0.1122
   81MOL    H3616196   4.520   6.573   1.454  2.9858 -0.3301 -2.2104
   81MOL    H3716197   4.490   6.725   1.394 -1.6716  0.7933  0.9995
   81MOL    H3816198   4.474   6.471   1.227  1.6845 -0.6223 -1.1694
   81MOL    H3916199   4.562   6.507   1.010 -2.8694 -0.3925 -1.0212
   81MOL    H4016200   4.449   6.618   0.935  0.5451  0.2605 -0.9876
   81MOL    H4116201   4.612   6.678   0.973 -1.3830  1.5145 -0.1472
   81MOL    C4216202   4.677   6.552   1.259 -0.2795  0.6934 -0.6449
   81MOL    C4316203   4.760   6.682   1.263 -0.1306  0.4082 -0.4984
   81MOL    O4416204   4.719   6.753   1.384 -0.3282 -0.5981  0.4817
   81MOL    C4516205   4.688   6.893   1.358  0.1334 -0.0336  0.6828
   81MOL    H4616206   4.714   6.484   1.182 -3.5520  1.0744 -2.6389
   81MOL    H4716207   4.704   6.494   1.347  1.0597 -1.5077 -2.4422
   81MOL    H4816208   4.741   6.731   1.168 -1.7683  0.5656 -0.1035
   81MOL    H4916209   4.612   6.894   1.280  0.0878 -2.3314  0.6806
   81MOL    H5016210   4.655   6.934   1.454 -0.3223  1.1381  0.0310
   81MOL    H5116211   4.779   6.945   1.326 -0.6268  0.9648  0.1068
   81MOL    C5216212   4.910   6.658   1.288  0.0862  0.2909  0.5616
   81MOL    C5316213   4.994   6.582   1.183  0.9202 -0.3365  0.6968
   81MOL    O5416214   4.975   6.642   1.053 -0.1815 -0.3525  0.6757
   81MOL    C5516215   4.985   6.564   0.937  0.7095  0.2269 -0.3755
   81MOL    H5616216   4.917   6.621   1.390  0.5935 -1.2605 -0.0155
   81MOL    H5716217   4.954   6.756   1.303  1.1780 -0.1430  0.2410
   81MOL    H5816218   4.957   6.480   1.168  2.9218 -0.7274 -2.0053
   81MOL    H5916219   5.090   6.539   0.928  0.8260  0.8980 -0.9056
   81MOL    H6016220   4.924   6.474   0.946  2.7365 -1.0559  0.8328
   81MOL    H6116221   4.951   6.612   0.845  2.5232  1.6975 -0.3214
   81MOL    C6216222   5.149   6.576   1.208  0.1777  0.2234 -0.2728
   81MOL    C6316223   5.201   6.513   1.340 -0.2465  0.8129  0.0638
   81MOL    O6416224   5.207   6.370   1.326 -0.3821 -0.1049  0.0632
   81MOL    C6516225   5.182   6.296   1.446 -0.5916 -0.3116 -0.0392
   81MOL    H6616226   5.196   6.672   1.190  3.7384 -1.5234 -0.7015
   81MOL    H6716227   5.193   6.519   1.126 -0.6233  0.4752 -0.8850
   81MOL    H6816228   5.132   6.531   1.422  0.1847  0.7718  0.4387
   81MOL    H6916229   5.243   6.343   1.523  1.4434  1.2745 -2.5131
   81MOL    H7016230   5.076   6.292   1.470 -1.2481  0.5392 -2.5487
   81MOL    H7116231   5.214   6.194   1.427  2.1402  0.7579 -1.4778
   81MOL    C7216232   5.340   6.568   1.381  0.0964  1.4697  0.8052
   81MOL    C7316233   5.336   6.701   1.452 -0.4762 -0.1618 -0.2226
   81MOL    O7416234   5.307   6.678   1.589 -0.8968  0.1297  0.0601
   81MOL    C7516235   5.255   6.792   1.652 -0.0217  0.3059 -0.6520
   81MOL    H7616236   5.397   6.575   1.288  0.3520  0.6457  0.9003
   81MOL    H7716237   5.386   6.496   1.448  0.9024 -0.0521 -1.3416
   81MOL    H7816238   5.252   6.754   1.407 -0.4062  0.8701  0.8294
   81MOL    H7916239   5.159   6.807   1.602 -0.6887  0.4874  0.6673
   81MOL    H8016240   5.240   6.785   1.760 -0.4918  0.8573 -0.6756
   81MOL    H8116241   5.326   6.874   1.644 -0.7397  1.1838  1.5633
   81MOL    C8216242   5.467   6.786   1.435 -0.8714 -0.1572  0.4484
   81MOL    C8316243   5.489   6.832   1.285 -0.5581 -0.2073  0.6726
   81MOL    O8416244   5.469   6.973   1.280 -0.1016 -0.3590  0.6723
   81MOL    C8516245   5.333   7.004   1.304  0.9142 -0.0283  0.2455
   81MOL    H8616246   5.544   6.715   1.465 -1.0393 -0.9609 -0.9683
   81MOL    H8716247   5.480   6.865   1.509 -2.7450  0.2715  0.3541
   81MOL    H8816248   5.432   6.773   1.213  1.0940 -0.5079 -0.4343
   81MOL    H8916249   5.329   7.108   1.274  1.6124 -0.5523 -1.7599
   81MOL    H9016250   5.256   6.956   1.244 -1.1644  0.8329  2.1696
   81MOL    H9116251   5.313   7.005   1.411 -1.9041  2.0597 -0.2571
   81MOL    C9216252   5.637   6.830   1.240 -0.7220 -0.4435  0.0011
   81MOL    C9316253   5.696   6.686   1.214  0.3801  0.5650 -0.5999
   81MOL    O9416254   5.644   6.661   1.083 -0.0406 -0.1047 -0.5485
   81MOL    C9516255   5.601   6.532   1.070  0.4663 -0.1182 -0.3015
   81MOL    H9616256   5.701   6.888   1.307  1.2804 -1.4382 -1.0021
   81MOL    H9716257   5.646   6.890   1.149 -2.8507 -0.7826 -0.4706
   81MOL    H9816258   5.656   6.616   1.286 -1.1365 -1.5002 -3.3503
   81MOL    H9916259   5.507   6.516   1.123  0.7245  3.4020  1.3240
   81MOL   H10016260   5.582   6.519   0.963  1.7159 -0.7593 -0.4540
   81MOL   H10116261   5.683   6.463   1.090  1.9239  2.0542  1.3664
   81MOL   C10216262   5.850   6.688   1.214 -0.0258  0.1142 -0.7100
   81MOL   C10316263   5.915   6.682   1.357  0.2968 -0.0055 -0.4977
   81MOL   O10416264   5.921   6.544   1.387 -0.2076  0.4834 -0.2158
   81MOL   C10516265   5.856   6.510   1.503  0.1211 -0.3119  1.2822
   81MOL   H10616266   5.876   6.779   1.158  0.0067  0.1638 -0.6148
   81MOL   H10716267   5.894   6.603   1.162  0.6181 -1.1754  1.8859
   81MOL   H10816268   5.845   6.735   1.422  0.6982  1.6096 -1.3591
   81MOL   H10916269   5.747   6.519   1.495  0.2397 -0.8175 -1.2488
   81MOL   H11016270   5.856   6.404   1.527  0.2647 -0.5486  0.2480
   81MOL   H11116271   5.891   6.571   1.587  0.9397  0.5026  0.3606
   81MOL   C11216272   6.053   6.734   1.364 -0.6119 -0.1182 -0.2076
   81MOL   C11316273   6.099   6.779   1.504 -0.5246  0.0270  0.1866
   81MOL   O11416274   6.243   6.809   1.482  0.8069  0.1810 -0.6003
   81MOL   C11516275   6.330   6.699   1.502 -0.3420 -1.0217  0.6959
   81MOL   H11616276   6.060   6.818   1.295  1.3708 -0.8409 -0.9380
   81MOL   H11716277   6.122   6.666   1.313 -4.7828 -2.5841 -2.8646
   81MOL   H11816278   6.094   6.694   1.572 -1.7479  0.1637  0.2678
   81MOL   H11916279   6.312   6.650   1.598 -0.9841 -0.5966  0.7958
   81MOL   H12016280   6.326   6.628   1.420  3.0062 -2.7469  1.9334
   81MOL   H12116281   6.435   6.731   1.499 -0.6695 -0.1033 -2.7200
   81MOL   C12216282   6.024   6.904   1.555 -0.8541 -0.4949  0.1711
   81MOL   C12316283   6.071   6.952   1.695 -0.4764  0.2940  0.2907
   81MOL   O12416284   6.179   7.039   1.674  0.0554  0.2165  0.7856
   81MOL   C12516285   6.291   7.026   1.753 -0.2138 -0.0585  0.0637
   81MOL   H12616286   5.920   6.872   1.566 -0.9819 -0.0366  0.3008
   81MOL   H12716287   6.028   6.984   1.481 -0.8334  0.2767  0.9967
   81MOL   H12816288   6.115   6.871   1.753  0.9065  0.2629 -0.7614
   81MOL   H12916289   6.341   6.929   1.749  1.3959  0.6292  2.6544
   81MOL   H13016290   6.357   7.103   1.714 -0.5365 -0.1592 -0.6941
   81MOL   H13116291   6.274   7.045   1.859  1.1152  0.7019  0.1391
   81MOL   C13216292   5.961   7.025   1.769 -0.2837  0.3129 -0.2547
   81MOL   C13316293   5.877   6.933   1.860  0.3436 -0.5643  0.9019
   81MOL   O13416294   5.806   6.829   1.787 -0.4506 -0.2797  0.3097
   81MOL   C13516295   5.687   6.868   1.742  0.7941  0.3228  0.2067
   81MOL   H13616296   5.900   7.083   1.699  0.3798  2.0369  0.5666
   81MOL   H13716297   6.011   7.087   1.843 -1.0077  1.5663 -0.8036
   81MOL   H13816298   5.802   7.001   1.900  1.2953  1.8440 -1.3099
   81MOL   H13916299   5.654   6.823   1.649 -1.1992 -0.5154  1.2814
   81MOL   H14016300   5.622   6.856   1.829  0.7398  0.4649  0.1856
   81MOL   H14116301   5.699   6.970   1.705  0.5504  0.4751  0.5404
   81MOL   C14216302   5.943   6.884   1.987  0.2330 -0.3322  0.1416
   81MOL   C14316303   5.848   6.835   2.101 -0.2025 -0.4677  0.0144
   81MOL   O14416304   5.917   6.771   2.206  0.1229 -0.8409 -0.4865
   81MOL   C14516305   5.928   6.632   2.201  0.4848  0.3065 -0.3810
   81MOL   H14616306   5.999   6.963   2.035 -3.0265  1.1450  1.6491
   81MOL   H14716307   6.012   6.803   1.961 -1.3984 -1.7975  0.2759
   81MOL   H14816308   5.787   6.751   2.068  0.9237 -1.0128 -0.7090
   81MOL   H14916309   5.984   6.609   2.110 -0.4014  1.0849 -1.1421
   81MOL   H15016310   5.990   6.608   2.287 -1.5207  0.1721  1.0782
   81MOL   H15116311   5.843   6.564   2.190  0.4923 -0.1923  2.2993
   81MOL   C15216312   5.759   6.938   2.162  0.1403  0.2814  0.4711
   81MOL   C15316313   5.809   7.062   2.234 -0.5566 -0.0919  0.0513
   81MOL   O15416314   5.901   7.142   2.164 -0.0521  0.2744  0.4260
   81MOL   C15516315   6.006   7.202   2.228  0.9032 -0.2785  0.0707
   81MOL   H15616316   5.703   6.884   2.238  2.5443 -1.5196  1.0129
   81MOL   H15716317   5.680   6.976   2.097  0.2160  0.5197  0.5154
   81MOL   H15816318   5.853   7.026   2.327 -0.6443 -0.6593 -0.1289
   81MOL   H15916319   5.978   7.303   2.258 -1.1393 -1.2043  1.3889
   81MOL   H16016320   6.044   7.149   2.316 -0.0647  1.5041  1.5957
   81MOL   H16116321   6.083   7.221   2.153  0.2468 -4.4532 -1.7754
   81MOL   C16216322   5.683   7.152   2.273  0.7737  0.3453 -0.0540
   81MOL   C16316323   5.684   7.215   2.413  0.3022  0.0949 -0.8533
   81MOL   O16416324   5.606   7.334   2.386  0.1129  0.1218 -0.2635
   81MOL   C16516325   5.593   7.434   2.485  0.1221  0.6190  0.7249
   81MOL   H16616326   5.586   7.115   2.240  1.0624 -0.1794 -0.3185
   81MOL   H16716327   5.693   7.237   2.206 -0.7686 -0.2079 -1.0192
   81MOL   H16816328   5.787   7.240   2.438  0.3679  1.3972 -2.3613
   81MOL   H16916329   5.689   7.479   2.511  0.4870 -1.4826  3.1624
   81MOL   H17016330   5.532   7.506   2.430  0.0367 -0.7686 -1.0545
   81MOL   H17116331   5.530   7.405   2.568 -0.0606  0.2697  0.4655
   81MOL   C17216332   5.632   7.120   2.526 -0.8278  0.7028  0.2010
   81MOL   C17316333   5.720   7.114   2.652 -0.2505 -0.1452  0.0229
   81MOL   O17416334   5.641   7.063   2.763  0.0340 -0.3311 -0.2045
   81MOL   C17516335   5.558   7.156   2.828  1.0830  0.5267  0.0398
   81MOL   H17616336   5.625   7.017   2.493  0.3836  1.0057 -1.0368
   81MOL   H17716337   5.528   7.149   2.543 -0.6454  0.4753  1.8068
   81MOL   H17816338   5.740   7.216   2.685  2.3813  0.3635 -2.8843
   81MOL   H17916339   5.482   7.195   2.759  0.6637 -1.8690 -0.8892
   81MOL   H18016340   5.514   7.116   2.919  1.0142  0.2237 -0.1262
   81MOL   H18116341   5.617   7.236   2.873 -1.1813  2.5307 -0.3799
   81MOL   C18216342   5.847   7.029   2.635 -0.2785 -0.0933  0.5175
   81MOL   C18316343   5.954   7.014   2.757 -0.7016 -0.4974 -0.0081
   81MOL   O18416344   6.068   6.953   2.695  0.1544 -0.3952 -0.0192
   81MOL   C18516345   6.062   6.810   2.680  0.3468 -0.2553  0.1232
   81MOL   H18616346   5.908   7.070   2.554  0.6250  0.1593  1.3135
   81MOL   H18716347   5.820   6.929   2.602  0.8996 -0.1598 -0.2858
   81MOL   H18816348   5.903   6.962   2.838 -1.4135  1.8149  1.0556
   81MOL   H18916349   5.987   6.770   2.612  1.4966 -1.2226 -0.5780
   81MOL   H19016350   6.158   6.770   2.650  0.9181  1.5476 -0.5238
   81MOL   H19116351   6.045   6.756   2.773  0.0640  0.0655  0.2606
   81MOL   C19216352   6.000   7.145   2.831 -0.1831 -0.6348 -0.3251
   81MOL   C19316353   6.100   7.116   2.947  0.3804  0.1863  0.3658
   81MOL   O19416354   6.134   7.231   3.022  0.2519 -0.3009 -0.2039
   81MOL   C19516355   6.219   7.313   2.946 -0.3442  0.2133 -0.7152
   81MOL   H19616356   5.911   7.198   2.866 -0.9431 -1.2684 -1.2605
   81MOL   H19716357   6.044   7.204   2.751 -2.1836 -0.6282 -1.4547
   81MOL   H19816358   6.187   7.070   2.900 -0.7100 -2.0241  0.4036
   81MOL   H19916359   6.298   7.244   2.918 -3.0046 -3.2418 -0.1424
   81MOL   H20016360   6.169   7.350   2.856 -0.7882 -2.4109 -1.5926
   81MOL   H20116361   6.262   7.389   3.011  2.0724 -0.2585 -1.7081
   81MOL   H20216362   6.060   7.034   3.007 -0.1588 -0.2062 -0.5089
   82MOL     C116363   5.970   2.133   3.231 -0.0272  0.6771 -0.6370
   82MOL     C216364   5.822   2.141   3.233 -0.5867  0.4143 -0.1777
   82MOL     O316365   5.792   2.181   3.102 -0.2005 -0.2181  0.7402
   82MOL     C416366   5.783   2.319   3.086 -0.5318  0.2563  0.2130
   82MOL     H516367   6.003   2.183   3.139  1.5082 -0.3355 -0.6489
   82MOL     H616368   6.022   2.180   3.314  0.0015  1.4983 -1.1083
   82MOL     H716369   5.799   2.224   3.300  1.3104  0.7140  0.1397
   82MOL     H816370   5.733   2.330   2.990  0.3797  1.8915 -0.0971
   82MOL     H916371   5.708   2.370   3.147 -0.3025  0.0078  0.6996
   82MOL    H1016372   5.877   2.373   3.081 -0.8136  0.6474 -0.9617
   82MOL    H1116373   5.995   2.027   3.234 -1.8229  0.1463 -2.8188
   82MOL    C1216374   5.765   2.005   3.282 -0.1328 -0.3516 -0.2267
   82MOL    C1316375   5.789   1.974   3.431 -0.1803  0.0469 -0.9021
   82MOL    O1416376   5.737   2.085   3.499 -0.1886  0.1832 -0.2325
   82MOL    C1516377   5.765   2.093   3.639  0.1570 -0.0081 -0.1683
   82MOL    H1616378   5.786   1.926   3.211 -1.4640 -0.1510 -0.8653
   82MOL    H1716379   5.657   1.997   3.268  0.2883 -1.0959 -3.4052
   82MOL    H1816380   5.894   1.979   3.458 -0.3312 -0.9335 -0.1284
   82MOL    H1916381   5.709   2.028   3.706 -0.1515 -1.4706 -1.8005
   82MOL    H2016382   5.864   2.063   3.671 -0.5979 -2.4778 -0.0411
   82MOL    H2116383   5.746   2.190   3.686  0.2769 -1.0945  2.2003
   82MOL    C2216384   5.708   1.855   3.471  0.8327  0.1203 -0.0162
   82MOL    C2316385   5.765   1.727   3.404  0.2016  0.1170 -0.4943
   82MOL    O2416386   5.906   1.721   3.411 -0.1892  0.4785  0.3436
   82MOL    C2516387   5.971   1.632   3.323  0.1797  0.0838 -0.3289
   82MOL    H2616388   5.604   1.862   3.439 -0.2041 -1.5082  2.7465
   82MOL    H2716389   5.687   1.841   3.578 -1.6369  1.1956 -0.3194
   82MOL    H2816390   5.741   1.733   3.298 -2.8429 -1.6225  0.0106
   82MOL    H2916391   5.995   1.536   3.370 -0.5930  0.5308  0.9950
   82MOL    H3016392   5.922   1.620   3.226  2.3553 -0.2624 -1.4142
   82MOL    H3116393   6.073   1.661   3.301  1.0845 -1.5508  1.5248
   82MOL    C3216394   5.697   1.612   3.469 -1.6682 -0.0577 -0.0145
   82MOL    C3316395   5.551   1.599   3.433  0.0819  0.2657 -0.2776
   82MOL    O3416396   5.538   1.640   3.298  0.4599  0.5263  0.1073
   82MOL    C3516397   5.416   1.708   3.275 -0.2622 -0.3680  0.3308
   82MOL    H3616398   5.718   1.606   3.576 -0.5016 -3.8903 -0.4001
   82MOL    H3716399   5.750   1.527   3.427  0.6669  1.1393  0.4601
   82MOL    H3816400   5.492   1.647   3.511 -0.0164  0.7303 -0.6350
   82MOL    H3916401   5.340   1.675   3.346 -0.0240 -0.0643  0.7289
   82MOL    H4016402   5.420   1.817   3.280 -2.2428 -0.3601  3.0090
   82MOL    H4116403   5.384   1.691   3.172  1.7379  1.2246 -0.6006
   82MOL    C4216404   5.502   1.453   3.450 -0.1759  0.5124 -0.5945
   82MOL    C4316405   5.559   1.382   3.576  1.0013  0.4353  0.3540
   82MOL    O4416406   5.512   1.464   3.684  0.0377 -0.0246  0.0445
   82MOL    C4516407   5.567   1.436   3.809 -0.2533  0.6167  0.4311
   82MOL    H4616408   5.536   1.404   3.359  2.4517 -1.2071  1.2326
   82MOL    H4716409   5.393   1.449   3.444 -0.0509 -2.2215 -1.7252
   82MOL    H4816410   5.667   1.390   3.571  1.3268 -3.3635 -0.2832
   82MOL    H4916411   5.521   1.345   3.848  3.7860 -1.6855  0.1624
   82MOL    H5016412   5.672   1.404   3.811 -0.8506 -1.3703  1.3163
   82MOL    H5116413   5.550   1.513   3.885  2.0791  0.6434  0.9820
   82MOL    C5216414   5.509   1.239   3.594 -0.0990 -0.3932 -0.3670
   82MOL    C5316415   5.557   1.143   3.490 -0.5277 -0.0044  0.2322
   82MOL    O5416416   5.696   1.125   3.511  0.1543 -0.6472  0.0630
   82MOL    C5516417   5.758   1.062   3.397  0.3668  0.0788 -0.5851
   82MOL    H5616418   5.401   1.227   3.593 -0.1823  0.0339  1.1487
   82MOL    H5716419   5.532   1.191   3.690 -0.7041 -3.2555 -1.6092
   82MOL    H5816420   5.533   1.186   3.393  1.4000  0.2471 -0.1468
   82MOL    H5916421   5.863   1.066   3.426  0.3389 -1.6868 -0.1869
   82MOL    H6016422   5.740   0.956   3.381 -1.5450 -0.3837  3.8299
   82MOL    H6116423   5.758   1.130   3.311  1.5413 -0.9956 -1.4457
   82MOL    C6216424   5.483   1.014   3.486 -0.0691 -0.0884  0.0636
   82MOL    C6316425   5.507   0.912   3.615 -0.2216 -0.1268  0.4037
   82MOL    O6416426   5.434   0.952   3.725  0.2720  0.2023  0.1016
   82MOL    C6516427   5.499   0.916   3.848 -0.1570  0.4677  0.3614
   82MOL    H6616428   5.526   0.958   3.403 -0.6306 -0.1507 -0.1896
   82MOL    H6716429   5.379   1.035   3.461 -1.0201 -4.4130 -0.1712
   82MOL    H6816430   5.614   0.909   3.632  0.0007 -2.5690 -1.1441
   82MOL    H6916431   5.428   0.940   3.927 -1.0145 -0.5061 -0.0963
   82MOL    H7016432   5.501   0.810   3.875 -1.2439 -0.2378 -2.1511
   82MOL    H7116433   5.594   0.967   3.858  0.2680 -0.4754  1.2584
   82MOL    C7216434   5.455   0.766   3.594  0.7464 -0.0883 -0.6039
   82MOL    C7316435   5.517   0.687   3.474 -0.4852 -0.2551  0.2951
   82MOL    O7416436   5.656   0.668   3.506  0.0610 -0.5796 -0.1101
   82MOL    C7516437   5.729   0.626   3.397  0.1441 -0.6558 -0.1807
   82MOL    H7616438   5.349   0.789   3.586  0.8828  1.3165  1.2847
   82MOL    H7716439   5.467   0.715   3.690 -0.3924  0.0551 -0.3717
   82MOL    H7816440   5.506   0.742   3.381  2.2975 -0.5017 -0.2166
   82MOL    H7916441   5.713   0.677   3.302  3.7101 -0.9557 -1.0091
   82MOL    H8016442   5.831   0.650   3.427 -0.7593  0.0799  2.3620
   82MOL    H8116443   5.724   0.517   3.386 -2.0486 -0.4781 -1.0664
   82MOL    C8216444   5.446   0.552   3.451  0.7543  0.0333  0.0146
   82MOL    C8316445   5.293   0.536   3.414 -0.0808  0.7048 -0.1890
   82MOL    O8416446   5.273   0.587   3.279 -0.2515 -0.2474 -0.8325
   82MOL    C8516447   5.144   0.632   3.258 -0.2652 -0.2474  0.4527
   82MOL    H8616448   5.460   0.490   3.539 -4.5817 -0.4678  0.6687
   82MOL    H8716449   5.489   0.509   3.360  0.4045  0.3933 -0.3209
   82MOL    H8816450   5.238   0.608   3.475  1.7387 -0.2909  2.6718
   82MOL    H8916451   5.136   0.667   3.155  2.1565  0.9726  0.6515
   82MOL    H9016452   5.060   0.566   3.282 -1.2860 -0.1513 -2.6098
   82MOL    H9116453   5.131   0.723   3.316  1.2033  0.4001 -0.1977
   82MOL    C9216454   5.243   0.390   3.443  0.4879  0.1635  0.4835
   82MOL    C9316455   5.287   0.281   3.344 -0.7585  0.0079  0.2458
   82MOL    O9416456   5.264   0.156   3.406 -0.5532 -0.0753  0.0037
   82MOL    C9516457   5.368   0.105   3.486 -0.6939 -0.5511 -0.0152
   82MOL    H9616458   5.135   0.379   3.451  0.3140  0.8891 -0.6778
   82MOL    H9716459   5.252   0.349   3.543 -0.2274 -0.9875  0.0852
   82MOL    H9816460   5.390   0.295   3.310 -1.4819 -0.5389 -2.2902
   82MOL    H9916461   5.335   0.005   3.515  0.7161 -0.6538  1.2856
   82MOL   H10016462   5.463   0.097   3.435 -0.1452 -1.0335  1.0670
   82MOL   H10116463   5.385   0.174   3.569 -1.4791  1.0682 -1.1772
   82MOL   C10216464   5.212   0.271   3.210 -0.5701  0.0844 -0.4802
   82MOL   C10316465   5.270   0.163   3.105 -0.1068  0.2482  0.2493
   82MOL   O10416466   5.159   0.110   3.034 -0.2354  0.4590  0.9796
   82MOL   C10516467   5.111   7.804   3.091 -0.0919 -0.1619 -0.2443
   82MOL   H10616468   5.217   0.367   3.159 -1.3437 -0.0358 -0.7838
   82MOL   H10716469   5.106   0.261   3.233 -0.8239  0.6523 -1.3822
   82MOL   H10816470   5.324   0.076   3.141 -0.7549 -0.3990 -0.3193
   82MOL   H10916471   5.174   7.717   3.072  0.8338  0.0784  1.5716
   82MOL   H11016472   5.100   7.802   3.200 -4.4649 -2.8618 -0.5925
   82MOL   H11116473   5.017   7.763   3.052 -0.4577  0.3344  0.1092
   82MOL   C11216474   5.361   0.231   3.000  0.1458 -0.6424  0.2261
   82MOL   C11316475   5.492   0.289   3.052 -0.8090 -0.4121  0.3168
   82MOL   O11416476   5.580   0.193   3.115  0.0089  0.2164 -0.0122
   82MOL   C11516477   5.672   0.254   3.209 -0.6753  0.1090  0.2975
   82MOL   H11616478   5.307   0.311   2.951  1.8065  0.7603  0.6421
   82MOL   H11716479   5.385   0.156   2.924 -1.3331  0.1949 -1.1003
   82MOL   H11816480   5.465   0.369   3.121 -1.7746 -0.9753  0.6055
   82MOL   H11916481   5.626   0.314   3.287  1.2108  0.1618  1.4091
   82MOL   H12016482   5.732   0.173   3.252 -0.1721 -0.1444 -0.8620
   82MOL   H12116483   5.742   0.318   3.155 -1.6075  0.2823 -0.7254
   82MOL   C12216484   5.577   0.352   2.933  0.1780 -0.4341  0.3712
   82MOL   C12316485   5.523   0.487   2.891  0.7088 -1.2467  0.1229
   82MOL   O12416486   5.520   0.583   2.997 -0.8070  0.0740  0.2140
   82MOL   C12516487   5.409   0.666   2.995  0.6096 -0.2433 -0.3690
   82MOL   H12616488   5.581   0.276   2.854 -0.5740 -0.5752  0.4559
   82MOL   H12716489   5.683   0.351   2.954 -0.0178 -0.1264  1.3844
   82MOL   H12816490   5.423   0.465   2.853  1.0004 -0.2873 -1.2144
   82MOL   H12916491   5.314   0.616   2.978  0.0919  1.0230 -1.3293
   82MOL   H13016492   5.408   0.726   3.086  1.7424  0.0535 -0.5453
   82MOL   H13116493   5.423   0.731   2.908  2.6178  1.7268  1.3673
   82MOL   C13216494   5.598   0.553   2.777 -0.4701 -0.7883 -0.1658
   82MOL   C13316495   5.613   0.477   2.648  0.0770  0.6559 -0.1283
   82MOL   O13416496   5.675   0.342   2.658  0.0127 -0.6932 -0.1170
   82MOL   C13516497   5.816   0.343   2.655  0.1895  0.6314 -0.9401
   82MOL   H13616498   5.701   0.581   2.800 -1.2328  1.5949  0.4358
   82MOL   H13716499   5.554   0.652   2.763 -1.8075 -1.4441 -0.6967
   82MOL   H13816500   5.662   0.539   2.573 -0.4778  1.7870  0.4243
   82MOL   H13916501   5.846   0.386   2.560  1.3326 -0.3622 -1.0341
   82MOL   H14016502   5.848   0.398   2.744 -0.2780  2.3425 -1.8071
   82MOL   H14116503   5.855   0.242   2.660 -2.0005 -0.1836  0.6202
   82MOL   C14216504   5.473   0.468   2.582 -0.1974 -0.5487  0.4441
   82MOL   C14316505   5.458   0.393   2.447  0.3012  0.5908  0.3294
   82MOL   O14416506   5.320   0.368   2.408 -0.9150  0.8661 -0.5116
   82MOL   C14516507   5.270   0.239   2.450  0.1484 -0.5898 -0.2743
   82MOL   H14616508   5.433   0.570   2.579  2.1477  0.3936  0.3552
   82MOL   H14716509   5.409   0.415   2.652  0.1026 -0.0333  1.1170
   82MOL   H14816510   5.507   0.296   2.442 -0.1577  0.4403 -1.7388
   82MOL   H14916511   5.268   0.243   2.559  0.9086  1.7057 -0.3189
   82MOL   H15016512   5.172   0.218   2.408 -0.5330 -0.6742  1.3356
   82MOL   H15116513   5.335   0.157   2.418  1.2173  0.7396 -1.6274
   82MOL   C15216514   5.520   0.476   2.327 -0.3019 -0.0012 -0.3682
   82MOL   C15316515   5.511   0.408   2.187 -0.5538  0.5322 -0.0550
   82MOL   O15416516   5.562   0.503   2.097 -0.3673 -0.2952 -0.0730
   82MOL   C15516517   5.518   0.478   1.962  0.6550 -0.6898 -0.4556
   82MOL   H15616518   5.620   0.511   2.353 -0.5635 -0.2970  1.0827
   82MOL   H15716519   5.465   0.570   2.333 -0.6499 -0.2742  1.0419
   82MOL   H15816520   5.410   0.379   2.161  0.2818 -1.6790 -1.0041
   82MOL   H15916521   5.567   0.545   1.891  3.0379 -0.3400  1.4440
   82MOL   H16016522   5.545   0.375   1.939 -0.7194 -0.8947 -1.1563
   82MOL   H16116523   5.410   0.482   1.945  0.3243 -0.6245  1.5350
   82MOL   C16216524   5.600   0.283   2.186 -0.0689  0.6025  0.2997
   82MOL   C16316525   5.528   0.141   2.175  0.2559 -0.4801  0.0351
   82MOL   O16416526   5.503   0.127   2.038 -0.2000  0.0147 -0.3551
   82MOL   C16516527   5.398   0.048   1.994  0.5809  0.2960 -0.3263
   82MOL   H16616528   5.678   0.304   2.259  0.6810  0.1532 -0.3668
   82MOL   H16716529   5.641   0.287   2.085  0.1214  3.6952  0.4473
   82MOL   H16816530   5.436   0.150   2.234  0.5999 -2.0317  0.8400
   82MOL   H16916531   5.314   0.118   1.989  2.3120  2.3166 -1.6770
   82MOL   H17016532   5.423   0.017   1.892 -0.9544 -3.0103  0.2361
   82MOL   H17116533   5.363   7.773   2.052 -1.7339 -0.5144 -2.7897
   82MOL   C17216534   5.615   0.025   2.223 -0.3210 -0.5130 -0.4975
   82MOL   C17316535   5.646   0.020   2.372 -0.2749  0.4247  0.6797
   82MOL   O17416536   5.523   7.798   2.440  0.2295  0.0882 -0.0523
   82MOL   C17516537   5.532   7.781   2.584  0.3272 -0.3090  0.3171
   82MOL   H17616538   5.698   0.033   2.152 -0.1466  1.8506 -0.0791
   82MOL   H17716539   5.574   7.737   2.203  1.4434 -1.4783  0.5650
   82MOL   H17816540   5.674   0.122   2.398 -2.7212  1.6071 -1.1056
   82MOL   H17916541   5.428   7.787   2.614  0.5115  0.8000  0.7860
   82MOL   H18016542   5.573   7.686   2.620  1.2200 -0.8772 -2.0841
   82MOL   H18116543   5.575   0.054   2.640  0.9605 -0.0404 -0.5558
   82MOL   C18216544   5.763   7.734   2.407 -0.1811  0.2304 -0.1823
   82MOL   C18316545   5.895   7.754   2.322 -0.4893 -0.6059  0.5752
   82MOL   O18416546   5.957   0.069   2.334 -0.4710  0.2495  0.1235
   82MOL   C18516547   5.974   0.130   2.204  0.2454 -0.4305  0.4324
   82MOL   H18616548   5.715   7.639   2.383 -0.3487  0.3419 -0.2891
   82MOL   H18716549   5.787   7.738   2.513 -1.9353 -1.0267  0.2851
   82MOL   H18816550   5.869   7.723   2.221 -0.5647 -2.2665  1.0857
   82MOL   H18916551   5.873   0.156   2.174  0.7432 -0.6915 -1.5402
   82MOL   H19016552   6.028   0.225   2.211 -0.4552 -0.0283  0.3618
   82MOL   H19116553   6.031   0.075   2.129  0.2252 -2.0536  1.5872
   82MOL   C19216554   5.990   7.637   2.366 -0.1168  0.3496 -1.0278
   82MOL   C19316555   6.111   7.631   2.267  0.3097 -0.1334 -0.3483
   82MOL   O19416556   6.069   7.551   2.158 -0.1610  0.8773 -0.6157
   82MOL   C19516557   6.147   7.532   2.049  0.7633 -0.0453 -0.3142
   82MOL   H19616558   5.934   7.544   2.374  2.3272 -0.9271  2.1305
   82MOL   H19716559   6.022   7.669   2.465  0.9863  2.0178 -1.8796
   82MOL   H19816560   6.188   7.574   2.319 -1.4652 -0.8173  1.5410
   82MOL   H19916561   6.161   7.631   2.005  0.9244 -0.5221 -1.3665
   82MOL   H20016562   6.243   7.486   2.072  0.6314 -0.1783 -0.0333
   82MOL   H20116563   6.101   7.457   1.984 -1.6749  0.9620  0.1898
   82MOL   H20216564   6.159   7.722   2.229  0.8122 -0.4998 -0.5976
   83MOL     C116565   7.458   0.650   7.244 -0.2120 -0.1763 -0.0296
   83MOL     C216566   7.534   0.550   7.342  0.1558  0.2732 -0.4297
   83MOL     O316567   7.662   0.612   7.362  0.0024 -0.5328 -0.1894
   83MOL     C416568   7.771   0.526   7.378 -0.1173  0.5208 -0.1650
   83MOL     H516569   7.493   0.653   7.141 -1.2517 -1.5053 -0.4357
   83MOL     H616570   7.350   0.641   7.235 -0.2398 -0.2996  0.3770
   83MOL     H716571   7.554   0.462   7.281  1.7073 -0.6831  1.3990
   83MOL     H816572   0.012   0.546   7.472  0.5912 -0.1056 -0.4139
   83MOL     H916573   7.733   0.425   7.397  1.0830  0.2340  0.7755
   83MOL    H1016574   0.031   0.522   7.295  1.0320  0.6675  0.7857
   83MOL    H1116575   7.471   0.752   7.281 -0.3352 -0.2612  0.2512
   83MOL    C1216576   7.467   0.513   7.472  0.0043 -0.2987  0.1890
   83MOL    C1316577   7.444   0.638   7.557 -0.0700  0.2329 -0.4499
   83MOL    O1416578   7.346   0.732   7.513  0.4447  0.3404  0.3628
   83MOL    C1516579   7.357   0.865   7.560 -0.3134  0.4548  0.7178
   83MOL    H1616580   7.520   0.438   7.531  1.5691  0.6390 -0.0115
   83MOL    H1716581   7.367   0.477   7.447  0.1364  0.0812 -0.8939
   83MOL    H1816582   7.541   0.689   7.559 -0.8426  1.7122  0.6168
   83MOL    H1916583   7.325   0.875   7.663 -1.0140  1.4616  0.4163
   83MOL    H2016584   7.460   0.899   7.545 -0.2659  0.1045  0.2423
   83MOL    H2116585   7.299   0.934   7.498  1.2199  2.9260  1.9620
   83MOL    C2216586   7.423   0.605   7.706  0.3014  0.9698 -0.0323
   83MOL    C2316587   7.307   0.508   7.750 -0.1118 -0.6165  0.3311
   83MOL    O2416588   7.354   0.375   7.716 -0.4276 -0.6404  0.1723
   83MOL    C2516589   7.255   0.292   7.649 -0.4060 -0.0765  0.3449
   83MOL    H2616590   7.410   0.698   7.762 -1.3221  0.3136  0.7497
   83MOL    H2716591   7.517   0.563   7.742 -0.4011 -0.2771  0.3810
   83MOL    H2816592   7.213   0.527   7.699 -0.6826 -0.5472  1.3886
   83MOL    H2916593   7.161   0.283   7.704  0.3265 -1.4545  1.4102
   83MOL    H3016594   7.216   0.352   7.567 -0.7350 -0.2773  0.3519
   83MOL    H3116595   7.281   0.194   7.610 -1.4456  0.7803 -2.6290
   83MOL    C3216596   7.280   0.497   0.096  0.2332  1.3629  0.0234
   83MOL    C3316597   7.180   0.601   0.148 -0.5274 -0.1436 -0.2285
   83MOL    O3416598   7.060   0.566   0.085  0.5727 -0.2147 -0.7014
   83MOL    C3516599   6.956   0.658   0.070 -0.3008 -0.3970  0.1763
   83MOL    H3616600   7.373   0.496   0.153  1.8922 -2.3809 -2.5161
   83MOL    H3716601   7.240   0.397   0.112  3.0602 -0.3181 -2.7403
   83MOL    H3816602   7.209   0.703   0.121 -3.4441  0.6182 -0.6519
   83MOL    H3916603   6.925   0.717   0.155  0.7657 -0.4191  0.5923
   83MOL    H4016604   6.984   0.729   7.803 -0.2826 -0.2925  0.2782
   83MOL    H4116605   6.874   0.598   0.029 -0.0281  0.2545 -1.3875
   83MOL    C4216606   7.161   0.602   0.297  0.1886  0.0289  0.3669
   83MOL    C4316607   7.266   0.671   0.379  0.1811 -0.2952 -0.0856
   83MOL    O4416608   7.248   0.806   0.355 -0.2559 -0.0406 -0.0849
   83MOL    C4516609   7.371   0.880   0.329  0.0978  0.1580  0.4876
   83MOL    H4616610   7.148   0.498   0.326  0.0239  0.2624  1.1261
   83MOL    H4716611   7.065   0.648   0.322  1.4560  2.0635  1.5815
   83MOL    H4816612   7.368   0.640   0.354 -0.2001 -0.5937 -1.2716
   83MOL    H4916613   7.453   0.850   0.395  0.4436 -2.4767 -1.0596
   83MOL    H5016614   7.411   0.860   0.230 -1.9628  2.2187 -0.8030
   83MOL    H5116615   7.343   0.984   0.345  0.4915  0.0870  1.6985
   83MOL    C5216616   7.249   0.646   0.534 -0.1552 -0.3013 -0.0582
   83MOL    C5316617   7.367   0.564   0.598 -0.2399  0.4623 -0.2860
   83MOL    O5416618   7.493   0.628   0.566 -0.3326  0.6355 -0.0697
   83MOL    C5516619   7.607   0.535   0.568 -0.5969  0.7414 -0.3655
   83MOL    H5616620   7.151   0.601   0.549 -0.0782 -0.4928 -0.1147
   83MOL    H5716621   7.246   0.746   0.576 -0.9358  0.0007 -0.8018
   83MOL    H5816622   7.356   0.470   0.544 -0.5357 -0.0992  0.7379
   83MOL    H5916623   7.594   0.451   0.637 -1.7720 -0.0006 -1.4790
   83MOL    H6016624   7.628   0.508   0.465 -1.6931  1.8360 -0.8806
   83MOL    H6116625   7.692   0.599   0.592 -1.4002  1.4186  0.7497
   83MOL    C6216626   7.355   0.551   0.752  0.0583  0.2679 -0.8228
   83MOL    C6316627   7.223   0.496   0.800 -0.5519  0.3153 -0.0189
   83MOL    O6416628   7.233   0.353   0.805 -0.2136  0.2415  0.4118
   83MOL    C6516629   7.146   0.278   0.714  0.4915  0.3133  0.0663
   83MOL    H6616630   7.370   0.652   0.790 -3.5543  0.2340  0.8512
   83MOL    H6716631   7.440   0.488   0.780 -0.0432 -0.3605 -1.8924
   83MOL    H6816632   7.137   0.515   0.737  0.5691  1.2388 -1.3062
   83MOL    H6916633   7.039   0.284   0.732  0.8927  0.4216  2.7252
   83MOL    H7016634   7.173   0.307   0.613 -0.8901  0.1424 -0.3629
   83MOL    H7116635   7.164   0.172   0.729 -1.6699 -0.1492 -0.4659
   83MOL    C7216636   7.196   0.547   0.940  1.3141 -0.2241  0.0389
   83MOL    C7316637   7.108   0.676   0.948  0.1766  0.0572 -0.2724
   83MOL    O7416638   6.984   0.640   0.880  0.1430 -0.2856 -0.3613
   83MOL    C7516639   6.904   0.532   0.914  0.1264  0.2442  0.4346
   83MOL    H7616640   7.293   0.559   0.987  0.1471  4.1172  1.5849
   83MOL    H7716641   7.139   0.470   0.992  1.0900 -0.6338 -0.8108
   83MOL    H7816642   7.169   0.746   0.892  1.9974 -1.0054  0.3475
   83MOL    H7916643   6.802   0.541   0.876  0.4493 -3.5516 -1.6121
   83MOL    H8016644   6.949   0.445   0.867 -0.4562  1.2329 -2.0412
   83MOL    H8116645   6.892   0.535   1.022  1.6801 -3.6351  0.7868
   83MOL    C8216646   7.080   0.725   1.098 -1.0843 -0.0942  0.6419
   83MOL    C8316647   7.187   0.823   1.158  0.3903 -0.3335 -0.0844
   83MOL    O8416648   7.126   0.865   1.282 -0.6322  0.2140 -0.5642
   83MOL    C8516649   7.136   1.002   1.302  0.0493  1.0808  0.2194
   83MOL    H8616650   7.072   0.632   1.155  2.2184 -0.6487  0.3347
   83MOL    H8716651   6.983   0.774   1.096  0.2003  2.4576 -1.3713
   83MOL    H8816652   7.206   0.905   1.088  1.4720 -0.1363  0.4290
   83MOL    H8916653   7.078   1.046   1.221 -0.4782 -1.7458 -0.9943
   83MOL    H9016654   7.106   1.028   1.404 -4.1812 -0.5474 -0.5037
   83MOL    H9116655   7.237   1.042   1.296  0.4376  0.1761  0.6810
   83MOL    C9216656   7.328   0.764   1.189 -0.4588  0.2427 -0.7112
   83MOL    C9316657   7.430   0.855   1.263 -0.0168 -0.9266  0.4406
   83MOL    O9416658   7.541   0.767   1.280  0.5889 -0.0447 -0.1854
   83MOL    C9516659   7.582   0.753   1.412  0.3836 -0.3350  0.1018
   83MOL    H9616660   7.370   0.757   1.088 -2.0527 -0.6196 -1.3324
   83MOL    H9716661   7.318   0.669   1.241  0.8819  0.7225  0.4475
   83MOL    H9816662   7.389   0.893   1.357 -0.7698  1.8402 -0.9757
   83MOL    H9916663   7.504   0.723   1.482 -0.9982  1.6733 -0.5368
   83MOL   H10016664   7.661   0.679   1.412  0.3680 -0.3515 -0.0059
   83MOL   H10116665   7.626   0.849   1.439 -0.9695  0.3915 -0.2116
   83MOL   C10216666   7.482   0.973   1.178 -0.1729 -0.4877 -0.6395
   83MOL   C10316667   7.586   1.069   1.244  0.3029 -0.5993  0.2123
   83MOL   O10416668   7.634   1.158   1.141  0.3897 -0.2375 -0.2080
   83MOL   C10516669   7.693   1.107   1.027 -0.2328 -0.1600  0.2353
   83MOL   H10616670   7.402   1.040   1.149 -0.7527 -1.7519 -2.0473
   83MOL   H10716671   7.531   0.942   1.086 -0.5447  0.9781 -1.3298
   83MOL   H10816672   7.675   1.013   1.273  1.5410  1.0974 -0.2289
   83MOL   H10916673   7.625   1.065   0.953  1.5293 -2.1768 -0.3106
   83MOL   H11016674   7.736   1.198   0.985 -1.3514  0.4256  0.3413
   83MOL   H11116675   7.765   1.035   1.067  1.9171  2.8279  1.9380
   83MOL   C11216676   7.525   1.142   1.357  0.4525  0.1368 -0.0800
   83MOL   C11316677   7.619   1.231   1.438  0.2143 -0.7643 -0.2831
   83MOL   O11416678   7.541   1.299   1.541 -0.0634  0.3542 -0.3286
   83MOL   C11516679   7.489   1.420   1.500 -0.1789 -0.4732 -0.3609
   83MOL   H11616680   7.484   1.067   1.425  0.6090 -0.5743 -0.7548
   83MOL   H11716681   7.438   1.201   1.329  0.1712 -0.2146  0.0515
   83MOL   H11816682   7.673   1.302   1.376  0.6347 -0.2812  0.6155
   83MOL   H11916683   7.422   1.466   1.573  1.8775  2.9203 -0.5251
   83MOL   H12016684   7.568   1.494   1.492  0.6513 -1.1357  1.3803
   83MOL   H12116685   7.435   1.412   1.405 -1.2380  0.9054  0.1099
   83MOL   C12216686   7.728   1.152   1.512  0.4388 -0.8644  0.1323
   83MOL   C12316687   0.031   1.228   1.592 -0.1580 -0.1893  0.2019
   83MOL   O12416688   0.124   1.295   1.501 -0.8859  0.2183  0.2222
   83MOL   C12516689   0.228   1.209   1.457 -0.3733  0.7513 -0.3529
   83MOL   H12616690   7.776   1.083   1.443 -1.1062 -0.6205 -1.2113
   83MOL   H12716691   7.674   1.101   1.592 -2.1487 -0.4273 -1.2572
   83MOL   H12816692   0.085   1.159   1.657  0.6721 -1.0023 -1.3234
   83MOL   H12916693   0.278   1.155   1.538  0.1544  1.7730  0.0021
   83MOL   H13016694   0.186   1.135   1.389 -0.1021 -0.2390  0.5390
   83MOL   H13116695   0.300   1.277   1.413 -1.4320  2.0385 -0.1346
   83MOL   C13216696   7.798   1.345   1.680  0.5069  0.1687 -0.3284
   83MOL   C13316697   7.725   1.300   1.808 -0.3370  0.2060 -0.0482
   83MOL   O13416698   7.799   1.223   1.902 -0.2965 -0.4174 -0.3933
   83MOL   C13516699   7.753   1.096   1.943  0.1387  0.1140  0.1640
   83MOL   H13616700   7.738   1.418   1.625 -0.7029  0.8055  1.7753
   83MOL   H13716701   0.073   1.406   1.711 -0.6162  0.8763  1.4284
   83MOL   H13816702   7.631   1.254   1.776 -0.9746  1.7561 -0.4906
   83MOL   H13916703   7.769   1.087   2.051  1.5092  1.2107  0.0594
   83MOL   H14016704   7.651   1.072   1.912 -0.3324  0.9595  1.0190
   83MOL   H14116705   7.810   1.020   1.889  0.3240 -1.1045  2.0167
   83MOL   C14216706   7.677   1.420   1.882 -0.0153 -0.1619 -0.5210
   83MOL   C14316707   7.561   1.405   1.995  0.2001  0.4455  0.1769
   83MOL   O14416708   7.532   1.536   2.025  0.0941  0.3754 -0.2339
   83MOL   C14516709   7.555   1.564   2.166  0.4532  0.3368  0.7264
   83MOL   H14616710   7.645   1.494   1.809 -1.4932  0.9178  1.1588
   83MOL   H14716711   7.768   1.460   1.927 -0.0025  0.9035 -1.4955
   83MOL   H14816712   7.611   1.350   2.075 -3.0732  0.8860  2.6345
   83MOL   H14916713   7.660   1.546   2.187  0.4796  0.4084  0.6586
   83MOL   H15016714   7.521   1.667   2.176  1.4397  1.0905 -2.9695
   83MOL   H15116715   7.498   1.492   2.225  2.0407 -0.6569  1.0844
   83MOL   C15216716   7.432   1.336   1.946 -0.2758 -0.0641 -0.2913
   83MOL   C15316717   7.312   1.310   2.040 -0.1769 -0.2253  0.4911
   83MOL   O15416718   7.205   1.246   1.963 -0.1122 -0.4682  0.5661
   83MOL   C15516719   7.111   1.329   1.892 -0.5466  0.1852  0.2303
   83MOL   H15616720   7.452   1.239   1.900  1.4292 -0.0219  0.3450
   83MOL   H15716721   7.399   1.402   1.867  1.8500  0.7514 -0.5284
   83MOL   H15816722   7.281   1.409   2.072 -1.6363 -1.4721  3.1483
   83MOL   H15916723   7.038   1.266   1.841 -0.1807  0.9441 -1.2647
   83MOL   H16016724   7.062   1.395   1.963 -2.5060  0.5216 -1.4090
   83MOL   H16116725   7.160   1.390   1.817 -2.8369  0.7225 -0.8732
   83MOL   C16216726   7.356   1.207   2.145 -0.2461 -0.1696  0.0469
   83MOL   C16316727   7.253   1.184   2.252 -0.0379  0.0542 -0.6554
   83MOL   O16416728   7.320   1.087   2.330  0.3169  0.7185 -0.1299
   83MOL   C16516729   7.224   1.021   2.406  0.3337  0.0695 -0.9185
   83MOL   H16616730   7.451   1.246   2.183  2.0448 -1.7545 -3.7825
   83MOL   H16716731   7.392   1.111   2.108  1.6934 -0.1151  1.6956
   83MOL   H16816732   7.164   1.149   2.201  0.8847 -0.9030 -1.6155
   83MOL   H16916733   7.157   0.966   2.340 -1.2096 -0.6830  1.2371
   83MOL   H17016734   7.262   0.958   2.486 -0.7032  1.5039  0.7474
   83MOL   H17116735   7.163   1.094   2.460 -0.0831 -0.0713 -1.2019
   83MOL   C17216736   7.233   1.314   2.340 -0.0119  0.1684  0.6144
   83MOL   C17316737   7.081   1.347   2.360  0.6660 -0.0039  0.2852
   83MOL   O17416738   7.075   1.452   2.455  0.0389  0.6014 -0.3758
   83MOL   C17516739   7.063   1.423   2.591 -0.4630  0.4803  0.2883
   83MOL   H17616740   7.295   1.396   2.304 -2.5375  1.4336 -0.9579
   83MOL   H17716741   7.262   1.294   2.443  1.0253  0.1930  0.3399
   83MOL   H17816742   7.037   1.258   2.405  0.9756  0.1954  0.9832
   83MOL   H17916743   7.143   1.367   2.640  0.6639 -1.0330 -3.1150
   83MOL   H18016744   7.037   1.510   2.651  1.3539  0.0122  1.8189
   83MOL   H18116745   6.985   1.350   2.610  1.9779 -2.0195  1.0082
   83MOL   C18216746   6.999   1.387   2.241 -0.4617  0.8267  0.7079
   83MOL   C18316747   6.851   1.434   2.275 -0.1498 -0.5432  0.5656
   83MOL   O18416748   6.778   1.469   2.149  0.1715  0.1098 -0.0377
   83MOL   C18516749   6.811   1.593   2.099 -0.6103 -0.0477 -0.1380
   83MOL   H18616750   7.003   1.299   2.177 -1.1803  0.4229  1.2109
   83MOL   H18716751   7.056   1.463   2.187  2.0593 -1.9171 -0.5857
   83MOL   H18816752   6.865   1.526   2.333  0.9465  1.3391 -2.6027
   83MOL   H18916753   6.779   1.672   2.167 -2.7785 -2.2130  1.4363
   83MOL   H19016754   6.911   1.615   2.062 -1.4145  2.7190 -0.7336
   83MOL   H19116755   6.759   1.612   2.005  0.9592 -0.1099 -1.0306
   83MOL   C19216756   6.771   1.341   2.363 -0.4261  0.0169  0.3381
   83MOL   C19316757   6.621   1.376   2.372  0.0386  0.6107  0.6400
   83MOL   O19416758   6.557   1.271   2.446 -0.2212  0.2474 -0.4653
   83MOL   C19516759   6.425   1.294   2.470  0.6173 -0.3174  0.2967
   83MOL   H19616760   6.818   1.327   2.460 -0.2546  1.0695  0.4092
   83MOL   H19716761   6.770   1.241   2.319 -2.4976  0.2028 -0.0910
   83MOL   H19816762   6.570   1.386   2.277  0.2614  1.2568  0.5871
   83MOL   H19916763   6.377   1.317   2.376 -3.2314 -2.7024  1.5866
   83MOL   H20016764   6.377   1.210   2.520  0.7993 -0.0679  0.9070
   83MOL   H20116765   6.425   1.384   2.532  0.7870  0.9019 -1.4367
   83MOL   H20216766   6.611   1.473   2.420 -1.5539  1.3151 -1.0675
   84MOL     C116767   4.101   5.029   2.426  0.3958  0.5988  0.1423
   84MOL     C216768   4.173   4.931   2.335  0.2750  0.2738 -0.5566
   84MOL     O316769   4.147   4.971   2.199  0.9275  0.0962  0.1886
   84MOL     C416770   4.175   4.879   2.094  0.2733 -1.1489  1.0361
   84MOL     H516771   3.994   5.037   2.406 -0.0215 -0.2228  1.9611
   84MOL     H616772   4.105   5.002   2.531 -1.4798  0.6014  0.2294
   84MOL     H716773   4.123   4.836   2.355 -2.8267  1.5521 -1.9357
   84MOL     H816774   4.147   4.933   2.003  2.2327  2.1157  2.2925
   84MOL     H916775   4.280   4.850   2.091  1.5658  3.1432  1.4594
   84MOL    H1016776   4.108   4.794   2.106 -1.1068 -0.3479 -0.6284
   84MOL    H1116777   4.135   5.131   2.413 -1.9227  1.4212  0.3001
   84MOL    C1216778   4.326   4.939   2.363  0.5263  0.1459 -0.0416
   84MOL    C1316779   4.373   4.890   2.497  0.1404 -0.4243  0.5227
   84MOL    O1416780   4.347   4.749   2.493  0.4616 -0.7076  0.2367
   84MOL    C1516781   4.303   4.701   2.614 -0.2350 -0.1519 -0.5819
   84MOL    H1616782   4.353   5.044   2.355  0.9855  0.1051  0.7789
   84MOL    H1716783   4.378   4.881   2.287  0.1511 -1.9539  1.2462
   84MOL    H1816784   4.309   4.942   2.567 -0.8970 -0.3785 -0.4401
   84MOL    H1916785   4.280   4.595   2.617  1.5044 -0.5143  1.0700
   84MOL    H2016786   4.368   4.717   2.700 -0.2488  0.5244 -0.6966
   84MOL    H2116787   4.203   4.734   2.640 -0.0160 -0.3998  0.5880
   84MOL    C2216788   4.519   4.917   2.530 -0.1561  0.3501  0.0921
   84MOL    C2316789   4.579   5.062   2.514  0.1049  0.3830 -0.6446
   84MOL    O2416790   4.534   5.134   2.628  0.3170  0.1088 -0.6701
   84MOL    C2516791   4.453   5.239   2.593 -0.6694  0.1710  0.4168
   84MOL    H2616792   4.592   4.850   2.486 -0.5373 -0.7072  1.0548
   84MOL    H2716793   4.535   4.882   2.632 -1.0601  0.6532  0.3458
   84MOL    H2816794   4.540   5.108   2.423  2.6939  2.9559 -0.5093
   84MOL    H2916795   4.396   5.262   2.684  1.5975  2.2886  1.3660
   84MOL    H3016796   4.510   5.327   2.563 -0.1988 -0.0090  0.7794
   84MOL    H3116797   4.368   5.226   2.526  0.2327 -1.8176 -0.3753
   84MOL    C3216798   4.736   5.068   2.502  0.3667 -0.2685 -0.3541
   84MOL    C3316799   4.829   5.057   2.628 -0.7461 -0.4777  0.9335
   84MOL    O3416800   4.836   4.924   2.675  0.1214  0.2034  0.5904
   84MOL    C3516801   4.799   4.907   2.810  0.1116 -0.3121  0.2847
   84MOL    H3616802   4.761   5.163   2.455 -0.7267  0.0601 -0.2877
   84MOL    H3716803   4.751   4.986   2.431 -0.4956 -0.2101 -0.6035
   84MOL    H3816804   4.790   5.125   2.703  1.1207 -0.6955  2.1346
   84MOL    H3916805   4.839   4.987   2.873  0.1829  1.8409 -2.4309
   84MOL    H4016806   4.691   4.914   2.827 -0.3407 -2.6559 -1.4014
   84MOL    H4116807   4.820   4.805   2.842 -0.8782 -1.4508 -2.5645
   84MOL    C4216808   4.979   5.107   2.609 -0.2825  0.2999 -0.5852
   84MOL    C4316809   5.073   5.099   2.728  0.3410  0.6740 -0.4604
   84MOL    O4416810   5.214   5.115   2.704  0.3693 -0.0706  0.2405
   84MOL    C4516811   5.285   5.007   2.637  1.0430 -0.7333  0.7239
   84MOL    H4616812   4.992   5.203   2.559 -2.0340  0.2197 -1.2218
   84MOL    H4716813   5.015   5.034   2.537 -0.5386 -1.4098  0.9830
   84MOL    H4816814   5.072   5.010   2.791 -0.6723  0.7893 -0.2959
   84MOL    H4916815   5.281   4.913   2.693 -0.5275 -1.3888 -0.4531
   84MOL    H5016816   5.256   4.980   2.535  3.8673 -2.0188  0.2211
   84MOL    H5116817   5.391   5.032   2.637  1.0904 -0.8496  3.3141
   84MOL    C5216818   5.035   5.213   2.816  0.0590  0.3718 -0.3617
   84MOL    C5316819   5.104   5.223   2.961  0.5992  0.1702 -0.4855
   84MOL    O5416820   5.036   5.329   3.026 -0.2666 -0.2732 -0.3404
   84MOL    C5516821   5.084   5.459   2.986 -0.2370 -0.2166  0.2964
   84MOL    H5616822   4.927   5.226   2.820  0.1811  0.8886  2.2821
   84MOL    H5716823   5.060   5.304   2.761 -0.0646  0.8913  0.4369
   84MOL    H5816824   5.210   5.245   2.961  0.1513  2.6177 -3.3504
   84MOL    H5916825   5.192   5.469   2.983 -0.1647 -1.2902 -1.1119
   84MOL    H6016826   5.061   5.482   2.882 -2.8331  1.2893  1.1396
   84MOL    H6116827   5.051   5.533   3.059  2.5303 -0.2968  1.7020
   84MOL    C6216828   5.064   5.098   3.056 -0.1732 -0.5150 -0.6477
   84MOL    C6316829   5.109   5.098   3.208 -0.3689 -0.1694 -0.0591
   84MOL    O6416830   5.058   4.988   3.288 -0.2438  0.2273 -0.4526
   84MOL    C6516831   4.926   4.995   3.330 -0.4331  0.4253 -0.3610
   84MOL    H6616832   5.107   5.009   3.008 -0.4926 -0.5949 -0.7840
   84MOL    H6716833   4.957   5.084   3.048 -0.2572 -0.2899  0.0571
   84MOL    H6816834   5.078   5.192   3.254  1.4207  0.7631 -0.7185
   84MOL    H6916835   4.917   4.927   3.416  0.6192  0.8633  0.1002
   84MOL    H7016836   4.896   5.094   3.362 -1.2597 -0.0711  0.4363
   84MOL    H7116837   4.863   4.947   3.255  2.1625 -1.2660 -1.5448
   84MOL    C7216838   5.262   5.103   3.220  0.1768 -0.0587  0.7284
   84MOL    C7316839   5.317   5.129   3.359 -0.6345 -0.3346  0.3752
   84MOL    O7416840   5.279   5.258   3.412 -1.0829 -0.0146 -0.3624
   84MOL    C7516841   5.327   5.367   3.339 -0.3597  0.5689 -0.0014
   84MOL    H7616842   5.302   5.182   3.157  0.7375 -2.2225 -1.6762
   84MOL    H7716843   5.287   5.005   3.181 -0.4715 -0.0911  0.3873
   84MOL    H7816844   5.424   5.115   3.343 -0.6424 -1.1536  1.0158
   84MOL    H7916845   5.436   5.363   3.333 -0.3612  0.7486 -0.1440
   84MOL    H8016846   5.287   5.387   3.240  0.8701  0.4443 -0.5291
   84MOL    H8116847   5.303   5.456   3.398 -0.3534  0.8881 -0.4777
   84MOL    C8216848   5.277   5.023   3.462 -0.7773 -0.0804 -0.2032
   84MOL    C8316849   5.362   5.018   3.593  0.0546 -0.5610 -0.3690
   84MOL    O8416850   5.496   5.010   3.551  0.2309  0.6568 -0.1296
   84MOL    C8516851   5.582   4.950   3.636 -0.5469  0.4066  0.2189
   84MOL    H8616852   5.301   4.923   3.426  1.1141  0.6487 -0.9749
   84MOL    H8716853   5.172   5.029   3.492 -0.8713 -1.5982 -0.1525
   84MOL    H8816854   5.328   4.930   3.647  0.9685 -0.9305 -0.3808
   84MOL    H8916855   5.662   4.899   3.581 -0.5794 -1.7682  2.1012
   84MOL    H9016856   5.643   5.013   3.700  0.8982  0.0886 -0.8353
   84MOL    H9116857   5.545   4.863   3.692 -0.3268  1.2322  1.6667
   84MOL    C9216858   5.340   5.141   3.684  0.2856  0.6501  0.2463
   84MOL    C9316859   5.198   5.168   3.734  0.1249  0.1651 -0.1005
   84MOL    O9416860   5.161   5.056   3.816 -0.3607  0.3949  0.8136
   84MOL    C9516861   5.036   4.999   3.784  0.4492  0.1828 -0.1320
   84MOL    H9616862   5.386   5.234   3.648 -0.2569  0.7549 -0.1798
   84MOL    H9716863   5.406   5.124   3.769 -1.0013 -1.3663  0.8612
   84MOL    H9816864   5.124   5.171   3.654  0.0215 -0.6638 -0.0378
   84MOL    H9916865   4.965   5.081   3.791 -0.2943 -0.4558 -0.0251
   84MOL   H10016866   5.038   4.966   3.680  1.8340  2.7642 -0.9697
   84MOL   H10116867   5.016   4.920   3.856 -0.3452  0.1913 -0.3401
   84MOL   C10216868   5.203   5.292   3.824  0.1022 -0.1514 -0.1796
   84MOL   C10316869   5.056   5.340   3.862 -0.5405  0.8811  0.5803
   84MOL   O10416870   5.058   5.422   3.973  0.1269  0.0071  0.6696
   84MOL   C10516871   4.953   5.405   4.070  0.3460 -0.0419 -0.0429
   84MOL   H10616872   5.257   5.370   3.770  1.8015 -0.6942  0.7075
   84MOL   H10716873   5.257   5.285   3.918  0.3343 -0.3318 -0.3223
   84MOL   H10816874   5.005   5.255   3.908 -1.1431  0.3757 -0.9896
   84MOL   H10916875   4.964   5.311   4.124  0.7560  1.3015  2.2895
   84MOL   H11016876   4.948   5.492   4.135 -1.7727 -1.4621  1.7513
   84MOL   H11116877   4.858   5.404   4.017 -1.8354  2.6922  3.5676
   84MOL   C11216878   4.966   5.388   3.747 -0.0938 -0.0475 -0.3985
   84MOL   C11316879   5.011   5.508   3.664 -0.0250  0.1904 -0.2330
   84MOL   O11416880   4.911   5.517   3.563 -0.4439 -0.3377 -1.1374
   84MOL   C11516881   4.945   5.442   3.441  0.0836 -0.6699 -0.2668
   84MOL   H11616882   4.868   5.406   3.791  1.0761  0.8253  1.9650
   84MOL   H11716883   4.963   5.302   3.680  1.1757  0.3142 -0.9403
   84MOL   H11816884   5.115   5.501   3.633  0.1292  0.7295  0.1588
   84MOL   H11916885   4.933   5.336   3.461 -1.3362 -0.5501 -0.4341
   84MOL   H12016886   4.867   5.471   3.370 -0.7602 -0.6708  0.6340
   84MOL   H12116887   5.044   5.465   3.404  0.7178 -2.9809 -0.0652
   84MOL   C12216888   5.011   5.623   3.754  0.0925 -0.3682  0.6241
   84MOL   C12316889   5.047   5.750   3.678 -0.0635 -0.0628  0.2350
   84MOL   O12416890   4.927   5.829   3.662  0.2852 -1.1423  0.2193
   84MOL   C12516891   4.863   5.812   3.539  0.2264  0.2240 -0.1055
   84MOL   H12616892   5.086   5.613   3.832  1.6863 -0.5284 -0.9229
   84MOL   H12716893   4.909   5.630   3.793 -0.4103 -2.8166 -0.1278
   84MOL   H12816894   5.091   5.728   3.581 -2.2888 -0.0291 -0.8234
   84MOL   H12916895   4.913   5.767   3.454 -0.2109 -0.1396 -0.1724
   84MOL   H13016896   4.782   5.741   3.554 -1.2784  2.4325  2.7893
   84MOL   H13116897   4.809   5.898   3.499 -1.6758 -0.3501  1.1905
   84MOL   C13216898   5.165   5.819   3.750  0.8636 -0.3548  0.4879
   84MOL   C13316899   5.233   5.940   3.684  0.3297 -0.4154  0.1039
   84MOL   O13416900   5.330   6.011   3.769  0.3336 -0.7529  0.0417
   84MOL   C13516901   5.312   6.152   3.758 -0.2961  0.1002  0.5269
   84MOL   H13616902   5.243   5.746   3.775  1.1415 -0.3201 -0.2660
   84MOL   H13716903   5.138   5.855   3.849  2.3462 -0.6202  1.0042
   84MOL   H13816904   5.147   5.998   3.653 -1.4549 -1.6812  2.5010
   84MOL   H13916905   5.360   6.184   3.666  0.3036 -1.4662  0.2761
   84MOL   H14016906   5.213   6.196   3.756  0.1648  1.1189 -2.0247
   84MOL   H14116907   5.363   6.187   3.848  0.8616 -0.3117  0.0401
   84MOL   C14216908   5.296   5.911   3.541  0.9003 -0.0284 -0.2082
   84MOL   C14316909   5.419   5.810   3.548 -0.0315 -0.3793  0.3380
   84MOL   O14416910   5.362   5.688   3.561  0.2453  0.4726 -0.5119
   84MOL   C14516911   5.434   5.577   3.618 -0.3542  0.0751 -0.0789
   84MOL   H14616912   5.329   6.004   3.494 -0.8412 -0.2441 -1.9002
   84MOL   H14716913   5.216   5.875   3.476  1.2298 -1.5588  0.2164
   84MOL   H14816914   5.475   5.845   3.634 -1.0170  0.5498  0.6152
   84MOL   H14916915   5.521   5.538   3.564 -2.0638 -0.6870 -2.3605
   84MOL   H15016916   5.472   5.608   3.715  0.3871  2.4713 -1.1029
   84MOL   H15116917   5.364   5.495   3.631  0.3241 -0.3998  0.6738
   84MOL   C15216918   5.507   5.803   3.419  1.0727  0.2873  0.0737
   84MOL   C15316919   5.658   5.826   3.443  0.0802 -0.6233  0.0302
   84MOL   O15416920   5.713   5.791   3.320  0.1180 -1.1899  0.0495
   84MOL   C15516921   5.792   5.676   3.322 -0.4279  0.7957 -0.8386
   84MOL   H15616922   5.475   5.886   3.356 -0.8975 -0.7081 -0.2426
   84MOL   H15716923   5.489   5.713   3.361 -1.2658  1.6187 -1.3413
   84MOL   H15816924   5.699   5.776   3.530 -2.8694 -0.8522  1.3733
   84MOL   H15916925   5.892   5.705   3.356  0.2939 -1.2884 -1.1620
   84MOL   H16016926   5.755   5.594   3.383  0.3907 -0.3985 -1.9129
   84MOL   H16116927   5.781   5.649   3.217 -1.2585 -0.2071 -0.4968
   84MOL   C16216928   5.687   5.985   3.464  0.2827  0.0601 -0.2708
   84MOL   C16316929   5.836   6.006   3.450 -0.2604 -0.2188 -0.2879
   84MOL   O16416930   5.842   6.145   3.460 -0.2559 -0.0171 -0.1601
   84MOL   C16516931   5.878   6.191   3.331 -0.4510 -0.3362  0.0036
   84MOL   H16616932   5.657   6.014   3.565 -1.1858 -1.0619 -0.3619
   84MOL   H16716933   5.636   6.046   3.390  1.0955 -2.0206 -2.6144
   84MOL   H16816934   5.878   5.969   3.356  1.1896  0.4780  0.0690
   84MOL   H16916935   5.983   6.176   3.308 -0.7566 -1.0707 -0.9835
   84MOL   H17016936   5.810   6.163   3.250  0.4032 -0.2361 -0.7574
   84MOL   H17116937   5.877   6.299   3.325  1.4960 -0.3737 -1.7690
   84MOL   C17216938   5.907   5.944   3.571  0.4691  0.8880  0.3772
   84MOL   C17316939   6.059   5.969   3.582  0.1798 -0.1680 -0.8868
   84MOL   O17416940   6.094   5.926   3.714  0.1661 -0.0945 -0.0533
   84MOL   C17516941   6.103   6.033   3.801 -0.1916  0.2555  0.5201
   84MOL   H17616942   5.882   5.838   3.566 -1.9116  1.4721 -0.5584
   84MOL   H17716943   5.857   5.970   3.664 -2.4263 -0.8682 -0.6241
   84MOL   H17816944   6.083   6.074   3.565  1.9200 -0.3326  0.4199
   84MOL   H17916945   6.191   6.089   3.768  0.4292 -1.3185 -0.5163
   84MOL   H18016946   6.021   6.105   3.792 -0.1043  0.1008 -1.9370
   84MOL   H18116947   6.114   5.993   3.902  1.0419 -1.4635 -0.2760
   84MOL   C18216948   6.136   5.881   3.486  1.0166  0.1386 -0.3402
   84MOL   C18316949   6.282   5.909   3.490 -1.1109 -0.3736 -0.0912
   84MOL   O18416950   6.349   5.785   3.461  0.1857 -0.4101  0.0822
   84MOL   C18516951   6.390   5.704   3.568  0.8322  0.0953  0.0724
   84MOL   H18616952   6.101   5.888   3.383  0.9858 -2.5083 -0.5435
   84MOL   H18716953   6.120   5.775   3.507  2.2092 -0.0171 -0.1541
   84MOL   H18816954   6.309   5.949   3.588 -0.5810 -0.6253 -0.1340
   84MOL   H18916955   6.445   5.765   3.640 -0.5320  1.1500  0.2454
   84MOL   H19016956   6.295   5.681   3.615  0.7254 -1.9415 -1.0623
   84MOL   H19116957   6.435   5.609   3.540 -1.0934 -1.4830  2.1321
   84MOL   C19216958   6.331   6.013   3.388 -0.8516  0.2522 -0.1128
   84MOL   C19316959   6.293   6.167   3.414 -0.2457 -0.0767 -0.0702
   84MOL   O19416960   6.345   6.245   3.312  0.0881  0.0594 -0.8821
   84MOL   C19516961   6.312   6.386   3.323 -0.0193 -0.5221  0.5106
   84MOL   H19616962   6.302   5.990   3.286 -1.5562 -0.2000  0.1870
   84MOL   H19716963   6.440   6.007   3.388 -0.8118  0.5819 -2.6508
   84MOL   H19816964   6.337   6.194   3.510 -1.7339 -3.0873  1.5342
   84MOL   H19916965   6.329   6.435   3.419 -4.9411  2.1675  0.2129
   84MOL   H20016966   6.358   6.453   3.251 -0.5635 -0.7166 -0.0254
   84MOL   H20116967   6.206   6.384   3.297  0.2387 -1.5625 -0.5140
   84MOL   H20216968   6.187   6.189   3.418 -0.3716 -0.8614  1.1670
   85MOL     C116969   4.204   6.592   4.546  1.0835  0.6272 -0.6400
   85MOL     C216970   4.265   6.703   4.466  0.6304  0.4309  0.6043
   85MOL     O316971   4.228   6.694   4.331  0.0667 -0.3069 -0.6876
   85MOL     C416972   4.296   6.591   4.266 -0.2428 -0.6840 -0.3681
   85MOL     H516973   4.215   6.493   4.501  1.3606 -0.5414  1.9451
   85MOL     H616974   4.253   6.593   4.643 -0.8912 -1.2855  0.4320
   85MOL     H716975   4.373   6.686   4.475  0.4080 -1.7087 -0.4950
   85MOL     H816976   4.285   6.489   4.302  2.7828 -0.6718  0.7165
   85MOL     H916977   4.244   6.581   4.171 -2.2311 -0.5328  0.6776
   85MOL    H1016978   4.400   6.621   4.249 -0.1371 -0.9208 -0.1392
   85MOL    H1116979   4.097   6.612   4.558  0.7125  0.1554 -2.8640
   85MOL    C1216980   4.235   6.841   4.524  0.2922 -0.3472  0.2283
   85MOL    C1316981   4.326   6.952   4.467 -0.7604 -0.4177 -0.5431
   85MOL    O1416982   4.463   6.920   4.496 -0.4077  0.0940  0.2598
   85MOL    C1516983   4.552   7.031   4.497  0.1232  0.5817  0.3090
   85MOL    H1616984   4.263   6.827   4.628  1.5267 -1.1672 -0.1921
   85MOL    H1716985   4.129   6.863   4.536  0.6166  1.7365 -0.5741
   85MOL    H1816986   4.291   7.041   4.518  0.4870  0.8585 -1.8672
   85MOL    H1916987   4.514   7.095   4.577 -2.9989  0.0193 -0.6707
   85MOL    H2016988   4.657   7.006   4.508 -0.3179 -2.2235 -1.4346
   85MOL    H2116989   4.545   7.094   4.408  1.2428 -0.3302 -0.4328
   85MOL    C2216990   4.315   6.982   4.318  0.2098  0.0060  0.0127
   85MOL    C2316991   4.177   7.023   4.270  0.6128  0.5367 -0.1328
   85MOL    O2416992   4.166   7.150   4.329  0.6721 -0.2663 -0.5957
   85MOL    C2516993   4.032   7.185   4.357  0.6249  0.0316  0.4499
   85MOL    H2616994   4.354   6.895   4.265 -0.3723 -0.5662  0.5023
   85MOL    H2716995   4.376   7.067   4.290  1.6457 -0.3576  1.9025
   85MOL    H2816996   4.103   6.956   4.313  0.8558  0.6614  0.4927
   85MOL    H2916997   3.977   7.188   4.263  1.1035 -0.2885  0.1570
   85MOL    H3016998   3.989   7.109   4.423  1.4432  0.2673  1.2680
   85MOL    H3116999   4.033   7.277   4.415 -1.3685  1.1398 -1.2064
   85MOL    C3217000   4.168   7.029   4.112  0.4061  0.0787  0.3948
   85MOL    C3317001   4.151   6.894   4.034 -0.1585 -0.1159  0.0800
   85MOL    O3417002   4.017   6.852   4.021  0.2971 -0.2002  0.0744
   85MOL    C3517003   4.002   6.709   4.043 -0.0963 -0.1008 -0.4488
   85MOL    H3617004   4.249   7.091   4.074 -1.0148  0.6550 -1.7910
   85MOL    H3717005   4.079   7.089   4.092 -0.6296 -0.8313  2.1379
   85MOL    H3817006   4.189   6.812   4.095 -1.5019 -1.8287 -1.3303
   85MOL    H3917007   3.895   6.705   4.024  0.2169  0.2470 -2.3595
   85MOL    H4017008   4.060   6.649   3.972  1.6775 -0.1218  0.9764
   85MOL    H4117009   4.030   6.668   4.141 -0.5896 -2.3138 -1.1967
   85MOL    C4217010   4.210   6.895   3.886 -0.0294 -0.6464 -0.0995
   85MOL    C4317011   4.140   7.002   3.800  0.0296 -0.7576  0.5988
   85MOL    O4417012   4.180   7.134   3.813  0.3615  0.5081  0.3071
   85MOL    C4517013   4.074   7.236   3.786 -0.5485  0.3065 -0.2605
   85MOL    H4617014   4.204   6.798   3.837 -0.5872 -0.1625 -1.0031
   85MOL    H4717015   4.313   6.927   3.893 -0.3738  0.1378  1.6378
   85MOL    H4817016   4.035   6.982   3.823 -0.2659 -0.1837 -0.2189
   85MOL    H4917017   3.975   7.190   3.790 -1.8978  3.2016  0.3498
   85MOL    H5017018   4.059   7.320   3.853 -1.9416 -0.1369 -0.0027
   85MOL    H5117019   4.086   7.283   3.688  0.9491  1.2114  0.3340
   85MOL    C5217020   4.154   6.968   3.656  0.0799 -0.0611 -0.6723
   85MOL    C5317021   4.062   6.849   3.610 -0.5510 -0.4647 -0.3126
   85MOL    O5417022   3.924   6.893   3.622  0.3499 -0.0565 -0.2742
   85MOL    C5517023   3.824   6.787   3.600 -0.2865  0.1033 -0.7305
   85MOL    H5617024   4.259   6.955   3.631  0.2699  1.8494 -0.9052
   85MOL    H5717025   4.111   7.054   3.605 -1.1729  1.9776  3.6060
   85MOL    H5817026   4.089   6.760   3.667 -1.5339 -2.5363 -3.0264
   85MOL    H5917027   3.736   6.841   3.567  1.3050  1.0936 -3.6061
   85MOL    H6017028   3.853   6.714   3.524 -2.4731 -0.4862 -1.0343
   85MOL    H6117029   3.804   6.727   3.689 -0.5791  1.0499 -0.1604
   85MOL    C6217030   4.094   6.824   3.458  0.4403  0.9459 -0.5398
   85MOL    C6317031   4.234   6.765   3.419 -0.1299 -0.2046 -0.7070
   85MOL    O6417032   4.234   6.637   3.473 -0.3198  0.7084  0.0365
   85MOL    C6517033   4.357   6.591   3.507  0.1248  0.1454 -0.3714
   85MOL    H6617034   4.075   6.923   3.416  0.8624  0.9783 -0.6585
   85MOL    H6717035   4.019   6.759   3.414  0.4063 -0.6377  1.7817
   85MOL    H6817036   4.307   6.833   3.462 -2.6218  0.8221  2.1512
   85MOL    H6917037   4.383   6.498   3.456 -1.2370 -0.3137 -0.2510
   85MOL    H7017038   4.449   6.647   3.493  1.0301 -1.2343 -0.0114
   85MOL    H7117039   4.359   6.565   3.613 -0.5197  0.4179 -0.2890
   85MOL    C7217040   4.267   6.752   3.271 -0.5785 -0.0365 -0.1902
   85MOL    C7317041   4.252   6.888   3.192 -0.7439  0.6391 -0.9319
   85MOL    O7417042   4.340   6.985   3.246 -0.3130 -0.4749  0.0620
   85MOL    C7517043   4.278   7.105   3.286  0.3511 -0.0752 -0.1934
   85MOL    H7617044   4.194   6.691   3.218  0.6548  0.0691 -2.0667
   85MOL    H7717045   4.366   6.711   3.254 -0.8499 -0.6328 -0.3524
   85MOL    H7817046   4.145   6.908   3.195 -0.8475  0.1821 -1.3986
   85MOL    H7917047   4.201   7.087   3.362  0.5627  0.8302  0.2510
   85MOL    H8017048   4.358   7.165   3.329  0.0097 -0.2845  0.7474
   85MOL    H8117049   4.231   7.150   3.199  0.4193 -0.5058 -0.4520
   85MOL    C8217050   4.293   6.874   3.042 -0.5394  0.0279  0.5020
   85MOL    C8317051   4.210   6.789   2.948  0.2177  0.2318  0.5240
   85MOL    O8417052   4.082   6.847   2.961  0.0464 -0.3861  0.3111
   85MOL    C8517053   3.987   6.765   3.021  0.0755 -0.4802 -0.5087
   85MOL    H8617054   4.399   6.848   3.041 -0.3271  0.8795  0.5238
   85MOL    H8717055   4.288   6.972   2.996  0.4280  1.4431  3.3574
   85MOL    H8817056   4.206   6.687   2.987 -2.5525  0.5958  1.2821
   85MOL    H8917057   3.893   6.821   3.010 -1.0166 -2.1204  0.3297
   85MOL    H9017058   3.963   6.676   2.963 -0.4713 -0.5767 -0.1385
   85MOL    H9117059   4.000   6.740   3.126  1.5165 -3.4579 -1.3684
   85MOL    C9217060   4.248   6.796   2.796  0.4364 -0.7949 -1.0846
   85MOL    C9317061   4.369   6.714   2.747 -0.0249 -0.6778  0.5444
   85MOL    O9417062   4.342   6.577   2.779 -0.2137 -0.3796 -0.1879
   85MOL    C9517063   4.461   6.501   2.792 -0.3928  0.0193 -0.6306
   85MOL    H9617064   4.250   6.899   2.761 -0.8494 -0.1771  0.5825
   85MOL    H9717065   4.163   6.761   2.738  0.2802  1.0442 -2.0002
   85MOL    H9817066   4.448   6.749   2.812 -0.3836  0.7460  0.2473
   85MOL    H9917067   4.534   6.486   2.712 -0.6664  0.6994 -1.0152
   85MOL   H10017068   4.513   6.540   2.879 -0.4348  1.4383 -1.2242
   85MOL   H10117069   4.418   6.405   2.822 -0.6227  0.8841  1.8782
   85MOL   C10217070   4.397   6.732   2.595 -0.3746 -0.0883  0.0315
   85MOL   C10317071   4.442   6.872   2.557  0.4772 -0.1126  0.4207
   85MOL   O10417072   4.580   6.853   2.516  0.2294 -0.0519 -0.2801
   85MOL   C10517073   4.661   6.969   2.543  0.0913  0.0345 -0.7569
   85MOL   H10617074   4.302   6.720   2.544 -0.1136 -1.1874 -0.2041
   85MOL   H10717075   4.466   6.658   2.553  0.2558  0.9630 -0.8274
   85MOL   H10817076   4.449   6.924   2.652 -2.3688  0.9264  0.1029
   85MOL   H10917077   4.765   6.949   2.520 -0.5075 -2.5306 -1.4741
   85MOL   H11017078   4.632   7.051   2.476 -0.0075 -1.4222 -2.5369
   85MOL   H11117079   4.647   7.009   2.643 -1.2085 -1.8503 -0.1535
   85MOL   C11217080   4.369   6.952   2.452  0.3731 -0.0613  0.2457
   85MOL   C11317081   4.365   6.888   2.310 -0.0939 -0.6591 -0.9129
   85MOL   O11417082   4.273   6.780   2.323  0.4077  0.6130 -0.7008
   85MOL   C11517083   4.280   6.698   2.211  0.7383 -0.6441  0.2069
   85MOL   H11617084   4.416   7.050   2.452  2.9910 -1.2501 -1.1645
   85MOL   H11717085   4.270   6.971   2.493 -1.2519 -3.3547 -1.8638
   85MOL   H11817086   4.461   6.837   2.297 -1.4807 -2.9267 -2.6837
   85MOL   H11917087   4.190   6.637   2.220  0.6206 -0.2735  1.6998
   85MOL   H12017088   4.272   6.734   2.108  0.0982 -0.3253  0.3631
   85MOL   H12117089   4.364   6.630   2.222  2.0779  0.6603 -1.6648
   85MOL   C12217090   4.327   6.990   2.203  0.2552 -0.6934 -0.0349
   85MOL   C12317091   4.415   7.122   2.187  0.3398  0.0434 -0.7981
   85MOL   O12417092   4.555   7.086   2.180  0.1585 -0.3092  0.0263
   85MOL   C12517093   4.585   7.017   2.062  0.0508 -0.2966 -0.6478
   85MOL   H12617094   4.222   7.016   2.215 -0.0479 -1.8333 -0.2024
   85MOL   H12717095   4.312   6.927   2.116 -1.4106 -2.2469  1.3227
   85MOL   H12817096   4.418   7.188   2.274  4.3491  1.6027 -2.0107
   85MOL   H12917097   4.658   7.068   1.999  0.5044 -1.8867 -1.4269
   85MOL   H13017098   4.629   6.918   2.075  0.0427 -0.1307  0.7141
   85MOL   H13117099   4.499   6.995   1.999 -1.8741  2.0738  1.0268
   85MOL   C13217100   4.363   7.220   2.069  0.3933  0.0678 -0.3011
   85MOL   C13317101   4.226   7.277   2.095  0.3647 -0.4161  0.6493
   85MOL   O13417102   4.233   7.343   2.229  0.1772  0.3884  0.1033
   85MOL   C13517103   4.103   7.349   2.296  0.0444  0.2413  0.2745
   85MOL   H13617104   4.364   7.168   1.973  4.4143  1.0287 -0.8424
   85MOL   H13717105   4.434   7.301   2.058 -0.9113  1.0538 -1.7280
   85MOL   H13817106   4.143   7.206   2.090 -0.2883  0.2901  1.2545
   85MOL   H13917107   4.039   7.410   2.232 -0.5070 -1.1404 -0.5180
   85MOL   H14017108   4.055   7.251   2.302 -1.0070  0.7623  0.5877
   85MOL   H14117109   4.130   7.389   2.393  0.6538 -0.9867  0.6195
   85MOL   C14217110   4.188   7.394   2.001  0.3742 -0.3316 -0.6780
   85MOL   C14317111   4.181   7.372   1.846  0.2374 -0.1621  0.1239
   85MOL   O14417112   4.079   7.281   1.825 -0.0648  0.0823  0.3043
   85MOL   C14517113   4.118   7.150   1.796 -0.2109 -0.1075  0.1321
   85MOL   H14617114   4.264   7.472   2.009  0.3088 -0.2581 -0.7882
   85MOL   H14717115   4.094   7.442   2.026  1.5587  1.0227  1.3664
   85MOL   H14817116   4.277   7.339   1.808 -0.2462 -0.2923 -1.0049
   85MOL   H14917117   4.207   7.150   1.733  0.1925 -3.3112  0.6347
   85MOL   H15017118   4.137   7.085   1.881  0.7001 -1.2398 -0.9047
   85MOL   H15117119   4.035   7.098   1.749  1.4784 -0.9633 -2.0297
   85MOL   C15217120   4.145   7.497   1.765 -0.5585  0.1359  0.0023
   85MOL   C15317121   4.138   7.478   1.606 -0.1855  0.4413  0.7399
   85MOL   O15417122   4.065   7.583   1.551  0.6551  0.3075  0.2760
   85MOL   C15517123   3.936   7.538   1.508 -0.4841  0.5092 -0.2766
   85MOL   H15617124   4.211   7.581   1.787  1.4517 -1.4026  0.0353
   85MOL   H15717125   4.046   7.532   1.794 -0.3623 -0.8073  1.9014
   85MOL   H15817126   4.080   7.387   1.596  0.7051 -0.1703  1.0512
   85MOL   H15917127   3.891   7.618   1.450  0.4540 -1.1422 -3.3807
   85MOL   H16017128   3.938   7.445   1.451 -1.0585  1.3340 -1.6684
   85MOL   H16117129   3.869   7.515   1.591  0.0650  1.2994  0.3980
   85MOL   C16217130   4.279   7.469   1.538  1.0652 -0.3438 -0.4005
   85MOL   C16317131   4.291   7.408   1.400 -0.1603  0.1630  0.5978
   85MOL   O16417132   4.183   7.465   1.326  0.4813  0.2116 -0.3252
   85MOL   C16517133   4.133   7.381   1.224  0.6657 -0.6596 -0.1972
   85MOL   H16617134   4.345   7.422   1.610 -0.4710  1.6667  2.4546
   85MOL   H16717135   4.316   7.571   1.527 -1.2255  0.3935 -1.6239
   85MOL   H16817136   4.286   7.299   1.406  1.8318 -0.0091 -0.5231
   85MOL   H16917137   4.058   7.438   1.171 -0.0711  0.3114  1.8444
   85MOL   H17017138   4.199   7.349   1.143 -0.8118 -2.1198 -0.8509
   85MOL   H17117139   4.076   7.296   1.263 -2.4136  0.2552 -2.5585
   85MOL   C17217140   4.422   7.457   1.337 -0.5551  0.1696 -0.0839
   85MOL   C17317141   4.544   7.431   1.425 -0.0127 -0.1219 -0.6109
   85MOL   O17417142   4.568   7.292   1.439  0.5498 -0.0588  0.1352
   85MOL   C17517143   4.634   7.254   1.569 -0.5948 -0.4178  0.3376
   85MOL   H17617144   4.411   7.563   1.313 -1.1745  0.4598  1.4354
   85MOL   H17717145   4.429   7.405   1.241  0.0175  1.2682 -0.6495
   85MOL   H17817146   4.534   7.473   1.525  1.2963 -3.2306  0.8793
   85MOL   H17917147   4.644   7.146   1.580  1.1544 -0.1809  1.1514
   85MOL   H18017148   4.732   7.300   1.578 -0.0545 -1.4792 -0.0012
   85MOL   H18117149   4.579   7.283   1.658 -0.2498  1.3532 -0.0144
   85MOL   C18217150   4.673   7.503   1.361  0.3628 -0.0165  0.2214
   85MOL   C18317151   4.669   7.656   1.317 -0.2564 -0.2460 -0.8687
   85MOL   O18417152   4.627   7.752   1.409  0.2838  0.6684  0.3013
   85MOL   C18517153   4.524   0.029   1.367  0.0495  0.7563 -0.1880
   85MOL   H18617154   4.706   7.455   1.269  0.8771  1.4228 -0.3551
   85MOL   H18717155   4.760   7.485   1.425 -0.1619  0.5433  1.1078
   85MOL   H18817156   4.620   7.650   1.220 -1.1075 -1.6858 -0.3686
   85MOL   H18917157   4.470   0.012   1.274 -2.4349  1.2838  1.1224
   85MOL   H19017158   4.442   0.025   1.438  1.1283 -0.8268  0.9856
   85MOL   H19117159   4.554   0.134   1.369  0.7046  0.5691 -0.1779
   85MOL   C19217160   4.814   7.693   1.287 -0.0597 -0.1547  0.2608
   85MOL   C19317161   4.822   0.014   1.211  0.6840  0.5547  1.0061
   85MOL   O19417162   4.953   0.049   1.166 -0.1778  0.5487 -0.2515
   85MOL   C19517163   4.994   7.799   1.041  0.0079 -0.0806  0.1497
   85MOL   H19617164   4.861   7.616   1.226  0.8608  1.2732 -0.8616
   85MOL   H19717165   4.885   7.700   1.371  1.4078  0.2762 -0.9844
   85MOL   H19817166   4.797   0.093   1.282  1.0662 -1.9310  4.0134
   85MOL   H19917167   4.939   0.021   0.953  1.4453  0.6714 -0.4822
   85MOL   H20017168   5.095   0.007   1.006 -0.4304  1.2809 -0.4137
   85MOL   H20117169   4.984   7.690   1.037 -3.1178  0.1321  0.7739
   85MOL   H20217170   4.754   0.024   1.127  2.0203  3.9997  0.2500
   86MOL     C117171   0.304   5.258   2.735 -0.0392 -0.5233 -0.2162
   86MOL     C217172   0.326   5.365   2.847 -0.3128 -0.3580 -0.2197
   86MOL     O317173   0.465   5.385   2.870 -0.3269 -0.0737 -0.1839
   86MOL     C417174   0.529   5.304   2.973 -0.1019 -0.1115  0.5386
   86MOL     H517175   0.367   5.295   2.655  0.0469 -4.7421 -2.2049
   86MOL     H617176   0.340   5.163   2.774 -0.2315  0.3216  2.1168
   86MOL     H717177   0.280   5.327   2.938  0.4149 -4.0724 -1.3151
   86MOL     H817178   0.509   5.197   2.968 -0.4391 -0.1326  2.0583
   86MOL     H917179   0.638   5.315   2.968 -0.2116  0.6776 -0.2167
   86MOL    H1017180   0.496   5.337   3.071 -1.2185 -2.5907  1.0461
   86MOL    H1117181   0.201   5.246   2.703 -0.4305  1.4166  0.2396
   86MOL    C1217182   0.269   5.506   2.803  0.0455  0.7377  0.3584
   86MOL    C1317183   0.312   5.628   2.883 -0.2167  0.2545 -0.1194
   86MOL    O1417184   0.248   5.745   2.842  0.1890  0.4938  0.5428
   86MOL    C1517185   0.298   5.801   2.721 -0.2779  0.5765  0.0068
   86MOL    H1617186   0.161   5.502   2.815 -0.0969  0.3276 -0.9751
   86MOL    H1717187   0.301   5.519   2.700 -2.8226  0.3520 -0.6200
   86MOL    H1817188   0.421   5.620   2.875 -0.3745 -1.8153 -0.4163
   86MOL    H1917189   0.272   5.735   2.638  1.2581  0.6349 -0.5347
   86MOL    H2017190   0.246   5.894   2.701 -1.6867 -0.0107  0.8041
   86MOL    H2117191   0.404   5.827   2.725 -0.2374  0.8290 -2.3116
   86MOL    C2217192   0.288   5.606   3.031  0.0103  0.1820  0.3741
   86MOL    C2317193   0.353   5.712   3.120  0.2165  0.2894  0.0065
   86MOL    O2417194   0.325   5.675   3.257 -0.3038 -0.5794  0.0833
   86MOL    C2517195   0.283   5.778   3.343 -0.7312 -0.1399 -0.3805
   86MOL    H2617196   0.327   5.508   3.055 -0.5575 -0.1115  0.0934
   86MOL    H2717197   0.181   5.600   3.054  0.1446 -0.3984  0.8586
   86MOL    H2817198   0.306   5.806   3.091 -0.4196 -0.1705 -0.4648
   86MOL    H2917199   0.189   5.827   3.318 -0.8100 -0.2522 -0.3038
   86MOL    H3017200   0.285   5.724   3.437  3.7002 -2.4626 -1.6687
   86MOL    H3117201   0.355   5.857   3.363 -0.9180 -0.1467  0.3139
   86MOL    C3217202   0.511   5.722   3.109 -0.3383  0.0163 -0.0273
   86MOL    C3317203   0.561   5.846   3.039  0.2251  0.5214 -0.1101
   86MOL    O3417204   0.511   5.948   3.127  0.7478 -0.0192 -0.2923
   86MOL    C3517205   0.485   6.067   3.054 -0.0762 -0.3620  0.1908
   86MOL    H3617206   0.567   5.632   3.085 -1.0391 -0.3610 -0.2707
   86MOL    H3717207   0.539   5.727   3.215  0.4635  0.7068 -0.2664
   86MOL    H3817208   0.524   5.854   2.937 -0.0029 -0.2729 -0.0955
   86MOL    H3917209   0.439   6.063   2.955  0.4250 -0.0076 -0.0623
   86MOL    H4017210   0.424   6.132   3.117 -1.3016  0.3919 -1.7183
   86MOL    H4117211   0.579   6.113   3.022  0.5627 -0.6627  1.6171
   86MOL    C4217212   0.713   5.859   3.047  0.0821  0.7206  0.6319
   86MOL    C4317213   0.812   5.789   2.947  0.1372 -0.2408 -0.3117
   86MOL    O4417214   0.793   5.650   2.964 -0.0272  0.3693  0.0664
   86MOL    C4517215   0.867   5.595   3.075  0.1145  0.2137 -0.9334
   86MOL    H4617216   0.751   5.841   3.148 -0.1031 -0.7484  0.4538
   86MOL    H4717217   0.739   5.964   3.040  2.0376  0.4097  2.6512
   86MOL    H4817218   0.914   5.811   2.976 -0.4406  2.2984 -0.0913
   86MOL    H4917219   0.857   5.486   3.076  2.1520 -0.0675 -3.7387
   86MOL    H5017220   0.975   5.610   3.081  0.0083  0.6116  0.1054
   86MOL    H5117221   0.827   5.621   3.173  0.1015 -1.6492 -0.4152
   86MOL    C5217222   0.789   5.814   2.803  0.7150  0.4356  0.3240
   86MOL    C5317223   0.870   5.723   2.709  0.1396 -0.6544  0.1305
   86MOL    O5417224   0.844   5.769   2.582  0.4494  0.0067  0.5918
   86MOL    C5517225   0.732   5.715   2.510 -0.2370 -0.3895 -0.1124
   86MOL    H5617226   0.823   5.917   2.789  3.8916 -0.2560  2.5899
   86MOL    H5717227   0.683   5.795   2.785  0.0807  3.2492  0.7614
   86MOL    H5817228   0.824   5.624   2.717 -1.2657  0.0230  0.4200
   86MOL    H5917229   0.646   5.701   2.575  0.2831  0.8193  0.8417
   86MOL    H6017230   0.700   5.788   2.435 -3.3331  1.3270  2.7660
   86MOL    H6117231   0.763   5.625   2.456  1.2084 -0.2241  0.4112
   86MOL    C6217232   1.026   5.708   2.731 -0.2605 -0.4776 -0.6006
   86MOL    C6317233   1.114   5.648   2.604 -0.1265 -0.3386 -0.3940
   86MOL    O6417234   1.251   5.692   2.630 -0.2916  0.2819  0.7292
   86MOL    C6517235   1.327   5.693   2.512 -0.1102 -0.3836  0.2899
   86MOL    H6617236   1.047   5.653   2.824  1.6017  0.8995 -0.1657
   86MOL    H6717237   1.068   5.806   2.753 -0.2264 -0.6349  0.0735
   86MOL    H6817238   1.065   5.677   2.511  0.4822  0.4708 -0.4675
   86MOL    H6917239   1.279   5.751   2.432 -0.6599 -1.9589 -0.5474
   86MOL    H7017240   1.425   5.730   2.541  0.2131  0.0393 -1.2625
   86MOL    H7117241   1.348   5.590   2.483  1.5557 -0.2254  0.8856
   86MOL    C7217242   1.107   5.496   2.595 -0.0846 -0.2358  0.3591
   86MOL    C7317243   1.021   5.431   2.496  0.0365 -0.3107 -0.1670
   86MOL    O7417244   1.071   5.464   2.365  0.4499  0.5477 -0.1900
   86MOL    C7517245   0.990   5.447   2.248  0.6922  0.3457  0.3176
   86MOL    H7617246   1.098   5.454   2.695 -2.0670  2.4524  1.3711
   86MOL    H7717247   1.210   5.465   2.575  0.1272  1.2475 -0.9337
   86MOL    H7817248   0.922   5.476   2.496  0.8465  1.5436  2.0394
   86MOL    H7917249   0.966   5.343   2.226 -1.5556  1.0370 -0.6871
   86MOL    H8017250   0.898   5.507   2.253  0.7150  0.2816  1.6080
   86MOL    H8117251   1.055   5.482   2.168 -0.1114  0.4461 -0.2972
   86MOL    C8217252   1.008   5.273   2.518 -0.3836  0.7699  0.4982
   86MOL    C8317253   0.916   5.232   2.636 -0.3864  0.1507  0.3223
   86MOL    O8417254   0.794   5.266   2.576  0.1187  0.0646  0.8893
   86MOL    C8517255   0.687   5.307   2.661  0.2221 -0.2321 -0.2722
   86MOL    H8617256   1.113   5.248   2.531 -0.3915  0.0775 -0.7281
   86MOL    H8717257   0.967   5.227   2.429 -0.4339  0.3718  0.7278
   86MOL    H8817258   0.922   5.298   2.723 -0.8996 -0.4244  0.8030
   86MOL    H8917259   0.647   5.230   2.727 -0.1768  0.2181  0.0165
   86MOL    H9017260   0.717   5.393   2.721  2.8615 -1.5288  0.3425
   86MOL    H9117261   0.609   5.332   2.588  1.3274 -0.4570 -1.5434
   86MOL    C9217262   0.934   5.079   2.676  0.0595 -0.0381 -0.1610
   86MOL    C9317263   1.072   5.026   2.720 -0.2225  0.2016 -0.3217
   86MOL    O9417264   1.103   5.107   2.834  0.0467 -0.0825  0.1046
   86MOL    C9517265   1.238   5.140   2.845  0.0965 -0.0504 -0.0253
   86MOL    H9617266   0.898   5.024   2.589  1.3423  1.1278 -1.4707
   86MOL    H9717267   0.851   5.060   2.743  0.5057  2.9937  1.3360
   86MOL    H9817268   1.146   5.049   2.643  2.0483 -0.3875  1.6104
   86MOL    H9917269   1.295   5.057   2.886  0.3445 -0.7737 -1.7515
   86MOL   H10017270   1.281   5.150   2.745  0.4198  1.3742  0.2535
   86MOL   H10117271   1.243   5.227   2.910 -0.0296 -0.1600  0.1297
   86MOL   C10217272   1.068   4.877   2.751 -0.3042  0.0538  0.2394
   86MOL   C10317273   1.051   4.784   2.629  0.9772 -0.4692  0.1392
   86MOL   O10417274   1.171   4.808   2.552 -0.0580  0.9122 -0.3381
   86MOL   C10517275   1.162   4.790   2.409 -0.2149 -0.0143 -0.1445
   86MOL   H10617276   0.991   4.879   2.828  0.2817  2.0721  0.8040
   86MOL   H10717277   1.164   4.848   2.792  0.3055 -1.6009 -2.2537
   86MOL   H10817278   0.958   4.809   2.578  0.8290  1.7241  1.4035
   86MOL   H10917279   1.091   4.861   2.365  1.8560  0.6184 -2.5847
   86MOL   H11017280   1.260   4.805   2.365 -0.6338  1.0061 -0.7411
   86MOL   H11117281   1.132   4.688   2.382  0.4086 -0.3162  0.2912
   86MOL   C11217282   1.037   4.635   2.667  0.4042  1.0632 -0.1126
   86MOL   C11317283   0.905   4.597   2.733 -0.5729 -0.2180  0.1383
   86MOL   O11417284   0.795   4.616   2.638 -0.2369  0.9620  0.6274
   86MOL   C11517285   0.701   4.719   2.665  0.2737  0.0332 -0.2136
   86MOL   H11617286   1.117   4.613   2.738  1.6709 -0.7417 -2.0020
   86MOL   H11717287   1.048   4.561   2.587  0.2230  0.2512  0.6170
   86MOL   H11817288   0.892   4.662   2.819 -1.6030 -0.0286 -0.1580
   86MOL   H11917289   0.745   4.816   2.689  0.8764 -0.7017  1.7354
   86MOL   H12017290   0.632   4.719   2.581 -0.6098  1.0334  0.4961
   86MOL   H12117291   0.637   4.709   2.753  1.3368  0.9508  0.6841
   86MOL   C12217292   0.925   4.452   2.784  0.4665 -0.1198 -0.2701
   86MOL   C12317293   0.798   4.388   2.843 -0.8278 -0.2837 -0.0031
   86MOL   O12417294   0.834   4.251   2.869 -0.0988  0.1068  0.1191
   86MOL   C12517295   0.782   4.141   2.793 -0.5454 -0.3618 -0.4239
   86MOL   H12617296   1.004   4.434   2.856  0.8834  0.9024 -0.4617
   86MOL   H12717297   0.948   4.389   2.697  0.1498  0.0269 -0.4611
   86MOL   H12817298   0.713   4.396   2.775 -0.7281 -0.3232 -0.1316
   86MOL   H12917299   0.700   4.093   2.848 -0.7773 -0.3799 -0.7847
   86MOL   H13017300   0.750   4.183   2.698  0.2360 -0.2439 -0.6386
   86MOL   H13117301   0.862   4.068   2.787 -0.3168 -0.1750  0.2742
   86MOL   C13217302   0.747   4.456   2.973  1.2500  0.2344 -0.2667
   86MOL   C13317303   0.610   4.425   3.024  0.6778 -0.1644 -0.7355
   86MOL   O13417304   0.602   4.460   3.163  0.0817 -0.2522  0.6319
   86MOL   C13517305   0.646   4.375   3.266  0.1264  0.8170 -0.8604
   86MOL   H13617306   0.751   4.563   2.954  2.2244 -0.1175 -2.1715
   86MOL   H13717307   0.825   4.432   3.046  1.1124 -0.3187 -0.3023
   86MOL   H13817308   0.588   4.319   3.035  0.0573 -0.0272 -0.6203
   86MOL   H13917309   0.609   4.416   3.360 -0.9109  2.8329 -2.1047
   86MOL   H14017310   0.609   4.274   3.250  0.6111  0.4181  0.5060
   86MOL   H14117311   0.755   4.371   3.260  0.1141 -1.4208  0.2665
   86MOL   C14217312   0.490   4.484   2.951  1.0949 -0.1715 -0.1848
   86MOL   C14317313   0.359   4.401   2.960  0.0049 -1.0991  0.2974
   86MOL   O14417314   0.268   4.483   2.877 -0.7545 -0.1934  0.5267
   86MOL   C14517315   0.151   4.506   2.945  0.0543 -0.2711 -0.1637
   86MOL   H14617316   0.516   4.507   2.847 -0.5650  2.0201 -0.1649
   86MOL   H14717317   0.480   4.584   2.994  1.2910  0.1329 -0.8421
   86MOL   H14817318   0.340   4.390   3.066  1.8578  0.0626  0.7889
   86MOL   H14917319   0.090   4.420   2.976 -1.5537  1.1459  0.6841
   86MOL   H15017320   0.162   4.569   3.033  1.6695 -2.3486  1.1844
   86MOL   H15117321   0.088   4.568   2.882  0.0267 -0.5004 -0.3606
   86MOL   C15217322   0.369   4.263   2.892  0.2892  0.3470 -0.4308
   86MOL   C15317323   0.240   4.197   2.833  0.5509 -0.4568  0.1449
   86MOL   O15417324   0.270   4.092   2.747  0.2397  0.6741  0.6292
   86MOL   C15517325   0.314   4.116   2.613  0.4071  0.0159 -0.0572
   86MOL   H15617326   0.410   4.188   2.961 -1.3380  0.1365  0.3234
   86MOL   H15717327   0.433   4.270   2.804  2.3233  1.4054  1.0851
   86MOL   H15817328   0.191   4.268   2.766 -0.1383 -0.6157  0.4831
   86MOL   H15917329   0.253   4.195   2.572 -0.8372  0.2005  2.0694
   86MOL   H16017330   0.419   4.143   2.598 -0.0072  1.9591  0.4587
   86MOL   H16117331   0.290   4.023   2.561 -4.4955  0.6676  0.8684
   86MOL   C16217332   0.138   4.135   2.926 -0.0829  0.0220  0.1348
   86MOL   C16317333   0.016   4.076   2.860 -0.0971  0.7253  0.3889
   86MOL   O16417334   7.760   4.003   2.969 -0.6587  0.3846  0.6413
   86MOL   C16517335   7.687   3.886   2.942  0.5165  0.9558  0.9673
   86MOL   H16617336   0.097   4.207   2.997 -2.3930 -0.3341 -0.8078
   86MOL   H16717337   0.182   4.057   2.988 -1.8278  0.2325  1.6858
   86MOL   H16817338   0.049   4.004   2.784  2.9324  1.6068  0.7914
   86MOL   H16917339   7.661   3.844   3.039  0.7161 -0.7104  0.3137
   86MOL   H17017340   7.595   3.900   2.886  0.8070 -0.0448  0.2394
   86MOL   H17117341   7.745   3.810   2.890 -2.5565 -1.4335  0.9006
   86MOL   C17217342   7.735   4.177   2.806  0.0911  0.0812  0.6004
   86MOL   C17317343   7.625   4.134   2.710 -0.1936 -0.1220  0.3755
   86MOL   O17417344   7.530   4.238   2.709  0.3063  0.2172 -0.1908
   86MOL   C17517345   7.415   4.196   2.782  0.1696 -0.2279  0.5565
   86MOL   H17617346   7.791   4.255   2.754 -2.2189  0.3453 -1.5793
   86MOL   H17717347   7.686   4.235   2.885  1.5750  1.4072  0.5814
   86MOL   H17817348   7.585   4.038   2.740  0.0179  0.0425  1.1886
   86MOL   H17917349   7.344   4.139   2.722  0.0913  1.3903 -0.9292
   86MOL   H18017350   7.439   4.142   2.873  1.3193  0.4307  0.6606
   86MOL   H18117351   7.367   4.290   2.808 -0.2701  0.1429 -1.4801
   86MOL   C18217352   7.676   4.133   2.561  0.1295  0.3513 -1.1034
   86MOL   C18317353   7.612   4.036   2.460  0.1049  0.1242  0.3499
   86MOL   O18417354   7.588   3.917   2.529 -0.4342 -0.0517  0.9373
   86MOL   C18517355   7.689   3.814   2.503  0.7697 -0.4511  0.2615
   86MOL   H18617356   7.779   4.097   2.565 -0.2374 -0.7056 -0.8900
   86MOL   H18717357   7.676   4.234   2.520 -1.8770  0.0699 -1.8150
   86MOL   H18817358   7.674   4.010   2.374 -1.1500 -0.6230 -0.3516
   86MOL   H18917359   7.688   3.749   2.591 -1.1678  0.2397  0.7859
   86MOL   H19017360   7.655   3.748   2.423 -1.2705 -1.6380  2.0286
   86MOL   H19117361   7.784   3.862   2.484  0.7800 -0.3809  0.4868
   86MOL   C19217362   7.465   4.073   2.418 -0.6646 -0.0436 -0.0463
   86MOL   C19317363   7.440   4.164   2.294 -0.3083  0.6930 -0.4924
   86MOL   O19417364   7.303   4.197   2.295 -0.0103 -0.1718 -0.4212
   86MOL   C19517365   7.261   4.275   2.178 -0.5069  0.2422  0.3874
   86MOL   H19617366   7.421   4.127   2.501 -0.3410  0.1693 -0.0121
   86MOL   H19717367   7.399   3.987   2.406 -0.5262 -0.3291  1.2781
   86MOL   H19817368   7.474   4.107   2.207 -3.7754 -1.1505 -0.7270
   86MOL   H19917369   7.155   4.299   2.187 -0.5192 -0.5410  2.5929
   86MOL   H20017370   7.315   4.368   2.162  0.4352 -0.6075 -1.4454
   86MOL   H20117371   7.284   4.208   2.096 -1.3045 -1.8521  1.8232
   86MOL   H20217372   7.492   4.260   2.302 -0.8145  1.0686 -1.5142
   87MOL     C117373   3.836   4.802   2.560  0.1473 -0.1946 -0.7416
   87MOL     C217374   3.842   4.648   2.587 -0.1568 -0.0738  0.0653
   87MOL     O317375   3.915   4.638   2.712 -0.2714  0.2214  0.0043
   87MOL     C417376   3.981   4.515   2.730 -0.6506 -0.4790 -0.4320
   87MOL     H517377   3.772   4.863   2.623  1.0371  0.0185 -0.0468
   87MOL     H617378   3.939   4.838   2.553 -0.0511  0.4308 -0.3854
   87MOL     H717379   3.896   4.598   2.506  1.3979 -1.2955  1.8228
   87MOL     H817380   3.914   4.429   2.742  1.7906 -2.3406  0.3627
   87MOL     H917381   4.051   4.489   2.651 -1.6628  2.1918 -2.2460
   87MOL    H1017382   4.033   4.532   2.824 -1.0625  0.5293 -0.3802
   87MOL    H1117383   3.794   4.829   2.463 -1.5865  0.5242  0.2030
   87MOL    C1217384   3.690   4.592   2.597 -0.0351  0.7761 -0.1715
   87MOL    C1317385   3.624   4.595   2.453 -0.0063  0.3522 -0.5407
   87MOL    O1417386   3.681   4.485   2.391 -0.1258  0.1976  0.3128
   87MOL    C1517387   3.732   4.507   2.257 -0.2778 -0.1968  0.1189
   87MOL    H1617388   3.634   4.652   2.668 -1.2284 -0.0923 -0.3697
   87MOL    H1717389   3.691   4.491   2.637 -2.6845  0.6772 -0.2555
   87MOL    H1817390   3.652   4.685   2.397 -0.5129  1.0767  0.3696
   87MOL    H1917391   3.800   4.593   2.254 -1.8383  1.0897  0.8952
   87MOL    H2017392   3.779   4.421   2.210 -0.3921 -0.8502  1.2056
   87MOL    H2117393   3.652   4.538   2.189 -1.6619  2.1920  2.7562
   87MOL    C2217394   3.473   4.587   2.457 -0.5463  0.7342 -0.8953
   87MOL    C2317395   3.396   4.706   2.495  0.6076 -0.2528  0.6248
   87MOL    O2417396   3.423   4.816   2.415  0.0298  0.1479 -0.0907
   87MOL    C2517397   3.457   4.945   2.472 -0.2443 -0.0868 -0.1139
   87MOL    H2617398   3.437   4.503   2.516  0.7649  1.0438  0.3595
   87MOL    H2717399   3.435   4.557   2.359 -0.9316 -0.7551 -0.2983
   87MOL    H2817400   3.419   4.738   2.596 -0.5235  1.1929  0.4370
   87MOL    H2917401   3.520   4.928   2.558 -0.4963 -1.2128 -0.1503
   87MOL    H3017402   3.507   5.011   2.401  1.0266 -1.3875 -0.4248
   87MOL    H3117403   3.371   5.007   2.498 -0.6493 -1.0117  0.7746
   87MOL    C3217404   3.243   4.677   2.483 -1.0120  1.3025  0.2337
   87MOL    C3317405   3.144   4.763   2.569  0.8805  0.3972 -0.4333
   87MOL    O3417406   3.021   4.767   2.500 -0.0050 -0.6598 -0.4258
   87MOL    C3517407   3.016   4.879   2.408  0.7629  0.2122 -0.3358
   87MOL    H3617408   3.228   4.572   2.509  0.9625  0.9345 -0.0128
   87MOL    H3717409   3.223   4.676   2.376  1.0155 -1.8508 -0.1943
   87MOL    H3817410   3.181   4.864   2.586  3.9514 -0.5100 -1.4238
   87MOL    H3917411   3.100   4.884   2.338  2.8363  0.0425  2.0655
   87MOL    H4017412   2.927   4.873   2.346 -1.2771  1.1114  2.4087
   87MOL    H4117413   2.999   4.976   2.456 -0.2935  0.5584 -1.3916
   87MOL    C4217414   3.120   4.697   2.701  0.1720  0.2460 -0.4995
   87MOL    C4317415   3.036   4.784   2.803  0.0425 -0.5038  0.5362
   87MOL    O4417416   2.898   4.818   2.763 -0.3365 -0.1149 -0.1547
   87MOL    C4517417   2.813   4.704   2.741 -1.0272 -0.0720  0.5688
   87MOL    H4617418   3.216   4.679   2.749 -0.6165  1.9982  1.8282
   87MOL    H4717419   3.071   4.600   2.697  2.0070 -0.7926  1.2622
   87MOL    H4817420   3.077   4.884   2.816 -0.8207  0.1172 -1.2446
   87MOL    H4917421   2.705   4.722   2.733 -1.1392 -0.6192  0.8172
   87MOL    H5017422   2.836   4.656   2.646  2.4396  1.6482  0.4785
   87MOL    H5117423   2.826   4.627   2.818 -1.9121 -1.5545 -0.7178
   87MOL    C5217424   3.038   4.736   2.943  0.2986  0.1971  0.6346
   87MOL    C5317425   2.939   4.806   3.043 -0.1231  0.0840  0.0815
   87MOL    O5417426   2.942   4.739   3.171 -0.4820 -0.0242  0.0203
   87MOL    C5517427   2.829   4.652   3.190  0.3307 -0.1001  0.2047
   87MOL    H5617428   3.139   4.730   2.984  0.9456 -0.6992 -1.0288
   87MOL    H5717429   3.007   4.632   2.937  0.1640  0.2422  0.5651
   87MOL    H5817430   2.836   4.794   3.011  0.0388 -1.9426  0.2321
   87MOL    H5917431   2.833   4.590   3.280 -1.5212 -1.0339 -0.3236
   87MOL    H6017432   2.741   4.716   3.203  2.2286  2.5317  0.4203
   87MOL    H6117433   2.805   4.583   3.109 -1.5579  0.4395  0.2698
   87MOL    C6217434   2.973   4.950   3.056 -0.1883  0.1363 -0.2636
   87MOL    C6317435   2.914   5.031   3.178  0.6588  0.6073  0.0988
   87MOL    O6417436   2.974   5.153   3.179 -0.4796 -0.1630 -0.1754
   87MOL    C6517437   3.116   5.176   3.185 -0.2294  0.1061 -0.0505
   87MOL    H6617438   2.951   5.013   2.970 -1.6600  1.5772  1.1381
   87MOL    H6717439   3.079   4.946   3.080 -0.4173  2.3613  1.2262
   87MOL    H6817440   2.931   4.972   3.268 -0.2404 -1.0067 -0.7584
   87MOL    H6917441   3.157   5.277   3.187  2.1160 -0.8187  1.7092
   87MOL    H7017442   3.159   5.134   3.276  0.7837 -0.3146 -0.7157
   87MOL    H7117443   3.171   5.135   3.100  0.3199  0.5041  0.1137
   87MOL    C7217444   2.762   5.054   3.153 -0.6017 -0.4998 -0.1665
   87MOL    C7317445   2.686   5.130   3.267 -0.5090  1.2133 -0.1738
   87MOL    O7417446   2.559   5.168   3.213  0.0069  0.1093  0.4736
   87MOL    C7517447   2.501   5.291   3.260  0.2977  0.5831 -0.0433
   87MOL    H7617448   2.709   4.960   3.147  1.7168 -1.8573 -0.1346
   87MOL    H7717449   2.749   5.119   3.066  0.8178  0.2228  0.1373
   87MOL    H7817450   2.747   5.217   3.291  1.6766  0.2676 -2.0048
   87MOL    H7917451   2.571   5.374   3.269  0.4518  0.8447 -3.1533
   87MOL    H8017452   2.427   5.324   3.186  1.2355  1.9032 -0.4187
   87MOL    H8117453   2.445   5.285   3.353 -0.2557 -0.4150 -0.4247
   87MOL    C8217454   2.666   5.033   3.386 -0.3860  0.1912 -0.0741
   87MOL    C8317455   2.675   5.098   3.528 -0.0654 -0.1947  0.4605
   87MOL    O8417456   2.602   5.015   3.619  0.3652 -0.3706  0.0214
   87MOL    C8517457   2.457   5.036   3.622 -1.0815 -0.2001  0.7175
   87MOL    H8617458   2.739   4.952   3.378 -0.7381 -0.3290  1.9423
   87MOL    H8717459   2.577   4.973   3.366  1.0045 -2.0736  0.3135
   87MOL    H8817460   2.624   5.194   3.517  2.0910  0.7850 -1.2491
   87MOL    H8917461   2.421   4.993   3.716  0.3632 -0.6707  1.0648
   87MOL    H9017462   2.422   5.137   3.599 -2.8675 -0.6376  1.4321
   87MOL    H9117463   2.419   4.989   3.531  3.5580 -0.8764 -0.9878
   87MOL    C9217464   2.822   5.113   3.578  0.1663 -0.8439 -0.1821
   87MOL    C9317465   2.855   5.216   3.688 -0.2554  0.3920  0.3367
   87MOL    O9417466   2.839   5.338   3.621 -0.3598 -0.0681 -0.3019
   87MOL    C9517467   2.963   5.393   3.572 -0.4801 -0.0700 -0.4942
   87MOL    H9617468   2.876   5.142   3.487  0.3837 -2.1285 -0.4720
   87MOL    H9717469   2.866   5.016   3.598 -2.0230 -1.7373  0.3967
   87MOL    H9817470   2.957   5.218   3.726 -0.0554 -1.3705 -0.0894
   87MOL    H9917471   2.943   5.482   3.513  1.2915  0.3191 -0.5295
   87MOL   H10017472   3.038   5.405   3.650  0.0172  0.5073 -1.0540
   87MOL   H10117473   3.018   5.338   3.495 -0.8098 -0.9971 -0.0671
   87MOL   C10217474   2.760   5.220   3.808 -0.1069  0.2238  0.2635
   87MOL   C10317475   2.762   5.095   3.893  0.2075  0.5819  0.0223
   87MOL   O10417476   2.884   5.088   3.961 -0.0397 -0.1391  0.4872
   87MOL   C10517477   2.927   4.956   4.010 -0.0981 -0.5186 -0.2150
   87MOL   H10617478   2.656   5.231   3.777  0.2133  2.0565 -0.2126
   87MOL   H10717479   2.786   5.306   3.870 -1.7802  1.0172 -0.0887
   87MOL   H10817480   2.736   5.005   3.837 -0.6632  2.7881 -3.2845
   87MOL   H10917481   2.954   4.894   3.925 -0.4476 -1.3009  0.2455
   87MOL   H11017482   3.007   4.961   4.083  0.5742 -1.5391 -0.8746
   87MOL   H11117483   2.854   4.905   4.073  0.7730 -0.3753  0.9281
   87MOL   C11217484   2.645   5.102   3.995 -0.3429  1.0621 -0.2874
   87MOL   C11317485   2.590   4.981   4.081  0.3450  0.6068 -0.0718
   87MOL   O11417486   2.657   4.972   4.209  0.5440  0.5240 -0.1864
   87MOL   C11517487   2.654   5.083   4.295 -0.0184 -0.6341  0.0077
   87MOL   H11617488   2.557   5.112   3.930 -0.2875 -1.3786 -0.7979
   87MOL   H11717489   2.642   5.190   4.059  0.4044  1.2110 -0.4515
   87MOL   H11817490   2.617   4.892   4.025  1.8668  1.5712 -0.9006
   87MOL   H11917491   2.708   5.167   4.251 -1.1632 -0.3021 -0.7913
   87MOL   H12017492   2.558   5.104   4.342  1.1898  1.3548  1.6865
   87MOL   H12117493   2.718   5.058   4.380  0.7086  1.3667  0.0652
   87MOL   C12217494   2.437   4.975   4.104 -0.6727 -0.3325  0.4110
   87MOL   C12317495   2.391   4.838   4.162 -0.1247  0.1136  0.4648
   87MOL   O12417496   2.251   4.834   4.126  0.3280  0.2783 -0.8098
   87MOL   C12517497   2.159   4.859   4.235 -0.6651 -0.3973  0.2803
   87MOL   H12617498   2.378   4.990   4.014 -0.3769 -1.3039  0.0407
   87MOL   H12717499   2.411   5.059   4.168 -2.5268 -1.0203  0.5950
   87MOL   H12817500   2.408   4.832   4.270  0.5905  1.2278  0.4263
   87MOL   H12917501   2.166   4.958   4.280 -3.8947  0.6002 -1.2455
   87MOL   H13017502   2.057   4.853   4.197 -0.6801  0.9066  0.0920
   87MOL   H13117503   2.163   4.786   4.316 -2.8227  1.2743  1.9676
   87MOL   C13217504   2.449   4.711   4.097 -0.2119  0.3819  0.4317
   87MOL   C13317505   2.453   4.686   3.945  0.8173  0.9703  0.1414
   87MOL   O13417506   2.577   4.645   3.906 -0.5718  0.8028  0.3775
   87MOL   C13517507   2.607   4.677   3.767 -0.7537  0.3649 -0.6047
   87MOL   H13617508   2.402   4.626   4.147 -2.0980  1.7676  1.0838
   87MOL   H13717509   2.554   4.711   4.127 -0.5180 -1.7796  1.6445
   87MOL   H13817510   2.423   4.777   3.892 -0.6403 -0.2560 -1.2120
   87MOL   H13917511   2.606   4.784   3.750  0.4020  0.4012 -0.4758
   87MOL   H14017512   2.704   4.627   3.765 -1.5181 -1.3481  1.8518
   87MOL   H14117513   2.543   4.629   3.693 -0.3162 -0.5006 -0.4349
   87MOL   C14217514   2.363   4.576   3.883  0.1084  0.4779 -0.2097
   87MOL   C14317515   2.222   4.632   3.838  0.1390  0.4023  0.3901
   87MOL   O14417516   2.235   4.712   3.722 -0.0229 -0.3109 -0.0607
   87MOL   C14517517   2.183   4.840   3.745  0.6430 -0.0621 -0.3102
   87MOL   H14617518   2.356   4.492   3.951  0.3755 -1.2043 -2.2058
   87MOL   H14717519   2.404   4.529   3.793  0.5009 -1.1798  0.8153
   87MOL   H14817520   2.182   4.688   3.923  0.3405  2.3508 -0.7486
   87MOL   H14917521   2.247   4.892   3.817  0.0820 -1.5846  1.3310
   87MOL   H15017522   2.185   4.894   3.651  0.0001 -0.0950 -0.3459
   87MOL   H15117523   2.078   4.839   3.777  0.7580 -0.4212  0.0530
   87MOL   C15217524   2.108   4.531   3.804  0.2976  0.8562 -0.2368
   87MOL   C15317525   2.078   4.421   3.908 -0.5536 -0.1173 -0.0848
   87MOL   O15417526   2.002   4.477   4.018  0.0902 -0.3692 -0.1269
   87MOL   C15517527   2.081   4.512   4.133  0.0307  0.3268 -1.3689
   87MOL   H15617528   2.141   4.480   3.713  1.6848  1.7577 -0.2681
   87MOL   H15717529   2.025   4.592   3.770 -0.0954 -0.2869 -1.3758
   87MOL   H15817530   2.177   4.384   3.936  0.2406  1.8537 -0.2287
   87MOL   H15917531   2.119   4.613   4.124 -0.2004  0.8507  2.6713
   87MOL   H16017532   2.013   4.525   4.217 -0.7665 -0.2223 -1.9251
   87MOL   H16117533   2.156   4.436   4.159  0.0080  0.9618  0.6990
   87MOL   C16217534   1.993   4.308   3.842  0.2003 -0.6921  0.4120
   87MOL   C16317535   1.973   4.192   3.928  0.5050 -0.1123 -0.1527
   87MOL   O16417536   1.851   4.124   3.905  0.1785 -0.5498 -0.0441
   87MOL   C16517537   1.741   4.167   3.978 -0.7522  0.0038  0.2244
   87MOL   H16617538   2.029   4.273   3.746  0.7959 -3.9527  1.7444
   87MOL   H16717539   1.889   4.339   3.827  1.0447  2.1393  0.0493
   87MOL   H16817540   1.970   4.226   4.032 -0.4344  1.0197 -0.5484
   87MOL   H16917541   1.721   4.274   3.979 -0.0138  0.1724 -1.2463
   87MOL   H17017542   1.650   4.127   3.934 -0.7278  1.0591 -0.8004
   87MOL   H17117543   1.738   4.117   4.075 -0.6429 -0.7671 -0.1711
   87MOL   C17217544   2.090   4.091   3.913 -0.0635 -0.1559 -0.0899
   87MOL   C17317545   2.068   3.955   3.993 -0.0353  1.1722  0.3820
   87MOL   O17417546   2.183   3.864   3.984 -0.4861  0.1772  0.4084
   87MOL   C17517547   2.207   3.803   3.860  0.7095  0.2644 -0.5260
   87MOL   H17617548   2.189   4.133   3.928  0.2257 -0.1666 -1.8931
   87MOL   H17717549   2.089   4.060   3.808 -1.1021 -1.0533  0.1770
   87MOL   H17817550   1.989   3.906   3.936  0.9105  1.3345 -1.0891
   87MOL   H17917551   2.130   3.734   3.826 -0.4082  0.6971  1.0337
   87MOL   H18017552   2.203   3.888   3.792 -0.1406 -1.6627 -2.9346
   87MOL   H18117553   2.306   3.758   3.858  1.9120  2.7257  0.2788
   87MOL   C18217554   2.031   3.966   4.145 -0.0259  0.0528  0.2462
   87MOL   C18317555   2.009   3.834   4.213 -0.2506  0.2027  1.0620
   87MOL   O18417556   2.058   3.833   4.346 -0.1238  0.1457  0.1981
   87MOL   C18517557   2.198   3.819   4.353 -0.7776 -0.3674  0.1255
   87MOL   H18617558   1.947   4.028   4.177  2.3110  2.2610  2.3626
   87MOL   H18717559   2.117   4.026   4.174 -0.2213  1.5970 -2.1927
   87MOL   H18817560   2.066   3.755   4.164 -2.1921 -1.3317  1.2415
   87MOL   H18917561   2.244   3.839   4.450 -2.0478  0.6032  0.5517
   87MOL   H19017562   2.226   3.717   4.330 -1.9857 -0.6221 -0.2501
   87MOL   H19117563   2.258   3.882   4.288 -1.8077 -0.6163 -1.0868
   87MOL   C19217564   1.860   3.795   4.211 -0.3020 -0.2711  0.3974
   87MOL   C19317565   1.855   3.653   4.263 -0.1432 -0.1844  0.1922
   87MOL   O19417566   1.716   3.629   4.283  0.0755  0.5094 -0.2821
   87MOL   C19517567   1.687   3.495   4.328 -0.0539  0.3893  0.6998
   87MOL   H19617568   1.824   3.784   4.109 -0.4188 -3.0360  0.7131
   87MOL   H19717569   1.804   3.871   4.266 -0.1552  1.8191 -2.2284
   87MOL   H19817570   1.899   3.656   4.363  1.6213 -0.4929 -0.5628
   87MOL   H19917571   1.715   3.430   4.245 -1.2255  3.1174 -1.8995
   87MOL   H20017572   1.732   3.479   4.426  2.6598  0.4410 -0.4857
   87MOL   H20117573   1.579   3.482   4.328 -0.0976  0.5724 -1.4153
   87MOL   H20217574   1.893   3.583   4.189 -0.2902  1.6895 -1.7378
   88MOL     C117575   1.822   0.676   0.084  0.1140 -0.2408  0.3792
   88MOL     C217576   1.898   0.785   0.011 -0.6627 -0.4928  0.4124
   88MOL     O317577   2.000   0.716   7.748  0.4477  0.3138  0.6193
   88MOL     C417578   2.129   0.725   7.806 -0.0393 -0.3825 -0.0432
   88MOL     H517579   1.766   0.611   0.018 -1.0188  1.0245  0.0799
   88MOL     H617580   1.893   0.618   0.144 -0.7863 -2.1561 -0.3707
   88MOL     H717581   1.935   0.859   0.082  0.8472 -0.3530 -0.5200
   88MOL     H817582   2.168   0.827   7.806 -1.4159  0.1635 -1.6459
   88MOL     H917583   2.140   0.692   0.099  1.4915  2.3427  0.7328
   88MOL    H1017584   2.199   0.662   7.753 -1.4254 -1.8053 -0.2116
   88MOL    H1117585   1.747   0.715   0.153  0.7008 -0.8640  1.3932
   88MOL    C1217586   1.815   0.848   7.707  0.3778 -0.1651 -0.0677
   88MOL    C1317587   1.679   0.911   7.752 -0.5369 -0.3192  0.1580
   88MOL    O1417588   1.704   1.041   7.800  0.1199  0.1516 -0.2959
   88MOL    C1517589   1.601   1.093   0.074  0.6153  0.5383  0.2401
   88MOL    H1617590   1.786   0.776   7.631 -0.1512 -0.0024 -0.0240
   88MOL    H1717591   1.864   0.921   7.642  1.3898 -0.1794  0.6545
   88MOL    H1817592   1.635   0.857   0.026  3.3364 -2.4861  0.8850
   88MOL    H1917593   1.578   1.026   0.157 -0.8896  2.2339  1.2098
   88MOL    H2017594   1.631   1.187   0.119  3.4182  0.1570 -0.7066
   88MOL    H2117595   1.509   1.121   0.023  0.0701 -0.7532  0.4886
   88MOL    C2217596   1.569   0.904   7.639 -0.1194  0.5452 -1.1490
   88MOL    C2317597   1.598   0.976   7.507 -0.2264 -0.3268  0.6800
   88MOL    O2417598   1.501   0.936   7.412  0.1291  0.3743 -0.4651
   88MOL    C2517599   1.551   0.927   7.284  0.4847 -0.2848 -0.6415
   88MOL    H2617600   1.470   0.938   7.668  0.9946  2.4729  0.5328
   88MOL    H2717601   1.566   0.797   7.622 -0.6594  0.4704 -0.6173
   88MOL    H2817602   1.697   0.943   7.475 -1.0027 -0.7037 -1.4101
   88MOL    H2917603   1.631   0.853   7.279 -0.2586 -1.0877 -0.9378
   88MOL    H3017604   1.478   0.900   7.207  0.3710  0.5798 -0.8429
   88MOL    H3117605   1.582   1.026   7.251 -0.0887  1.2938  3.3480
   88MOL    C3217606   1.604   1.130   7.508 -0.2653 -0.1110  0.4113
   88MOL    C3317607   1.753   1.189   7.492  0.0747  0.2114 -0.2004
   88MOL    O3417608   1.819   1.128   7.375 -0.0353  0.1898 -0.4396
   88MOL    C3517609   1.955   1.096   7.397 -0.2102  0.2367  0.2864
   88MOL    H3617610   1.549   1.167   7.594 -1.0046 -0.1605 -0.0368
   88MOL    H3717611   1.556   1.184   7.426 -0.7272  1.0317  1.4299
   88MOL    H3817612   1.799   1.156   7.585 -0.6982  0.2578  0.2006
   88MOL    H3917613   2.003   1.161   7.470  2.7950 -2.4463  0.8095
   88MOL    H4017614   1.957   0.996   7.440 -0.2386 -0.4092 -1.1917
   88MOL    H4117615   2.015   1.097   7.306 -0.4307  0.6944  0.1438
   88MOL    C4217616   1.747   1.337   7.473 -0.1493  0.4567  0.1202
   88MOL    C4317617   1.693   1.425   7.587 -0.1865 -0.4870 -0.2345
   88MOL    O4417618   1.800   1.458   7.674  0.2282 -0.9982 -0.3418
   88MOL    C4517619   1.851   1.358   7.754 -0.1307  0.1944 -0.2497
   88MOL    H4617620   1.684   1.364   7.389 -0.2836  0.6497  0.2845
   88MOL    H4717621   1.845   1.380   7.450 -0.6052  0.6134 -1.5670
   88MOL    H4817622   1.631   1.361   7.650  0.1748 -0.2875  0.3221
   88MOL    H4917623   1.926   1.390   0.015  0.1141 -0.8495 -0.0309
   88MOL    H5017624   1.773   1.304   7.809  1.5440 -1.6538  0.3640
   88MOL    H5117625   1.900   1.282   7.693  0.9226  0.1214  0.6592
   88MOL    C5217626   1.599   1.547   7.543 -0.1994 -0.5913  0.3428
   88MOL    C5317627   1.676   1.648   7.451  0.0902  0.3192 -0.5765
   88MOL    O5417628   1.583   1.733   7.394  0.6490  0.1597 -0.3464
   88MOL    C5517629   1.564   1.721   7.249 -0.1419 -0.0860 -0.7661
   88MOL    H5617630   1.564   1.586   7.639 -0.0423 -1.6908  0.8617
   88MOL    H5717631   1.509   1.514   7.492 -0.9171 -0.8552  1.7437
   88MOL    H5817632   1.739   1.596   7.379  0.3516 -1.0705  0.6271
   88MOL    H5917633   1.486   1.794   7.226  1.6666  2.0112 -0.4465
   88MOL    H6017634   1.662   1.752   7.214  1.2833 -1.9102  1.4984
   88MOL    H6117635   1.548   1.618   7.216 -0.5783 -0.7810  1.5087
   88MOL    C6217636   1.777   1.738   7.523  0.8393 -0.3017  0.3181
   88MOL    C6317637   1.855   1.835   7.432  0.1173  0.1373  0.0103
   88MOL    O6417638   1.939   1.924   7.524  0.0156  0.2727 -0.5272
   88MOL    C6517639   1.876   2.031   7.591  0.0101  0.1634  0.1032
   88MOL    H6617640   1.848   1.664   7.561 -0.4917 -1.8469 -0.1161
   88MOL    H6717641   1.741   1.773   7.620 -1.5499  1.6271 -1.2209
   88MOL    H6817642   1.789   1.899   7.372  2.7965  2.3977 -0.6410
   88MOL    H6917643   1.946   2.097   7.644  0.9506  0.2501 -1.2213
   88MOL    H7017644   1.821   2.085   7.514  1.3804 -0.5118 -1.3726
   88MOL    H7117645   1.796   1.995   7.656 -0.7646 -0.6577 -1.2993
   88MOL    C7217646   1.951   1.775   7.336 -0.2098 -0.0263 -0.0394
   88MOL    C7317647   2.046   1.878   7.257 -0.2140 -0.0818 -0.7713
   88MOL    O7417648   2.122   1.810   7.160  0.3505 -0.8852 -0.1390
   88MOL    C7517649   2.238   1.745   7.207 -0.5120  0.5830 -0.3609
   88MOL    H7617650   1.897   1.724   7.256 -0.8487 -1.2714  1.1753
   88MOL    H7717651   2.010   1.702   7.391  0.7618  2.2473  2.0610
   88MOL    H7817652   2.116   1.924   7.327 -0.6539  1.5365 -1.3731
   88MOL    H7917653   2.316   1.819   7.227 -0.4853  0.4848 -0.0920
   88MOL    H8017654   2.215   1.678   7.290 -1.3633 -0.5690 -1.5141
   88MOL    H8117655   2.273   1.684   7.124 -2.7358  0.7701 -1.4598
   88MOL    C8217656   1.970   1.985   7.179  0.0242 -0.3317  0.0057
   88MOL    C8317657   2.072   2.080   7.115  0.6839  0.0470 -0.3272
   88MOL    O8417658   2.121   2.019   6.998  0.0854 -0.0172  0.1534
   88MOL    C8517659   2.260   2.023   6.980  0.4257  1.1283  0.7112
   88MOL    H8617660   1.915   2.036   7.259 -0.7285  0.4639 -1.0026
   88MOL    H8717661   1.895   1.945   7.111 -0.9364  0.9535  0.2868
   88MOL    H8817662   2.150   2.094   7.190 -0.4921  1.3778  0.6912
   88MOL    H8917663   2.298   2.121   7.011  0.8005  0.7077  1.5956
   88MOL    H9017664   2.314   1.939   7.022  1.8018  0.9157 -1.4324
   88MOL    H9117665   2.272   2.009   6.873 -0.2479 -1.8048  0.9954
   88MOL    C9217666   2.001   2.209   7.077 -0.1118  0.2165  0.4998
   88MOL    C9317667   1.973   2.306   7.192 -0.2402  0.2560 -0.8071
   88MOL    O9417668   2.090   2.327   7.277 -0.2884 -0.2772 -0.5723
   88MOL    C9517669   2.078   2.281   7.410 -0.8368  0.2695  0.1949
   88MOL    H9617670   1.907   2.179   7.031 -0.7979  4.1597 -0.8596
   88MOL    H9717671   2.060   2.263   7.004  1.0885  1.4327  2.3242
   88MOL    H9817672   1.898   2.265   7.259  1.8094  0.3775  1.6388
   88MOL    H9917673   2.163   2.323   7.465 -1.9197  1.7108  0.7851
   88MOL   H10017674   1.989   2.319   7.459 -0.6820  0.2699  0.4768
   88MOL   H10117675   2.087   2.173   7.419  3.0560  0.6381  2.3875
   88MOL   C10217676   1.924   2.443   7.147 -0.4848 -0.0318  0.3086
   88MOL   C10317677   1.783   2.434   7.076  0.1902 -0.1564  0.2251
   88MOL   O10417678   1.680   2.426   7.173  0.2682 -0.3568 -0.5937
   88MOL   C10517679   1.557   2.368   7.138  0.4764  0.6573  0.2137
   88MOL   H10617680   1.997   2.488   7.081 -1.7945  1.0136 -0.4382
   88MOL   H10717681   1.913   2.517   7.227 -2.9508 -0.2755  0.2356
   88MOL   H10817682   1.765   2.355   7.003 -1.3882  0.3843 -0.0130
   88MOL   H10917683   1.502   2.438   7.074 -2.1736  1.5158  3.3389
   88MOL   H11017684   1.573   2.272   7.088 -0.1904  0.1826  0.9091
   88MOL   H11117685   1.481   2.359   7.215  0.1078  0.1195 -0.2090
   88MOL   C11217686   1.772   2.566   6.998  0.2805 -0.7438 -0.2229
   88MOL   C11317687   1.842   2.564   6.865 -0.3715  0.5454 -0.1442
   88MOL   O11417688   1.759   2.504   6.771  0.2834  0.4918 -0.4698
   88MOL   C11517689   1.829   2.449   6.661  0.6896  0.2680  0.1426
   88MOL   H11617690   1.813   2.647   7.059 -2.4709  0.0123  0.7171
   88MOL   H11717691   1.667   2.589   6.979  0.6705  0.4362 -1.0195
   88MOL   H11817692   1.934   2.507   6.877 -1.3711 -0.2883  4.9536
   88MOL   H11917693   1.914   2.512   6.634  0.7031  0.2416  0.1245
   88MOL   H12017694   1.872   2.354   6.691 -2.2636 -1.1885 -0.0502
   88MOL   H12117695   1.756   2.440   6.580 -0.0364 -1.4612  0.9722
   88MOL   C12217696   1.893   2.706   6.820 -0.0263 -0.3373 -0.2660
   88MOL   C12317697   2.017   2.763   6.891 -0.0831 -0.4923  0.2445
   88MOL   O12417698   2.108   2.675   6.835 -0.1662  0.2490 -0.2298
   88MOL   C12517699   2.230   2.660   6.915 -0.4964 -0.2005  0.1003
   88MOL   H12617700   1.816   2.782   6.837 -0.4143 -0.6273 -0.7369
   88MOL   H12717701   1.898   2.706   6.711  1.2289 -0.7970 -0.2109
   88MOL   H12817702   2.016   2.752   7.000  1.1840 -3.0963  0.0268
   88MOL   H12917703   2.300   2.607   6.851 -2.0711  1.2821 -2.9036
   88MOL   H13017704   2.274   2.755   6.944 -1.8456  0.5827 -0.3613
   88MOL   H13117705   2.210   2.595   7.001  1.6969  0.1843  0.9298
   88MOL   C13217706   2.043   2.908   6.856 -0.0360  0.0098  0.0576
   88MOL   C13317707   1.951   3.001   6.930  0.4925 -0.2221 -0.7780
   88MOL   O13417708   1.975   2.997   7.073 -0.2402  0.3227 -0.3729
   88MOL   C13517709   1.868   2.948   7.154 -0.3252  0.1604  0.1187
   88MOL   H13617710   2.015   2.914   6.750 -1.2899 -1.2656  0.2916
   88MOL   H13717711   2.147   2.938   6.865 -0.1008  0.4529 -0.6054
   88MOL   H13817712   1.847   2.980   6.909  0.0350  1.9210 -0.8385
   88MOL   H13917713   1.779   3.011   7.151 -0.2898  0.2111  0.1252
   88MOL   H14017714   1.839   2.848   7.122 -1.0998 -0.1447  1.7168
   88MOL   H14117715   1.902   2.933   7.257 -1.9672 -2.1050  0.3780
   88MOL   C14217716   1.958   3.146   6.880 -0.0306  0.1672 -0.0730
   88MOL   C14317717   1.880   3.172   6.745 -0.0466 -0.6579 -0.4524
   88MOL   O14417718   1.742   3.164   6.778 -0.4906 -0.5699 -0.0483
   88MOL   C14517719   1.650   3.132   6.678 -0.3488  1.4153 -0.2017
   88MOL   H14617720   2.065   3.165   6.880 -0.7124  4.6146  2.0114
   88MOL   H14717721   1.923   3.217   6.955  1.1911  2.3492 -1.5216
   88MOL   H14817722   1.913   3.101   6.668  3.8855  0.2148  0.2787
   88MOL   H14917723   1.671   3.032   6.641 -0.8450  1.2799 -0.1233
   88MOL   H15017724   1.549   3.138   6.719  0.6433  2.4703  2.1631
   88MOL   H15117725   1.655   3.207   6.599 -0.0780  1.2722 -0.3212
   88MOL   C15217726   1.899   3.310   6.687  0.9523  0.0333  0.8978
   88MOL   C15317727   2.040   3.338   6.626  0.3452  0.1482  0.0739
   88MOL   O15417728   2.059   3.233   6.528 -0.2200 -0.3642 -0.1566
   88MOL   C15517729   2.193   3.180   6.530  0.6158  1.1016  0.2927
   88MOL   H15617730   1.874   3.390   6.756 -0.3387 -0.3183  0.8580
   88MOL   H15717731   1.819   3.327   6.615  0.4984 -1.5089  1.0140
   88MOL   H15817732   2.119   3.323   6.700  0.8710  0.8056 -0.3561
   88MOL   H15917733   2.197   3.106   6.610 -0.9988  0.1749 -0.4403
   88MOL   H16017734   2.207   3.120   6.440 -0.9361 -1.2723  1.5645
   88MOL   H16117735   2.275   3.251   6.526  2.4372 -0.9071  0.7726
   88MOL   C16217736   2.043   3.472   6.550 -1.4761  0.2014  0.5620
   88MOL   C16317737   2.179   3.532   6.497  1.1248 -0.3398 -0.1533
   88MOL   O16417738   2.225   3.469   6.377  0.5547 -0.0503 -0.1173
   88MOL   C16517739   2.366   3.469   6.361  0.5378 -0.6170 -0.1430
   88MOL   H16617740   2.004   3.546   6.619  0.6905  0.3089  1.7235
   88MOL   H16717741   1.978   3.478   6.462  1.4661  2.3451 -1.5809
   88MOL   H16817742   2.252   3.521   6.577  1.0450  0.9301  0.0984
   88MOL   H16917743   2.408   3.570   6.365 -2.1476  0.5763 -0.5667
   88MOL   H17017744   2.410   3.419   6.447  0.6355  0.2979  0.3554
   88MOL   H17117745   2.386   3.417   6.268 -0.3484  0.6275 -1.0612
   88MOL   C17217746   2.159   3.680   6.467 -0.0926 -0.5202 -0.4437
   88MOL   C17317747   2.197   3.766   6.589  0.7655 -0.2226 -1.0950
   88MOL   O17417748   2.338   3.771   6.601  0.2889 -0.4147  0.1895
   88MOL   C17517749   2.381   3.775   6.733 -0.0727  0.7144  0.0199
   88MOL   H17617750   2.055   3.694   6.437  0.7227  1.0489 -2.6281
   88MOL   H17717751   2.211   3.723   6.381 -0.3131 -1.9845 -1.3233
   88MOL   H17817752   2.164   3.716   6.680 -0.0841  2.3716  0.0725
   88MOL   H17917753   2.325   3.855   6.779 -4.0800 -0.7774 -1.9521
   88MOL   H18017754   2.374   3.681   6.787  1.9136 -0.8494 -2.2924
   88MOL   H18117755   2.486   3.802   6.721 -0.2920  0.6325 -2.5823
   88MOL   C18217756   2.135   3.908   6.595 -0.1083  0.8441  0.0436
   88MOL   C18317757   2.127   3.983   6.463  0.4938 -0.8758 -0.1050
   88MOL   O18417758   2.049   4.098   6.479  0.1263 -0.6073  0.0870
   88MOL   C18517759   1.912   4.079   6.460  0.5424  0.4766  0.7608
   88MOL   H18617760   2.176   3.973   6.673  1.9372  1.2452 -1.3613
   88MOL   H18717761   2.033   3.896   6.633 -0.4220 -0.9045 -1.2957
   88MOL   H18817762   2.082   3.930   6.379  0.3424 -0.9809  0.0432
   88MOL   H18917763   1.865   4.020   6.539  0.8509  0.4989  0.9611
   88MOL   H19017764   1.854   4.171   6.458 -0.5533 -0.1660  2.1550
   88MOL   H19117765   1.897   4.033   6.362 -1.4243  2.2370  0.2203
   88MOL   C19217766   2.263   4.029   6.406  0.3638 -1.2703  0.8219
   88MOL   C19317767   2.247   4.115   6.273  0.6317 -0.1568  1.0225
   88MOL   O19417768   2.370   4.168   6.223 -0.5960 -0.2805  0.0013
   88MOL   C19517769   2.340   4.244   6.109 -0.2411 -1.1419 -0.3982
   88MOL   H19617770   2.326   3.944   6.382 -1.4545 -1.4453 -3.6869
   88MOL   H19717771   2.307   4.100   6.477  1.4737  1.9270 -2.8973
   88MOL   H19817772   2.177   4.198   6.280  1.9218  0.9111  1.4536
   88MOL   H19917773   2.277   4.189   6.038 -0.6163 -0.1188 -0.8735
   88MOL   H20017774   2.285   4.335   6.135  1.0627 -0.5402  0.2710
   88MOL   H20117775   2.431   4.274   6.057  1.1284 -1.8036  1.5786
   88MOL   H20217776   2.222   4.047   6.192  3.7121  1.9548 -1.8351
   89MOL     C117777   4.084   5.478   3.899 -0.3573  0.7920 -0.0017
   89MOL     C217778   4.174   5.426   3.794  0.2576 -1.0490  0.0157
   89MOL     O317779   4.232   5.541   3.723  0.5911 -0.1814 -0.2296
   89MOL     C417780   4.149   5.609   3.626 -0.2618 -0.4396  0.1760
   89MOL     H517781   4.133   5.528   3.981  1.5875 -0.6108 -0.2679
   89MOL     H617782   4.017   5.554   3.859 -1.9146 -0.1728  0.7186
   89MOL     H717783   4.117   5.370   3.720  0.6917 -1.2134 -0.1964
   89MOL     H817784   4.063   5.660   3.669  2.0798  1.5107  2.7475
   89MOL     H917785   4.201   5.690   3.575  1.6098 -1.7370 -0.0227
   89MOL    H1017786   4.130   5.541   3.543  0.6979  0.5577 -0.8718
   89MOL    H1117787   4.012   5.403   3.932 -0.1802  0.2959 -0.7200
   89MOL    C1217788   4.297   5.343   3.848  0.3686  0.0743  0.5976
   89MOL    C1317789   4.262   5.215   3.921  0.2468 -0.4238  0.3450
   89MOL    O1417790   4.212   5.116   3.833  0.1109  0.4865  0.3671
   89MOL    C1517791   4.133   5.019   3.894  0.6177 -0.1255  0.2171
   89MOL    H1617792   4.358   5.403   3.916  1.8105 -0.5975 -0.0868
   89MOL    H1717793   4.353   5.321   3.757 -0.2746 -2.4943  0.7794
   89MOL    H1817794   4.185   5.249   3.990  0.8202 -1.4603  1.5204
   89MOL    H1917795   4.043   5.064   3.936  0.4448 -0.8326  0.6168
   89MOL    H2017796   4.100   4.958   3.810 -1.4325  1.7346 -0.3855
   89MOL    H2117797   4.183   4.945   3.956 -0.9363 -0.5479  1.0121
   89MOL    C2217798   4.386   5.162   3.999 -0.1974 -0.1617 -0.0023
   89MOL    C2317799   4.514   5.127   3.925 -0.6669  0.1530 -0.0188
   89MOL    O2417800   4.610   5.066   4.015 -0.1287  0.0463  0.2289
   89MOL    C2517801   4.685   5.146   4.100 -0.2992  0.2982  0.1665
   89MOL    H2617802   4.355   5.077   4.060 -0.9150  0.3035  0.2836
   89MOL    H2717803   4.414   5.227   4.082  1.1270 -0.8540  0.1078
   89MOL    H2817804   4.557   5.223   3.897  4.1420 -2.3484 -1.6187
   89MOL    H2917805   4.637   5.229   4.152  1.1311  0.5050  1.1825
   89MOL    H3017806   4.732   5.082   4.174  1.2276  0.1640 -0.9052
   89MOL    H3117807   4.764   5.177   4.032 -0.7273 -0.1953 -0.5644
   89MOL    C3217808   4.485   5.037   3.801 -0.3788  0.4892 -0.1864
   89MOL    C3317809   4.608   4.981   3.732 -0.2212 -0.3159  0.3902
   89MOL    O3417810   4.711   5.075   3.711 -0.1029  0.4999  0.1137
   89MOL    C3517811   4.678   5.175   3.619  0.3086  0.1833 -0.7955
   89MOL    H3617812   4.419   5.087   3.730 -2.6976 -2.6425 -0.3383
   89MOL    H3717813   4.420   4.952   3.825 -1.9699  2.1926  1.7523
   89MOL    H3817814   4.589   4.946   3.631 -0.3725  1.4340 -0.2034
   89MOL    H3917815   4.687   5.130   3.520  1.7516 -0.1254 -0.5366
   89MOL    H4017816   4.578   5.216   3.625  0.1168 -0.4365  0.5921
   89MOL    H4117817   4.752   5.254   3.613  0.7009 -0.1409 -0.3467
   89MOL    C4217818   4.685   4.869   3.808  0.0911 -0.5714  0.1178
   89MOL    C4317819   4.597   4.756   3.870  0.5620 -0.3402 -0.0701
   89MOL    O4417820   4.535   4.697   3.760 -0.6506 -0.2756  0.4287
   89MOL    C4517821   4.414   4.631   3.778  0.3316 -0.6076 -0.3437
   89MOL    H4617822   4.747   4.920   3.882 -0.6273 -0.5376  0.7135
   89MOL    H4717823   4.740   4.810   3.735 -1.6575  0.7175 -2.2993
   89MOL    H4817824   4.527   4.803   3.939 -1.1935 -1.9235 -0.7649
   89MOL    H4917825   4.397   4.607   3.883 -1.4111  0.1360 -0.4287
   89MOL    H5017826   4.345   4.709   3.747  0.3225 -1.1776 -1.7595
   89MOL    H5117827   4.403   4.542   3.718 -1.7983 -1.4072  1.1729
   89MOL    C5217828   4.671   4.654   3.951 -1.6503 -0.1490  0.4725
   89MOL    C5317829   4.744   4.705   4.078  0.2055 -0.3637  0.3547
   89MOL    O5417830   4.709   4.626   4.190  0.1717  0.6226 -0.1540
   89MOL    C5517831   4.584   4.662   4.253  0.1526 -0.6795 -0.0042
   89MOL    H5617832   4.738   4.599   3.885  0.7939  1.1215  1.8284
   89MOL    H5717833   4.604   4.570   3.971  0.0100 -1.6879 -0.2727
   89MOL    H5817834   4.716   4.807   4.101 -0.3027 -0.6166  0.8766
   89MOL    H5917835   4.609   4.760   4.292  2.1725 -1.0938 -0.1998
   89MOL    H6017836   4.511   4.664   4.172  2.5324 -0.3570 -2.2222
   89MOL    H6117837   4.546   4.592   4.327  0.2005 -0.6586  0.0391
   89MOL    C6217838   4.900   4.697   4.065 -0.3454 -1.0382  0.5058
   89MOL    C6317839   4.983   4.731   4.190  0.0274  0.2549  0.6924
   89MOL    O6417840   5.108   4.670   4.183 -0.2805  0.3437  0.0715
   89MOL    C6517841   5.105   4.540   4.244  0.5348 -0.1707  0.2212
   89MOL    H6617842   4.926   4.771   3.989 -0.4445 -0.5907  0.9117
   89MOL    H6717843   4.924   4.593   4.041 -2.0710 -1.8115  2.0403
   89MOL    H6817844   4.922   4.703   4.276 -0.6174  0.8652  0.4454
   89MOL    H6917845   5.194   4.487   4.211  0.7651  0.4567 -0.1538
   89MOL    H7017846   5.103   4.554   4.352  0.2324  4.3704 -0.3054
   89MOL    H7117847   5.021   4.476   4.215  1.2349 -0.4288 -1.3051
   89MOL    C7217848   5.014   4.881   4.194 -0.2608  0.1661 -0.3523
   89MOL    C7317849   5.095   4.931   4.308  0.5619  0.1269 -0.1070
   89MOL    O7417850   5.093   5.069   4.314  0.3789 -0.3072 -0.0640
   89MOL    C7517851   5.173   5.137   4.220 -0.3262  0.5193 -0.0772
   89MOL    H7617852   4.922   4.941   4.193  0.2805  1.0005 -0.5587
   89MOL    H7717853   5.058   4.908   4.098 -0.0228 -2.1556 -0.9337
   89MOL    H7817854   5.197   4.897   4.296  0.5343 -0.7979  2.1957
   89MOL    H7917855   5.184   5.245   4.233  1.9897  0.1316  1.5224
   89MOL    H8017856   5.276   5.105   4.231 -0.6105 -0.3448  0.1345
   89MOL    H8117857   5.143   5.127   4.116  1.2747 -2.4961 -0.2973
   89MOL    C8217858   5.041   4.881   4.437  0.5981 -0.0684 -0.5012
   89MOL    C8317859   5.105   4.933   4.568  0.1029  0.3267 -0.2790
   89MOL    O8417860   5.015   4.869   4.667 -0.1046  0.2109  0.2503
   89MOL    C8517861   4.973   4.958   4.776  0.5586 -0.0534 -0.0242
   89MOL    H8617862   5.044   4.772   4.435 -0.3832 -0.1112  0.2143
   89MOL    H8717863   4.936   4.905   4.452  0.7130  0.0649  0.0825
   89MOL    H8817864   5.104   5.042   4.572 -0.4874  0.2779  1.1678
   89MOL    H8917865   4.911   5.037   4.733 -1.0410  0.0986  2.4550
   89MOL    H9017866   4.917   4.901   4.850  0.5569 -1.5995 -1.1734
   89MOL    H9117867   5.049   5.014   4.831  0.5123  1.7948 -1.7863
   89MOL    C9217868   5.244   4.879   4.603  0.3670 -0.2984 -0.1905
   89MOL    C9317869   5.350   4.974   4.559 -0.5702 -0.5446  0.2422
   89MOL    O9417870   5.352   5.094   4.645 -0.2826 -0.0348  0.6430
   89MOL    C9517871   5.369   5.212   4.582 -0.0115  0.3292  0.4985
   89MOL    H9617872   5.252   4.774   4.574  2.8148 -0.4233  0.8593
   89MOL    H9717873   5.255   4.874   4.711 -1.9723  2.5474  0.2411
   89MOL    H9817874   5.328   5.005   4.457  0.3970  0.9084  0.4533
   89MOL    H9917875   5.461   5.210   4.524 -0.2812  0.1713  0.0752
   89MOL   H10017876   5.284   5.221   4.513 -0.1086 -1.4351  0.3548
   89MOL   H10117877   5.383   5.300   4.645 -0.5951  0.1163  0.9277
   89MOL   C10217878   5.489   4.904   4.574  0.8134 -0.5408 -0.4994
   89MOL   C10317879   5.536   4.844   4.444 -0.4834  0.1844 -0.6232
   89MOL   O10417880   5.674   4.813   4.459  0.0118  0.3907  0.1614
   89MOL   C10517881   5.773   4.905   4.408  0.6870 -0.1058 -0.2086
   89MOL   H10617882   5.490   4.839   4.662 -0.4511  1.3232  0.9395
   89MOL   H10717883   5.555   4.984   4.604  0.8044 -1.3131  1.6724
   89MOL   H10817884   5.531   4.918   4.365 -1.0463 -0.6243 -1.3604
   89MOL   H10917885   5.867   4.854   4.390 -0.1402 -1.4860 -0.6832
   89MOL   H11017886   5.749   4.947   4.311 -0.5080  1.1849  0.6181
   89MOL   H11117887   5.779   4.984   4.483 -1.1742 -0.8951  0.8167
   89MOL   C11217888   5.464   4.720   4.398  0.0844  0.4403 -0.5349
   89MOL   C11317889   5.516   4.667   4.259  0.0644 -0.3273 -0.7474
   89MOL   O11417890   5.451   4.543   4.233  0.5087  0.3606 -0.1611
   89MOL   C11517891   5.517   4.431   4.282 -0.6321 -0.0244 -0.2978
   89MOL   H11617892   5.359   4.747   4.385  0.4342  0.7627 -2.7883
   89MOL   H11717893   5.480   4.642   4.473 -1.4835 -2.8269 -3.4655
   89MOL   H11817894   5.624   4.651   4.263 -0.0423 -0.9143 -0.1235
   89MOL   H11917895   5.537   4.448   4.388 -1.4521  1.6435 -0.4027
   89MOL   H12017896   5.460   4.339   4.267  0.4269 -0.7699  0.1463
   89MOL   H12117897   5.609   4.419   4.226 -1.0799 -3.5940 -0.3700
   89MOL   C12217898   5.481   4.767   4.144 -0.6703  0.1691 -0.0067
   89MOL   C12317899   5.564   4.763   4.013 -0.0672 -0.3763  0.1635
   89MOL   O12417900   5.697   4.766   4.051  0.3321 -0.0813  0.0153
   89MOL   C12517901   5.765   4.886   4.045 -0.1351  1.0807  0.0320
   89MOL   H12617902   5.487   4.870   4.179  0.0026  0.4717 -0.9871
   89MOL   H12717903   5.375   4.756   4.121 -0.9600 -0.3267  1.4768
   89MOL   H12817904   5.539   4.847   3.947  0.6858 -0.4267 -0.1858
   89MOL   H12917905   5.792   4.917   3.944  1.0659  1.3726  0.4379
   89MOL   H13017906   5.707   4.971   4.082 -0.1110  0.9210  0.4324
   89MOL   H13117907   5.851   4.869   4.110 -0.9321 -1.4137  0.4779
   89MOL   C13217908   5.556   4.628   3.933 -0.1077  0.3877  0.6333
   89MOL   C13317909   5.418   4.571   3.899 -0.5544  0.5588  1.1423
   89MOL   O13417910   5.362   4.645   3.791  0.1088 -0.1635 -0.0249
   89MOL   C13517911   5.226   4.700   3.814  0.1732 -0.7209  0.1616
   89MOL   H13617912   5.599   4.552   3.999 -1.0073 -0.8868 -0.2268
   89MOL   H13717913   5.621   4.630   3.846 -0.0256 -0.5632  0.6644
   89MOL   H13817914   5.356   4.588   3.987  0.2826 -1.4365  2.1508
   89MOL   H13917915   5.235   4.786   3.880  1.0686 -0.0566 -0.8049
   89MOL   H14017916   5.170   4.726   3.723  1.1859 -1.8053 -0.7846
   89MOL   H14117917   5.171   4.621   3.864  0.8755 -0.0618  1.9838
   89MOL   C14217918   5.424   4.424   3.854  0.0378 -0.2204  0.1831
   89MOL   C14317919   5.291   4.349   3.831 -0.2093 -0.3672  0.7630
   89MOL   O14417920   5.336   4.219   3.785 -0.8523  1.1285 -0.1776
   89MOL   C14517921   5.348   4.215   3.642 -0.1909  0.0926  0.4145
   89MOL   H14617922   5.475   4.369   3.933 -0.8821 -0.5535  0.5436
   89MOL   H14717923   5.498   4.429   3.774 -0.0511  0.2799  0.1333
   89MOL   H14817924   5.241   4.414   3.759 -1.0514  0.5339  2.1278
   89MOL   H14917925   5.356   4.114   3.603  3.0978  0.1565  0.7949
   89MOL   H15017926   5.262   4.265   3.596 -0.8034  0.4561  1.8953
   89MOL   H15117927   5.440   4.264   3.610  1.3353 -2.1321  1.3122
   89MOL   C15217928   5.193   4.347   3.958 -0.2810 -0.6211  0.4962
   89MOL   C15317929   5.062   4.265   3.949 -0.1948  0.5558  0.6721
   89MOL   O15417930   5.019   4.243   4.083  0.3957 -0.7619  0.0559
   89MOL   C15517931   4.954   4.120   4.101  0.1706  0.2441  0.7732
   89MOL   H15617932   5.165   4.443   4.001 -0.3628  0.2386 -1.4637
   89MOL   H15717933   5.251   4.291   4.031  2.0102 -0.5223 -1.1981
   89MOL   H15817934   5.092   4.169   3.906  0.0920  0.8575  0.1941
   89MOL   H15917935   4.894   4.125   4.193 -0.9465  2.4865 -0.0249
   89MOL   H16017936   4.885   4.091   4.023  1.4086  0.2516 -0.3323
   89MOL   H16117937   5.030   4.044   4.116  0.3622  0.2056 -0.3627
   89MOL   C16217938   4.947   4.334   3.861 -0.0015 -0.1150 -0.4955
   89MOL   C16317939   4.871   4.252   3.759  0.1453 -0.4861 -0.1468
   89MOL   O16417940   4.778   4.343   3.700 -0.1149  0.0711  0.0983
   89MOL   C16517941   4.640   4.315   3.731 -0.1968  0.2344  0.3665
   89MOL   H16617942   4.993   4.410   3.798 -3.0405  0.7549 -1.7739
   89MOL   H16717943   4.879   4.377   3.935 -0.4621  0.9738 -1.5399
   89MOL   H16817944   4.815   4.174   3.811 -0.5371 -0.2760 -0.5595
   89MOL   H16917945   4.584   4.391   3.678 -0.3794  0.8205  1.3847
   89MOL   H17017946   4.611   4.218   3.690  1.8974 -0.9605  1.6139
   89MOL   H17117947   4.611   4.305   3.836  1.4353 -1.0507  0.7199
   89MOL   C17217948   4.949   4.207   3.638  0.1304 -0.5355  0.0636
   89MOL   C17317949   4.871   4.116   3.531 -0.0903 -0.3924 -0.8367
   89MOL   O17417950   4.962   4.096   3.422  0.5160  0.4951  0.1781
   89MOL   C17517951   4.904   4.078   3.295  0.1813  0.3714 -0.6111
   89MOL   H17617952   5.031   4.147   3.677 -0.6062  0.1231  2.7037
   89MOL   H17717953   4.979   4.292   3.576  1.3338  0.1158  1.5125
   89MOL   H17817954   4.792   4.186   3.503 -1.6122 -1.5726  0.4305
   89MOL   H17917955   4.822   4.007   3.298  1.1313 -0.8371 -2.3654
   89MOL   H18017956   4.871   4.178   3.266 -2.7121 -0.5606 -0.7031
   89MOL   H18117957   4.967   4.033   3.218  0.6851 -0.4195  0.2463
   89MOL   C18217958   4.824   3.980   3.593  0.7649  0.6286  0.2265
   89MOL   C18317959   4.929   3.867   3.594  0.2141 -0.1052  0.2731
   89MOL   O18417960   5.028   3.907   3.690 -0.1261 -0.2066 -0.1686
   89MOL   C18517961   5.159   3.908   3.631 -0.4510 -0.7314  0.1876
   89MOL   H18617962   4.747   3.966   3.517  1.0685  2.0727 -0.3655
   89MOL   H18717963   4.773   3.991   3.689 -0.8245 -2.3002 -0.2131
   89MOL   H18817964   4.972   3.850   3.495  1.2891  1.7088  0.4167
   89MOL   H18917965   5.247   3.922   3.694  0.6554 -2.7984 -0.8438
   89MOL   H19017966   5.185   3.812   3.586  1.3897 -0.2810  0.2417
   89MOL   H19117967   5.171   3.973   3.544  2.3828 -0.1853  0.9267
   89MOL   C19217968   4.867   3.735   3.640  0.1360 -0.1422  0.3157
   89MOL   C19317969   4.963   3.621   3.656  0.3314  0.2669  0.5318
   89MOL   O19417970   4.913   3.511   3.732 -0.4911 -0.0835 -0.2487
   89MOL   C19517971   4.996   3.394   3.741  0.1258 -0.2998  0.1784
   89MOL   H19617972   4.786   3.702   3.575  1.2647  0.2626 -1.3282
   89MOL   H19717973   4.822   3.752   3.738  1.8597 -1.6882  1.4033
   89MOL   H19817974   5.051   3.656   3.709  0.8643  1.5009 -1.1606
   89MOL   H19917975   4.974   3.328   3.657  2.6256 -2.2306  0.9646
   89MOL   H20017976   5.102   3.419   3.740 -0.4398  2.2292  0.7234
   89MOL   H20117977   4.960   3.327   3.819 -0.4241 -0.5046 -0.2468
   89MOL   H20217978   4.992   3.589   3.557 -1.3553  2.1500 -0.6148
   90MOL     C117979   3.401   4.571   6.903 -0.1031 -0.1256  0.2121
   90MOL     C217980   3.451   4.679   6.804  0.1841  0.7371  0.1886
   90MOL     O317981   3.519   4.780   6.882 -0.1302  0.1077 -0.6082
   90MOL     C417982   3.528   4.907   6.825  0.0769  0.1026  0.6066
   90MOL     H517983   3.347   4.493   6.850  2.5021 -0.4843 -2.0681
   90MOL     H617984   3.491   4.523   6.942  1.3750  1.2586 -1.4198
   90MOL     H717985   3.359   4.721   6.764  0.1330  0.3235 -0.1311
   90MOL     H817986   3.599   4.902   6.743  1.2327 -0.0393  1.6009
   90MOL     H917987   3.434   4.939   6.781  1.2318  0.4186 -1.7001
   90MOL    H1017988   3.561   4.981   6.898 -0.6148  1.0727 -0.0517
   90MOL    H1117989   3.330   4.612   6.974 -0.3610  0.7920 -0.5545
   90MOL    C1217990   3.553   4.625   6.699  0.4491  0.2189  0.5788
   90MOL    C1317991   3.488   4.558   6.579  0.3634  0.0985  0.3862
   90MOL    O1417992   3.417   4.663   6.519 -0.4458  0.3445 -0.0226
   90MOL    C1517993   3.302   4.630   6.452 -0.0584 -0.3408  0.1193
   90MOL    H1617994   3.622   4.558   6.750  1.0143  0.3450 -0.0239
   90MOL    H1717995   3.619   4.706   6.667  0.0921 -0.2145 -1.3065
   90MOL    H1817996   3.418   4.481   6.611  0.9632 -0.0833  1.2771
   90MOL    H1917997   3.226   4.708   6.454  0.1802 -0.0568 -1.5467
   90MOL    H2017998   3.309   4.593   6.350 -2.8611 -0.3704 -0.0822
   90MOL    H2117999   3.258   4.557   6.521 -1.1364  1.0533  0.9379
   90MOL    C2218000   3.584   4.494   6.478  0.6704 -0.0186 -0.6619
   90MOL    C2318001   3.644   4.363   6.528 -0.6305  0.2840  0.3584
   90MOL    O2418002   3.542   4.268   6.522  0.7874  0.3092  0.5508
   90MOL    C2518003   3.560   4.170   6.624  0.1368  0.0924  1.5481
   90MOL    H2618004   3.667   4.559   6.449  1.0869  0.9091  2.4050
   90MOL    H2718005   3.531   4.467   6.386  0.9814  1.6753 -1.3607
   90MOL    H2818006   3.676   4.366   6.632  1.8938  0.3869 -0.3787
   90MOL    H2918007   3.476   4.100   6.629  2.3159 -2.9201 -1.8028
   90MOL    H3018008   3.645   4.106   6.604  0.8802  1.0909  1.4680
   90MOL    H3118009   3.571   4.216   6.722  2.6125 -0.2332  1.4456
   90MOL    C3218010   3.762   4.320   6.440 -0.1359  0.2792  0.0024
   90MOL    C3318011   3.906   4.313   6.497 -0.1219 -0.4655  0.1818
   90MOL    O3418012   3.912   4.187   6.564  0.2933  0.0244 -0.2169
   90MOL    C3518013   3.955   4.184   6.700  0.3798  0.0500  0.3291
   90MOL    H3618014   3.754   4.383   6.351 -1.7536  2.0791  1.3674
   90MOL    H3718015   3.734   4.229   6.388  0.0761 -0.4870  1.2186
   90MOL    H3818016   3.918   4.400   6.562 -0.5503 -0.1717 -0.1357
   90MOL    H3918017   3.885   4.238   6.764 -1.2138  1.0635 -2.1820
   90MOL    H4018018   3.979   4.086   6.739  0.4391  0.2051  0.6816
   90MOL    H4118019   4.053   4.230   6.716 -0.5776  2.2565  0.1299
   90MOL    C4218020   4.028   4.310   6.402  0.1595  0.0701 -0.1412
   90MOL    C4318021   4.170   4.286   6.464  0.5679  0.2495 -0.0483
   90MOL    O4418022   4.268   4.269   6.365 -0.1114 -0.3417  0.6094
   90MOL    C4518023   4.249   4.160   6.275 -0.6500 -0.1386 -0.3909
   90MOL    H4618024   4.033   4.404   6.346 -0.9829 -0.0770 -0.5091
   90MOL    H4718025   4.002   4.227   6.337 -0.9658  0.1689  0.1815
   90MOL    H4818026   4.161   4.192   6.518  1.0494 -1.3212 -2.6330
   90MOL    H4918027   4.342   4.161   6.218 -1.2917  0.0308 -1.4494
   90MOL    H5018028   4.237   4.062   6.320  1.0076 -0.7413 -1.2076
   90MOL    H5118029   4.169   4.182   6.204 -1.0313  2.5504  0.8229
   90MOL    C5218030   4.222   4.403   6.556  0.2734  0.5360 -0.3921
   90MOL    C5318031   4.278   4.532   6.475  0.3146  0.0217 -0.1719
   90MOL    O5418032   4.178   4.631   6.486 -0.6156  0.0479  0.7764
   90MOL    C5518033   4.180   4.732   6.387  0.2804  0.2724 -0.2333
   90MOL    H5618034   4.302   4.348   6.607 -1.2786 -1.7591 -0.3699
   90MOL    H5718035   4.148   4.441   6.627  1.1803  2.6361 -0.5310
   90MOL    H5818036   4.297   4.501   6.372  1.4942  0.8597 -0.2111
   90MOL    H5918037   4.275   4.784   6.376  1.6340 -1.6847  1.7235
   90MOL    H6018038   4.153   4.696   6.288  0.5533  0.2983 -0.3191
   90MOL    H6118039   4.102   4.805   6.408  0.1624 -0.2445  1.1948
   90MOL    C6218040   4.408   4.584   6.535 -0.2929 -0.3454 -0.0645
   90MOL    C6318041   4.533   4.500   6.508 -0.5512 -0.3095  0.2070
   90MOL    O6418042   4.592   4.549   6.385 -0.5006 -1.0689 -0.0461
   90MOL    C6518043   4.600   4.456   6.284  0.5233 -1.0933  0.5885
   90MOL    H6618044   4.392   4.591   6.643 -0.7752 -0.8670 -0.0978
   90MOL    H6718045   4.431   4.684   6.498 -2.8944  1.3281  2.5213
   90MOL    H6818046   4.508   4.394   6.513 -2.5870 -0.0090 -2.3364
   90MOL    H6918047   4.499   4.420   6.267  0.1245  0.7796 -1.1478
   90MOL    H7018048   4.633   4.515   6.199  0.4371 -0.6898  0.8346
   90MOL    H7118049   4.674   4.376   6.291 -0.8077 -2.8469 -3.7674
   90MOL    C7218050   4.637   4.548   6.605 -0.5451  0.0525 -0.6841
   90MOL    C7318051   4.768   4.473   6.620 -0.0218 -0.3490 -0.0368
   90MOL    O7418052   4.859   4.541   6.711  0.1720  0.0649  0.0377
   90MOL    C7518053   4.980   4.597   6.664 -0.1325  0.7805 -0.4778
   90MOL    H7618054   4.602   4.550   6.709  1.3568 -1.1239  0.0090
   90MOL    H7718055   4.670   4.650   6.586 -1.6441  0.3963 -0.7954
   90MOL    H7818056   4.817   4.459   6.524 -0.7980 -1.8931 -0.2130
   90MOL    H7918057   5.048   4.517   6.634  0.6810 -0.2302  3.6451
   90MOL    H8018058   4.961   4.663   6.580 -1.2726  2.0581  0.7732
   90MOL    H8118059   5.019   4.650   6.751 -0.5649  2.5965 -1.3805
   90MOL    C8218060   4.756   4.337   6.692 -0.6848  0.2839  0.3319
   90MOL    C8318061   4.894   4.261   6.698  0.2094 -1.2103 -0.7435
   90MOL    O8418062   4.887   4.148   6.784  0.5059 -0.4177 -0.4032
   90MOL    C8518063   4.881   4.178   6.918 -0.4826 -0.2287  0.1775
   90MOL    H8618064   4.677   4.278   6.645 -0.9089  0.8432 -0.0100
   90MOL    H8718065   4.717   4.358   6.792 -0.1353  0.5934  0.4815
   90MOL    H8818066   4.967   4.330   6.740 -0.0027 -1.3001 -0.2202
   90MOL    H8918067   4.878   4.087   6.978 -1.0878 -1.7647 -2.1295
   90MOL    H9018068   4.971   4.221   6.962  0.0809 -0.7756 -0.4339
   90MOL    H9118069   4.797   4.240   6.951  0.2692  0.4573  0.8337
   90MOL    C9218070   4.948   4.208   6.564  0.3413  0.4948  0.6452
   90MOL    C9318071   4.859   4.118   6.481 -0.0207 -0.1541 -0.0089
   90MOL    O9418072   4.921   4.116   6.352  0.2499 -0.2985 -0.1900
   90MOL    C9518073   4.834   4.081   6.245 -0.5430 -0.4843 -0.3176
   90MOL    H9618074   5.042   4.157   6.581  0.0259 -0.5681 -0.6919
   90MOL    H9718075   4.977   4.289   6.498 -2.4684  1.3680  0.3927
   90MOL    H9818076   4.765   4.171   6.463  0.7107  0.6579 -1.6547
   90MOL    H9918077   4.866   4.097   6.142  0.4980  3.5047  0.5543
   90MOL   H10018078   4.803   3.977   6.255 -1.6584 -0.0204  1.3057
   90MOL   H10118079   4.739   4.134   6.252 -0.9272 -0.9334 -2.0063
   90MOL   C10218080   4.837   3.978   6.539 -0.0186 -0.1199  0.1401
   90MOL   C10318081   4.692   3.965   6.598 -0.6443 -0.2206  0.2118
   90MOL   O10418082   4.605   3.957   6.488 -0.2998  0.3796 -0.5142
   90MOL   C10518083   4.471   3.994   6.495  1.1409  0.0681 -0.4081
   90MOL   H10618084   4.918   3.956   6.608  0.2458  0.2104 -0.0658
   90MOL   H10718085   4.837   3.901   6.463 -1.3095  2.2657 -2.3685
   90MOL   H10818086   4.670   4.042   6.672 -2.3141 -1.4816  1.0823
   90MOL   H10918087   4.457   4.096   6.531  2.5350 -0.0579  0.5110
   90MOL   H11018088   4.434   3.978   6.394  1.3540 -0.2500 -0.4349
   90MOL   H11118089   4.413   3.925   6.556  0.1721  2.8148  1.9381
   90MOL   C11218090   4.670   3.828   6.667  0.2300 -0.3031  0.4694
   90MOL   C11318091   4.754   3.801   6.795 -1.3874 -0.7105  0.2048
   90MOL   O11418092   4.684   3.856   6.903  0.5650 -0.3905 -0.3924
   90MOL   C11518093   4.741   3.849   7.033  0.5896 -0.4320  0.8259
   90MOL   H11618094   4.689   3.751   6.593  1.9195  0.5990 -0.0644
   90MOL   H11718095   4.565   3.809   6.689  0.2187 -1.3413 -0.4702
   90MOL   H11818096   4.849   3.853   6.781 -2.3569  0.9114 -0.4308
   90MOL   H11918097   4.685   3.912   7.102  1.8479 -0.2921  1.7317
   90MOL   H12018098   4.721   3.758   7.089  1.9208  0.3518  2.6021
   90MOL   H12118099   4.848   3.873   7.037  0.0840  1.8952  1.4929
   90MOL   C12218100   4.774   3.644   6.811  0.1858 -0.0454 -0.0912
   90MOL   C12318101   4.895   3.591   6.737 -0.3630 -0.1813 -0.4062
   90MOL   O12418102   5.008   3.645   6.800  0.1130 -0.5081 -0.0227
   90MOL   C12518103   5.041   3.603   6.929 -0.0049  0.0407 -0.3142
   90MOL   H12618104   4.683   3.608   6.763 -1.1080 -0.3753  2.5147
   90MOL   H12718105   4.780   3.613   6.916 -0.7825 -0.2481 -0.0959
   90MOL   H12818106   4.905   3.629   6.635 -1.1132  1.4045  0.1128
   90MOL   H12918107   5.031   3.494   6.933 -0.4483  0.0802 -0.3265
   90MOL   H13018108   5.146   3.626   6.943  0.2579 -1.1429 -0.2675
   90MOL   H13118109   4.976   3.645   7.006 -2.1535 -1.3439 -1.3031
   90MOL   C13218110   4.891   3.441   6.711  0.1614  0.9693  1.0619
   90MOL   C13318111   4.995   3.393   6.612  0.3214 -0.0004  1.2449
   90MOL   O13418112   5.018   3.258   6.651  0.1264  0.7858  0.3109
   90MOL   C13518113   5.150   3.214   6.602 -0.2394  0.1935 -0.4889
   90MOL   H13618114   4.792   3.419   6.670  0.1155  1.6817  0.7841
   90MOL   H13718115   4.890   3.380   6.801  2.4464 -0.0618  0.4282
   90MOL   H13818116   5.087   3.449   6.624 -0.1909  0.9501  0.7663
   90MOL   H13918117   5.228   3.290   6.615  1.0626 -1.4365  1.5449
   90MOL   H14018118   5.177   3.115   6.638 -1.3141 -0.1627 -0.6564
   90MOL   H14118119   5.135   3.197   6.495 -2.7044 -1.3223  0.0756
   90MOL   C14218120   4.953   3.405   6.456  0.4336  0.8104  0.1695
   90MOL   C14318121   5.053   3.473   6.359  0.0451 -0.3237  0.5947
   90MOL   O14418122   5.172   3.390   6.359 -0.3692  0.5048 -0.7727
   90MOL   C14518123   5.300   3.457   6.360 -0.0429 -0.2385  0.0179
   90MOL   H14618124   4.854   3.447   6.442 -1.4285 -3.1694  0.5489
   90MOL   H14718125   4.920   3.306   6.425 -0.7826  1.8917 -2.0505
   90MOL   H14818126   5.080   3.575   6.387  1.5873 -0.9919  1.6444
   90MOL   H14918127   5.299   3.554   6.410 -0.8969 -1.4964  2.5435
   90MOL   H15018128   5.371   3.384   6.399 -0.9659 -0.3509  1.5310
   90MOL   H15118129   5.330   3.474   6.257 -2.2316  1.0774 -0.4580
   90MOL   C15218130   5.001   3.477   6.211 -0.0326 -0.0037 -0.3232
   90MOL   C15318131   4.927   3.610   6.179  0.7130  0.4087 -1.3199
   90MOL   O15418132   4.857   3.676   6.287 -0.3878  0.0269 -0.5169
   90MOL   C15518133   4.726   3.707   6.250  0.4793 -0.3149 -0.1465
   90MOL   H15618134   4.941   3.388   6.192 -0.1971 -0.5975  2.6989
   90MOL   H15718135   5.074   3.477   6.130  0.8174 -0.1903  0.4375
   90MOL   H15818136   4.844   3.568   6.123  1.0287 -1.3002 -0.5155
   90MOL   H15918137   4.723   3.759   6.154  3.0220  0.5507  0.2055
   90MOL   H16018138   4.662   3.619   6.240 -0.7674  0.7032 -1.5172
   90MOL   H16118139   4.691   3.771   6.331  1.4840  0.6775 -0.4978
   90MOL   C16218140   5.005   3.720   6.098  0.8734  0.7394 -0.1636
   90MOL   C16318141   5.139   3.774   6.163 -0.4391  0.6345  0.5319
   90MOL   O16418142   5.222   3.826   6.062  0.2696  0.3569 -0.6473
   90MOL   C16518143   5.322   3.733   6.023 -0.0596  0.6426  0.1319
   90MOL   H16618144   4.941   3.805   6.077  2.1647  1.6343 -0.5017
   90MOL   H16718145   5.024   3.679   5.999 -1.4199 -0.0346 -0.3108
   90MOL   H16818146   5.196   3.696   6.213  0.2846  2.2058  2.2016
   90MOL   H16918147   5.362   3.673   6.105  2.7803  0.8536 -1.0323
   90MOL   H17018148   5.288   3.666   5.943 -0.4219  0.6453  0.2865
   90MOL   H17118149   5.411   3.775   5.977  1.1524 -0.9682  0.9354
   90MOL   C17218150   5.115   3.891   6.259 -0.2789  0.1954  0.5835
   90MOL   C17318151   5.220   3.923   6.364  0.0096 -0.0372 -0.8358
   90MOL   O17418152   5.265   3.802   6.426  0.2672  0.4898  0.2434
   90MOL   C17518153   5.222   3.787   6.561  0.1923 -0.0434 -0.3821
   90MOL   H17618154   5.034   3.877   6.331 -0.4389 -0.6303  0.2489
   90MOL   H17718155   5.103   3.986   6.208  0.3468 -0.1362 -0.2020
   90MOL   H17818156   5.179   3.992   6.438  2.5817  0.2777  0.3689
   90MOL   H17918157   5.114   3.789   6.579  0.2820  0.2264  0.1120
   90MOL   H18018158   5.263   3.698   6.608  0.3507  0.0726 -0.3018
   90MOL   H18118159   5.242   3.879   6.615 -1.5076  0.4823 -0.6078
   90MOL   C18218160   5.332   4.006   6.297 -0.4635  0.5228 -0.0363
   90MOL   C18318161   5.415   4.098   6.389 -0.5693  0.1200 -0.8046
   90MOL   O18418162   5.526   4.150   6.309  0.3754 -0.0068 -0.2534
   90MOL   C18518163   5.647   4.154   6.385 -0.1082  0.4579 -0.3462
   90MOL   H18618164   5.295   4.069   6.217  0.0853 -1.3776 -1.8401
   90MOL   H18718165   5.405   3.938   6.252 -1.1220 -0.8700  0.9775
   90MOL   H18818166   5.447   4.030   6.467  2.6290 -0.7860 -2.7944
   90MOL   H18918167   5.730   4.153   6.315 -0.2222  0.6619 -0.4865
   90MOL   H19018168   5.647   4.247   6.441  0.9790  1.4821 -1.9850
   90MOL   H19118169   5.664   4.071   6.453 -4.1591 -0.4300 -0.2868
   90MOL   C19218170   5.335   4.224   6.438  0.4018  0.1560  0.3093
   90MOL   C19318171   5.287   4.317   6.324  0.0563  0.8684  0.9398
   90MOL   O19418172   5.234   4.429   6.376 -0.5573 -0.6704  0.1625
   90MOL   C19518173   5.189   4.516   6.270  0.9964  0.1302  0.3826
   90MOL   H19618174   5.400   4.283   6.502 -1.4474  1.3933  1.0925
   90MOL   H19718175   5.259   4.196   6.512  0.1622 -1.1109 -0.3994
   90MOL   H19818176   5.205   4.268   6.271 -0.3019  2.1523  0.2938
   90MOL   H19918177   5.113   4.462   6.212  1.4741 -0.3607  0.2119
   90MOL   H20018178   5.144   4.605   6.314 -0.4094 -0.6615  0.5857
   90MOL   H20118179   5.266   4.553   6.202  0.1651  2.0794  0.4825
   90MOL   H20218180   5.371   4.348   6.263 -2.0029 -0.8538 -2.9503
   91MOL     C118181   1.736   4.667   4.764 -0.3695 -0.1404  0.2061
   91MOL     C218182   1.711   4.757   4.893  0.1699  0.6226  0.1262
   91MOL     O318183   1.727   4.894   4.851 -0.1540 -0.0005 -0.4409
   91MOL     C418184   1.860   4.938   4.852  0.1546  0.4405 -0.3868
   91MOL     H518185   1.746   4.561   4.788 -0.5742  0.0953  1.3590
   91MOL     H618186   1.651   4.674   4.697 -0.4749 -0.2215  0.3292
   91MOL     H718187   1.783   4.736   4.972  0.1593 -1.0641 -0.2980
   91MOL     H818188   1.903   4.895   4.761  1.0603 -4.3948  2.1743
   91MOL     H918189   1.878   5.042   4.827  2.2858 -0.3543 -2.3627
   91MOL    H1018190   1.906   4.893   4.940 -3.6685 -1.1905  0.8713
   91MOL    H1118191   1.819   4.704   4.704 -1.1251 -0.6681 -1.1765
   91MOL    C1218192   1.563   4.739   4.932  0.3374 -0.3736  0.3047
   91MOL    C1318193   1.526   4.821   5.057  0.5998 -0.0335  0.4253
   91MOL    O1418194   1.386   4.819   5.077  0.6029  0.3941  0.7762
   91MOL    C1518195   1.314   4.937   5.037 -0.8000  0.3405  0.1723
   91MOL    H1618196   1.546   4.634   4.956 -1.9457 -0.1749 -0.2969
   91MOL    H1718197   1.495   4.759   4.849 -0.0044 -2.8470 -0.0283
   91MOL    H1818198   1.550   4.925   5.035 -2.4971  0.4602 -0.8810
   91MOL    H1918199   1.331   4.958   4.931 -0.0797 -1.5081 -0.0987
   91MOL    H2018200   1.206   4.934   5.051 -0.8625  1.7328  0.0733
   91MOL    H2118201   1.356   5.021   5.092  1.1873  0.4284 -1.4312
   91MOL    C2218202   1.596   4.773   5.181 -0.6497 -0.0540 -0.4934
   91MOL    C2318203   1.559   4.845   5.309 -0.1215  0.1618  0.3834
   91MOL    O2418204   1.636   4.766   5.400  0.1274 -0.1163 -0.7224
   91MOL    C2518205   1.555   4.697   5.496  0.4359 -0.5813 -0.4126
   91MOL    H2618206   1.705   4.779   5.175 -0.6011  0.0685  0.4668
   91MOL    H2718207   1.579   4.666   5.188 -1.6755  0.0499 -1.1931
   91MOL    H2818208   1.451   4.841   5.325  0.1517 -2.2808  1.8421
   91MOL    H2918209   1.523   4.768   5.572 -2.0758 -0.4398 -1.5422
   91MOL    H3018210   1.474   4.652   5.438 -0.3475 -0.1518  0.3485
   91MOL    H3118211   1.616   4.619   5.541 -1.8467 -1.4817  1.2026
   91MOL    C3218212   1.588   4.994   5.310  0.3229 -0.2148  0.5359
   91MOL    C3318213   1.594   5.057   5.459 -0.0097  0.5082  0.2137
   91MOL    O3418214   1.721   5.094   5.495 -0.4201  0.0945  0.5208
   91MOL    C3518215   1.809   4.998   5.537  0.4222 -0.4288 -0.1941
   91MOL    H3618216   1.516   5.045   5.246  0.6148  1.4328  1.4925
   91MOL    H3718217   1.688   5.005   5.270  1.2571  0.0664  2.8455
   91MOL    H3818218   1.547   5.005   5.542 -1.0007  4.4156  2.2065
   91MOL    H3918219   1.828   4.928   5.455 -0.9162 -1.4073  0.3210
   91MOL    H4018220   1.909   5.041   5.552  0.1595  0.2952 -0.4985
   91MOL    H4118221   1.778   4.950   5.629 -1.2430  1.5250  0.2888
   91MOL    C4218222   1.510   5.190   5.465  0.5697  0.8587 -0.3408
   91MOL    C4318223   1.538   5.294   5.350 -0.7594  0.2767 -0.2263
   91MOL    O4418224   1.441   5.279   5.257  0.3922  0.3043 -0.3486
   91MOL    C4518225   1.485   5.294   5.119 -0.3099 -0.3377  0.0857
   91MOL    H4618226   1.530   5.229   5.564 -0.2170  1.7183 -0.5136
   91MOL    H4718227   1.402   5.175   5.468  0.5591  0.8718 -0.5868
   91MOL    H4818228   1.634   5.272   5.304 -0.1094  0.7311  0.9078
   91MOL    H4918229   1.563   5.225   5.088  0.5034 -0.6113  2.6153
   91MOL    H5018230   1.406   5.287   5.045 -0.3670 -0.2613  0.1386
   91MOL    H5118231   1.533   5.392   5.111 -0.7624  0.0420  1.8260
   91MOL    C5218232   1.527   5.443   5.389  0.4858 -0.3232 -0.0849
   91MOL    C5318233   1.636   5.485   5.485 -0.3061  0.2298 -0.2855
   91MOL    O5418234   1.757   5.459   5.425 -0.1250  0.4326  0.5703
   91MOL    C5518235   1.864   5.415   5.511 -0.0027 -0.5391 -0.2215
   91MOL    H5618236   1.430   5.468   5.432  0.9688  0.8544  0.3365
   91MOL    H5718237   1.537   5.498   5.296  1.1832  2.1841  1.4268
   91MOL    H5818238   1.622   5.423   5.574  1.2001  0.0048 -0.1987
   91MOL    H5918239   1.863   5.310   5.540  1.7255 -1.2239 -2.4801
   91MOL    H6018240   1.964   5.436   5.473 -0.7042  1.5162 -0.9841
   91MOL    H6118241   1.860   5.466   5.607  0.6580  2.1565 -1.5859
   91MOL    C6218242   1.634   5.636   5.506  0.6259 -0.0415 -0.1259
   91MOL    C6318243   1.498   5.700   5.563  0.0209  0.3070  0.3429
   91MOL    O6418244   1.478   5.622   5.683  0.4901  0.6462  0.0887
   91MOL    C6518245   1.349   5.573   5.715  0.2777  0.3592  0.1280
   91MOL    H6618246   1.648   5.679   5.407 -2.6745 -0.6421 -0.9137
   91MOL    H6718247   1.715   5.665   5.573 -1.1504  0.0315  2.0374
   91MOL    H6818248   1.420   5.696   5.487 -0.5189  1.7716  0.7897
   91MOL    H6918249   1.318   5.487   5.655 -2.0447  1.7236 -0.6876
   91MOL    H7018250   1.339   5.542   5.819  0.3949  2.6858  0.8548
   91MOL    H7118251   1.274   5.649   5.694  0.5659  0.1581 -1.7313
   91MOL    C7218252   1.522   5.844   5.608  0.1826 -0.2373 -0.0640
   91MOL    C7318253   1.581   5.942   5.512  0.9365  0.9221 -0.3478
   91MOL    O7418254   1.505   5.948   5.399  0.1292  0.3968 -0.6471
   91MOL    C7518255   1.581   5.965   5.275  0.4523 -0.1729  0.8144
   91MOL    H7618256   1.589   5.844   5.694  1.1017 -0.4658 -0.7662
   91MOL    H7718257   1.427   5.890   5.635  0.8888  1.2677 -0.0813
   91MOL    H7818258   1.680   5.913   5.476 -0.4526 -1.2926 -2.5037
   91MOL    H7918259   1.677   6.018   5.278 -0.1105  0.8314  1.5924
   91MOL    H8018260   1.604   5.865   5.238  0.0182 -0.0950  0.3334
   91MOL    H8118261   1.532   6.015   5.192  2.1976  0.8192  0.3474
   91MOL    C8218262   1.603   6.086   5.565  0.0220  0.6251 -0.7158
   91MOL    C8318263   1.723   6.095   5.659 -0.4127 -0.5326  0.9542
   91MOL    O8418264   1.837   6.045   5.588 -0.1500  0.2963  0.0901
   91MOL    C8518265   1.905   5.933   5.657 -0.0195 -0.1298 -0.4078
   91MOL    H8618266   1.509   6.126   5.604  0.3799  1.3533 -0.5789
   91MOL    H8718267   1.627   6.142   5.474 -0.2377  1.0022 -0.5520
   91MOL    H8818268   1.700   6.051   5.756  0.7107 -1.2477  0.9027
   91MOL    H8918269   1.974   5.964   5.736 -0.5341  1.5160 -0.6030
   91MOL    H9018270   1.842   5.859   5.707  0.1369  0.3986  0.5926
   91MOL    H9118271   1.963   5.876   5.584 -2.0005 -1.8087 -0.7199
   91MOL    C9218272   1.743   6.245   5.687 -0.0378  0.2874  1.0562
   91MOL    C9318273   1.851   6.254   5.798  0.0458  0.3182 -0.6114
   91MOL    O9418274   1.867   6.394   5.821  0.0011 -0.2500 -0.6295
   91MOL    C9518275   1.931   6.473   5.718 -0.7607  0.3226  0.4430
   91MOL    H9618276   1.649   6.295   5.710 -0.7054  0.0167 -1.0296
   91MOL    H9718277   1.777   6.286   5.592  0.2316  0.3959  1.1991
   91MOL    H9818278   1.946   6.207   5.772 -0.6132 -0.4369 -1.7024
   91MOL    H9918279   2.034   6.440   5.725 -0.1600  2.4367  2.3251
   91MOL   H10018280   1.886   6.464   5.620  1.1590 -0.6943 -0.3630
   91MOL   H10118281   1.936   6.577   5.750 -3.3534  1.1564 -1.7020
   91MOL   C10218282   1.797   6.208   5.928  0.3650  0.2088  0.1272
   91MOL   C10318283   1.914   6.195   6.031  0.3946 -0.3251 -0.5523
   91MOL   O10418284   1.853   6.233   6.162  0.5126 -0.0370 -0.2015
   91MOL   C10518285   1.860   6.366   6.204  0.1629 -1.2419  0.3819
   91MOL   H10618286   1.739   6.117   5.945  1.3398 -0.0073  2.4831
   91MOL   H10718287   1.717   6.279   5.950 -1.0631 -1.1859 -0.4095
   91MOL   H10818288   1.985   6.274   6.007 -0.2618  0.4724  0.1061
   91MOL   H10918289   1.795   6.436   6.152 -1.2254 -0.8182  2.6276
   91MOL   H11018290   1.824   6.368   6.306 -0.9949 -1.9125 -0.0014
   91MOL   H11118291   1.964   6.398   6.198  0.2070 -1.2841  0.9763
   91MOL   C11218292   1.987   6.061   6.046 -0.0929 -0.6231  0.4291
   91MOL   C11318293   1.901   5.929   6.082 -0.6503  0.0814  0.3666
   91MOL   O11418294   1.835   5.897   5.959 -0.4746  0.4285 -0.5126
   91MOL   C11518295   1.696   5.860   5.987  0.3130  0.1891 -0.1929
   91MOL   H11618296   2.064   6.071   6.123  0.5758  1.2605 -0.4464
   91MOL   H11718297   2.042   6.044   5.954  0.4968  0.3818  0.5797
   91MOL   H11818298   1.822   5.951   6.153 -1.7989  2.8407 -1.6726
   91MOL   H11918299   1.633   5.825   5.906 -0.0960 -0.4520  0.3966
   91MOL   H12018300   1.690   5.795   6.074  0.6330 -0.7995 -0.9054
   91MOL   H12118301   1.646   5.948   6.027  3.0850  1.3272  0.8557
   91MOL   C12218302   1.984   5.806   6.117 -0.4923  0.1432 -0.3529
   91MOL   C12318303   2.079   5.824   6.243 -0.1476  0.5213  0.1512
   91MOL   O12418304   2.024   5.752   6.356 -0.6724  0.5208  0.4193
   91MOL   C12518305   1.891   5.781   6.391  0.5482  0.3781 -0.0887
   91MOL   H12618306   2.042   5.798   6.025 -0.5325  2.0843 -0.5711
   91MOL   H12718307   1.920   5.719   6.124 -2.2322  1.5032  0.9817
   91MOL   H12818308   2.083   5.926   6.281  0.1030  1.0524 -1.2886
   91MOL   H12918309   1.867   5.776   6.497  1.3295 -1.6377  0.0157
   91MOL   H13018310   1.866   5.884   6.364 -0.9809  0.2408  0.7349
   91MOL   H13118311   1.822   5.709   6.347 -0.2573  1.7140 -1.0627
   91MOL   C13218312   2.219   5.762   6.234 -0.0049 -0.9274 -0.1270
   91MOL   C13318313   2.302   5.796   6.116 -0.8430  0.9859 -0.0446
   91MOL   O13418314   2.312   5.935   6.103 -0.5674  0.6366 -0.5155
   91MOL   C13518315   2.335   5.982   5.971 -0.7219 -0.8283 -0.0064
   91MOL   H13618316   2.199   5.655   6.241  0.4573 -0.9103  1.6844
   91MOL   H13718317   2.277   5.778   6.325  0.4925 -0.6587 -0.4891
   91MOL   H13818318   2.246   5.768   6.026  0.4106  1.7845 -1.0988
   91MOL   H13918319   2.245   5.956   5.915 -0.8993  3.0724 -1.7088
   91MOL   H14018320   2.338   6.091   5.963 -3.6260 -0.8649 -2.7163
   91MOL   H14118321   2.429   5.948   5.928 -1.5259 -2.8435 -0.2136
   91MOL   C14218322   2.437   5.734   6.122  0.1237 -0.3591  0.2324
   91MOL   C14318323   2.435   5.576   6.117  0.1499  0.3187  0.2935
   91MOL   O14418324   2.332   5.527   6.019 -0.0841 -0.1455 -0.0728
   91MOL   C14518325   2.293   5.392   6.044 -0.1653 -0.5839  0.5554
   91MOL   H14618326   2.494   5.779   6.204 -3.2526  0.8342  2.0318
   91MOL   H14718327   2.485   5.767   6.031 -2.3957  2.0527 -0.2851
   91MOL   H14818328   2.403   5.532   6.211  0.3373  0.7854  0.5747
   91MOL   H14918329   2.191   5.371   6.012 -0.5106  0.2145  1.1234
   91MOL   H15018330   2.356   5.317   5.997 -1.0138  0.5604 -2.4834
   91MOL   H15118331   2.304   5.362   6.149  1.9120 -1.7046  0.0391
   91MOL   C15218332   2.566   5.522   6.076  0.5251  0.2515  0.1364
   91MOL   C15318333   2.681   5.537   6.188 -0.4549  0.2565  0.1975
   91MOL   O15418334   2.664   5.488   6.320 -1.0793 -0.1100  0.5991
   91MOL   C15518335   2.594   5.370   6.335 -0.2176  0.0432 -0.3378
   91MOL   H15618336   2.595   5.569   5.982  0.1700 -1.8837 -1.0934
   91MOL   H15718337   2.563   5.417   6.047  0.0268 -0.0524  1.2603
   91MOL   H15818338   2.704   5.643   6.191  1.6467 -0.1487 -0.8578
   91MOL   H15918339   2.497   5.364   6.287 -0.5517 -2.0452  0.5311
   91MOL   H16018340   2.655   5.285   6.307 -0.3952 -0.6658  1.3565
   91MOL   H16118341   2.569   5.360   6.441  0.6905  1.9295  0.0873
   91MOL   C16218342   2.804   5.479   6.128 -0.5231  0.2664  0.6382
   91MOL   C16318343   2.926   5.557   6.162  0.5156  0.0542  0.2242
   91MOL   O16418344   2.910   5.692   6.111  0.0807  0.2147  0.0076
   91MOL   C16518345   2.943   5.702   5.974 -0.0186  0.4104  0.2398
   91MOL   H16618346   2.799   5.470   6.020  0.0537  0.3722  0.6030
   91MOL   H16718347   2.811   5.372   6.150 -0.8120  0.3353  1.0820
   91MOL   H16818348   3.015   5.521   6.111  0.4970  0.7542 -0.3069
   91MOL   H16918349   2.931   5.803   5.935  1.9608  0.6143  0.0751
   91MOL   H17018350   3.041   5.669   5.940  1.0273  3.3603  0.2257
   91MOL   H17118351   2.864   5.647   5.926 -0.3227  0.7324  0.3666
   91MOL   C17218352   2.970   5.561   6.307 -0.6566 -0.3059  0.0556
   91MOL   C17318353   3.037   5.430   6.364 -0.1957  0.2820  0.1615
   91MOL   O17418354   3.143   5.476   6.451  0.5736 -0.1396  0.4016
   91MOL   C17518355   3.112   5.514   6.582 -0.4830  0.3256 -0.0284
   91MOL   H17618356   2.887   5.592   6.371 -1.2773  1.6226 -1.6285
   91MOL   H17718357   3.043   5.641   6.320 -0.5705 -0.6907  2.1283
   91MOL   H17818358   3.089   5.382   6.282 -0.0142  0.1018  0.3812
   91MOL   H17918359   3.099   5.423   6.641  0.5431  0.3126  0.1962
   91MOL   H18018360   3.191   5.549   6.649  0.4473 -0.0795 -0.9113
   91MOL   H18118361   3.030   5.583   6.598  0.5364  1.2186  1.4884
   91MOL   C18218362   2.948   5.325   6.423 -0.1448 -0.4345  0.0975
   91MOL   C18318363   3.003   5.178   6.441  0.2619  0.0833 -0.0892
   91MOL   O18418364   2.899   5.085   6.470 -0.4475  0.1816  0.0340
   91MOL   C18518365   2.821   5.112   6.581 -0.5014 -0.4024 -0.3916
   91MOL   H18618366   2.856   5.331   6.365  0.3164  0.4917 -0.5376
   91MOL   H18718367   2.906   5.361   6.517  0.2967 -2.0489  0.9337
   91MOL   H18818368   3.066   5.171   6.530  2.0301 -0.7642 -1.3643
   91MOL   H18918369   2.743   5.181   6.550 -0.9063 -0.8355 -0.3340
   91MOL   H19018370   2.792   5.019   6.630  3.2297  0.3065  3.4955
   91MOL   H19118371   2.886   5.154   6.658 -0.6745  0.4092 -0.6894
   91MOL   C19218372   3.092   5.120   6.329 -0.8135  0.0977  0.3426
   91MOL   C19318373   3.150   4.987   6.370  0.0390  0.2284  0.2048
   91MOL   O19418374   3.230   4.940   6.257 -0.4714  0.3769  0.1654
   91MOL   C19518375   3.153   4.851   6.173  0.0469 -0.6395  0.2700
   91MOL   H19618376   3.181   5.181   6.322 -0.3293 -0.6453 -0.0509
   91MOL   H19718377   3.044   5.104   6.233  0.1693 -1.8702  0.1509
   91MOL   H19818378   3.071   4.914   6.385 -0.1193  0.1338 -1.0132
   91MOL   H19918379   3.223   4.804   6.104 -0.9962  0.3562 -1.5183
   91MOL   H20018380   3.109   4.767   6.227 -0.5802  0.4973  1.5689
   91MOL   H20118381   3.086   4.912   6.112  1.9178 -1.6638 -2.9193
   91MOL   H20218382   3.205   5.003   6.463  0.2295  0.1283  0.1107
   92MOL     C118383   6.383   6.959   4.459  0.1367 -0.2716  0.1752
   92MOL     C218384   6.494   6.859   4.458  0.0959  0.1398  0.3593
   92MOL     O318385   6.493   6.803   4.331 -0.2316 -0.5058 -0.0713
   92MOL     C418386   6.472   6.658   4.339 -0.3567 -0.0314  0.1158
   92MOL     H518387   6.372   6.991   4.562 -2.1931 -0.2486 -0.0392
   92MOL     H618388   6.406   7.043   4.393  1.2689 -0.6994  0.0208
   92MOL     H718389   6.473   6.795   4.543 -1.8116 -1.1083 -1.0073
   92MOL     H818390   6.374   6.642   4.385 -1.3107  0.4316 -1.7326
   92MOL     H918391   6.469   6.620   4.237 -0.2475  0.9338 -0.2446
   92MOL    H1018392   6.563   6.626   4.390  0.5376 -0.0867 -1.4914
   92MOL    H1118393   6.289   6.918   4.422  0.3696 -0.3135 -0.3806
   92MOL    C1218394   6.631   6.928   4.469  0.0690  0.1019  0.0159
   92MOL    C1318395   6.662   7.023   4.587 -0.1035 -0.4715  0.1302
   92MOL    O1418396   6.656   6.951   4.710 -0.5665  0.3405 -0.2269
   92MOL    C1518397   6.534   6.970   4.772  0.6725 -0.3152 -0.2990
   92MOL    H1618398   6.656   6.982   4.377  0.8149 -2.4769 -1.3383
   92MOL    H1718399   6.704   6.847   4.478  1.0390  1.0804  1.2085
   92MOL    H1818400   6.589   7.104   4.579 -1.1361 -1.3797  0.2918
   92MOL    H1918401   6.537   6.934   4.875  1.1716 -0.1575 -0.2595
   92MOL    H2018402   6.499   7.073   4.771 -2.3394 -1.2380  0.8142
   92MOL    H2118403   6.460   6.904   4.726 -1.1937 -0.5644  2.8956
   92MOL    C2218404   6.805   7.073   4.592  0.4542 -0.1609 -0.0867
   92MOL    C2318405   6.831   7.178   4.702  0.3286  0.3422  0.2570
   92MOL    O2418406   6.974   7.200   4.719  0.1751 -0.2727  0.2559
   92MOL    C2518407   7.046   7.099   4.775  0.4921  0.0250  0.5135
   92MOL    H2618408   6.821   7.120   4.495  0.2563  0.7479  0.3123
   92MOL    H2718409   6.875   6.990   4.598 -0.3875 -0.9482 -0.9940
   92MOL    H2818410   6.792   7.150   4.800  0.0416  0.2395  0.1116
   92MOL    H2918411   7.144   7.135   4.806  0.4856  1.0646 -0.5876
   92MOL    H3018412   7.010   7.086   4.877  0.3693 -1.4125  0.2940
   92MOL    H3118413   7.066   7.008   4.719  0.3561  0.5603 -0.4178
   92MOL    C3218414   6.787   7.311   4.659  0.5237  0.0585 -0.1766
   92MOL    C3318415   6.816   7.416   4.767  0.0242  0.7115  0.3391
   92MOL    O3418416   6.805   7.537   4.699 -0.2693 -0.4370  0.4461
   92MOL    C3518417   6.927   7.608   4.686  0.0986 -0.2719  0.3012
   92MOL    H3618418   6.680   7.299   4.646  0.5007 -2.0536  1.6570
   92MOL    H3718419   6.827   7.354   4.567  0.8156  2.8865  1.2173
   92MOL    H3818420   6.917   7.403   4.806  0.0955  0.4503  0.0710
   92MOL    H3918421   6.973   7.625   4.784  1.4374  0.9014 -0.5123
   92MOL    H4018422   6.989   7.538   4.631  2.2671  1.6878  0.2117
   92MOL    H4118423   6.902   7.700   4.633  3.8714  1.0996  0.7396
   92MOL    C4218424   6.707   7.417   4.884 -0.5088 -0.4569  0.0973
   92MOL    C4318425   6.767   7.404   5.020 -0.2097  0.0219 -0.5854
   92MOL    O4418426   6.776   7.532   5.091 -0.1563  0.5951 -0.3918
   92MOL    C4518427   6.868   7.624   5.027 -0.1219 -0.4084  0.2942
   92MOL    H4618428   6.634   7.338   4.867 -0.9359 -0.0146 -0.1428
   92MOL    H4718429   6.658   7.514   4.883  0.5422  0.0723 -0.5134
   92MOL    H4818430   6.866   7.360   5.006 -0.6587 -0.2157 -3.3348
   92MOL    H4918431   6.831   7.672   4.936 -0.3576 -1.3441 -0.1077
   92MOL    H5018432   6.907   7.690   5.104  1.4487  0.8711 -1.5616
   92MOL    H5118433   6.958   7.570   4.999 -0.8203 -0.2023 -2.4398
   92MOL    C5218434   6.694   7.311   5.116 -0.2164  0.0245 -0.0985
   92MOL    C5318435   6.697   7.162   5.079 -0.4763 -0.4114 -0.7003
   92MOL    O5418436   6.838   7.126   5.103  0.1889  0.0324  0.3323
   92MOL    C5518437   6.872   6.991   5.104 -0.1482  0.2605 -0.1964
   92MOL    H5618438   6.593   7.351   5.110  1.2943  3.9376 -1.4116
   92MOL    H5718439   6.735   7.325   5.216  0.8050  3.5698 -0.9562
   92MOL    H5818440   6.677   7.138   4.974 -1.0215 -2.8297 -0.0750
   92MOL    H5918441   6.980   6.999   5.105 -0.2208  1.2697  1.4178
   92MOL    H6018442   6.840   6.947   5.199  0.8373  0.1466  0.0828
   92MOL    H6118443   6.846   6.935   5.015  1.0381 -2.6850  1.2289
   92MOL    C6218444   6.610   7.063   5.164 -0.3241 -0.0217  1.0319
   92MOL    C6318445   6.462   7.106   5.180 -0.5600 -0.6118  0.0736
   92MOL    O6418446   6.402   7.103   5.048 -0.4816 -0.1754 -0.4113
   92MOL    C6518447   6.280   7.172   5.024  0.0356 -0.6171 -0.5030
   92MOL    H6618448   6.666   7.044   5.256 -0.6923 -1.1839  1.0313
   92MOL    H6718449   6.612   6.966   5.114  1.4965  0.3016  0.4298
   92MOL    H6818450   6.447   7.204   5.226  1.9670  0.1075 -0.5629
   92MOL    H6918451   6.290   7.280   5.025  1.3679 -0.7274  2.3027
   92MOL    H7018452   6.250   7.150   4.921  1.5001 -0.1729 -1.0427
   92MOL    H7118453   6.195   7.158   5.090 -0.0862 -0.1790 -0.5647
   92MOL    C7218454   6.378   7.008   5.255  0.4334 -0.1750 -0.0354
   92MOL    C7318455   6.413   6.985   5.402  0.1465 -0.0993  0.5074
   92MOL    O7418456   6.410   7.108   5.477 -0.0983 -0.3589  0.4004
   92MOL    C7518457   6.537   7.135   5.534  0.3631  0.0792 -0.0537
   92MOL    H7618458   6.383   6.914   5.199 -0.8711 -1.5443  2.0691
   92MOL    H7718459   6.274   7.042   5.256  0.1358 -1.0383 -0.6682
   92MOL    H7818460   6.504   6.926   5.403 -0.3799 -0.9469 -0.6380
   92MOL    H7918461   6.538   7.238   5.570  1.3233 -1.1778  3.7696
   92MOL    H8018462   6.563   7.073   5.620 -1.3139  0.6017  0.8525
   92MOL    H8118463   6.627   7.121   5.474  0.6047  2.0981 -0.1916
   92MOL    C8218464   6.315   6.895   5.485 -0.5982  0.2655  0.2740
   92MOL    C8318465   6.296   6.755   5.425 -0.1776  0.2044 -0.0109
   92MOL    O8418466   6.415   6.670   5.442  0.1524 -0.4206  0.5689
   92MOL    C8518467   6.434   6.573   5.335 -0.0850 -0.6328 -0.5687
   92MOL    H8618468   6.216   6.940   5.493 -0.9504 -0.0986 -1.6731
   92MOL    H8718469   6.344   6.887   5.589 -1.6521  1.0537  0.6339
   92MOL    H8818470   6.267   6.770   5.321  1.3449 -1.6015 -0.7256
   92MOL    H8918471   6.342   6.516   5.326  0.0826 -1.0514  0.2483
   92MOL    H9018472   6.449   6.620   5.238 -2.2994  0.0215 -0.6117
   92MOL    H9118473   6.514   6.512   5.378 -1.6085 -0.5118  2.6275
   92MOL    C9218474   6.179   6.676   5.477 -1.0200  1.0490 -0.6003
   92MOL    C9318475   6.046   6.728   5.447  0.1150 -0.5087  0.4944
   92MOL    O9418476   6.038   6.749   5.304 -0.1249  0.5396 -0.0073
   92MOL    C9518477   5.956   6.860   5.272 -0.5305  0.3315 -1.2885
   92MOL    H9618478   6.195   6.661   5.584  2.7537  0.1842 -1.1966
   92MOL    H9718479   6.172   6.575   5.435  1.3581  0.9769 -0.9367
   92MOL    H9818480   6.045   6.823   5.501  0.8304 -0.5430  0.5795
   92MOL    H9918481   6.010   6.951   5.302 -0.4009 -0.0787 -0.2525
   92MOL   H10018482   5.930   6.862   5.166  0.4382  1.4666 -1.5218
   92MOL   H10118483   5.856   6.863   5.314 -1.3994  0.7716 -3.3576
   92MOL   C10218484   5.936   6.635   5.501 -0.4087 -0.4000 -0.2467
   92MOL   C10318485   5.919   6.611   5.647 -0.4293 -0.4365  0.6067
   92MOL   O10418486   5.933   6.742   5.706 -0.0608 -0.0695  0.8654
   92MOL   C10518487   5.986   6.733   5.842 -0.0077  0.0474  1.0749
   92MOL   H10618488   5.950   6.539   5.451  2.6404 -0.1188 -0.0276
   92MOL   H10718489   5.843   6.683   5.470 -0.6729 -1.0358 -0.4495
   92MOL   H10818490   6.001   6.548   5.683  0.4293 -0.7155 -1.7145
   92MOL   H10918491   6.078   6.675   5.848 -0.7436 -1.3496 -0.7950
   92MOL   H11018492   6.003   6.831   5.887 -1.4903  0.8982 -0.1613
   92MOL   H11118493   5.927   6.667   5.905 -0.0568 -0.4539  0.5046
   92MOL   C11218494   5.777   6.558   5.682  0.5208  0.2637  0.1833
   92MOL   C11318495   5.759   6.411   5.634  0.1368 -0.0307  0.1990
   92MOL   O11418496   5.863   6.318   5.679 -0.5976  0.0979 -0.3027
   92MOL   C11518497   5.898   6.205   5.601  0.0672 -0.3635  0.2088
   92MOL   H11618498   5.695   6.617   5.642  1.5355  2.6439  1.4758
   92MOL   H11718499   5.758   6.557   5.790 -0.3322  0.5717  0.0354
   92MOL   H11818500   5.770   6.418   5.526  2.6426  4.1970  0.6360
   92MOL   H11918501   5.962   6.143   5.665  0.9093 -0.7952 -1.0220
   92MOL   H12018502   5.807   6.150   5.580  0.1216  0.3189 -1.9637
   92MOL   H12118503   5.961   6.241   5.519  0.1382  0.4398  0.6178
   92MOL   C12218504   5.624   6.346   5.667 -0.2347  0.2157 -0.9935
   92MOL   C12318505   5.493   6.428   5.655  0.0266  0.6343  0.4723
   92MOL   O12418506   5.486   6.482   5.525  0.3696  0.4437 -0.7632
   92MOL   C12518507   5.419   6.608   5.507  0.5419  0.2008  0.2461
   92MOL   H12618508   5.621   6.322   5.774 -0.0554  0.9891 -0.8161
   92MOL   H12718509   5.618   6.253   5.611  1.4726  0.1727 -1.1536
   92MOL   H12818510   5.497   6.508   5.728  0.8973  1.5609 -0.5606
   92MOL   H12918511   5.394   6.627   5.402  0.9939  1.1282  0.3004
   92MOL   H13018512   5.324   6.606   5.562  0.5720  0.3492  0.2997
   92MOL   H13118513   5.484   6.686   5.547  1.7265 -1.9421  2.6119
   92MOL   C13218514   5.353   6.359   5.669  0.0349  0.7797 -0.1582
   92MOL   C13318515   5.329   6.312   5.816 -0.6464  0.6846 -0.7323
   92MOL   O13418516   5.341   6.425   5.897  0.1335 -0.8913  0.2684
   92MOL   C13518517   5.418   6.403   6.014  0.5118 -0.0701 -0.4770
   92MOL   H13618518   5.352   6.283   5.591  1.6639  2.1154 -1.5451
   92MOL   H13718519   5.261   6.409   5.641 -0.0378  1.5025  1.3332
   92MOL   H13818520   5.408   6.241   5.838 -1.3534  0.6155  1.7015
   92MOL   H13918521   5.513   6.366   5.976  0.8679 -1.4137  1.6779
   92MOL   H14018522   5.425   6.500   6.063  0.6045 -1.0331  1.4844
   92MOL   H14118523   5.371   6.330   6.081  0.0480  0.7358  0.0867
   92MOL   C14218524   5.190   6.252   5.848  0.0509 -0.1796  0.5797
   92MOL   C14318525   5.173   6.111   5.786  0.0325 -0.0441 -0.5494
   92MOL   O14418526   5.275   6.024   5.845  0.0516  1.0276  0.5330
   92MOL   C14518527   5.379   5.976   5.754 -0.0598  0.1042 -0.2997
   92MOL   H14618528   5.119   6.327   5.816 -0.4532 -0.9092 -0.0378
   92MOL   H14718529   5.177   6.241   5.956  0.8410  1.2702  0.8249
   92MOL   H14818530   5.185   6.120   5.678  0.0363  1.9051 -0.4107
   92MOL   H14918531   5.354   5.900   5.680  0.6439  0.6921 -1.1559
   92MOL   H15018532   5.423   6.066   5.710 -0.2497  0.8150  0.9124
   92MOL   H15118533   5.460   5.936   5.816  2.0087  1.8573 -1.8122
   92MOL   C15218534   5.035   6.050   5.820 -0.0825  0.4094  0.1021
   92MOL   C15318535   4.920   6.094   5.721 -0.6224 -0.0327 -0.0112
   92MOL   O15418536   4.930   6.046   5.587 -0.2356 -0.7664  0.4308
   92MOL   C15518537   4.994   5.927   5.555  0.2002  0.4833  0.1906
   92MOL   H15618538   5.000   6.092   5.915  0.0644  1.2421 -0.2091
   92MOL   H15718539   5.038   5.943   5.844 -0.9262  0.1038 -1.0758
   92MOL   H15818540   4.927   6.203   5.718  2.0478 -0.2295 -2.3800
   92MOL   H15918541   5.096   5.915   5.592 -0.2924 -1.2890  1.0154
   92MOL   H16018542   4.935   5.843   5.590 -0.5037  1.0310  0.3370
   92MOL   H16118543   5.006   5.918   5.447  1.0702 -1.3671  0.4229
   92MOL   C16218544   4.785   6.053   5.777 -0.4682 -0.4915 -0.5128
   92MOL   C16318545   4.666   6.051   5.685 -0.0614 -0.0806 -0.1956
   92MOL   O16418546   4.547   6.034   5.760  0.7446 -0.0454  0.4747
   92MOL   C16518547   4.507   5.898   5.772  0.1376 -0.0308  0.0105
   92MOL   H16618548   4.760   6.114   5.863  3.0743 -1.5646  1.3918
   92MOL   H16718549   4.785   5.958   5.831 -0.5567 -0.1350  0.1268
   92MOL   H16818550   4.674   5.968   5.614  0.4225 -1.1538  1.0907
   92MOL   H16918551   4.424   5.888   5.841 -0.7805  1.7795 -0.8124
   92MOL   H17018552   4.468   5.848   5.684 -0.2663 -1.3232  0.9054
   92MOL   H17118553   4.583   5.826   5.804  0.1121 -0.0842 -0.0524
   92MOL   C17218554   4.650   6.185   5.609  0.8201 -0.0098  0.2085
   92MOL   C17318555   4.528   6.190   5.512 -0.2590  0.6234  0.1670
   92MOL   O17418556   4.538   6.316   5.427  0.4582  0.1510 -0.2700
   92MOL   C17518557   4.531   6.435   5.498  0.2391 -0.1264 -0.3316
   92MOL   H17618558   4.740   6.220   5.558  0.2368 -0.2707 -1.0046
   92MOL   H17718559   4.639   6.268   5.679  1.1426  1.8712 -1.9131
   92MOL   H17818560   4.441   6.190   5.577 -1.2472 -0.0359 -1.1325
   92MOL   H17918561   4.636   6.447   5.526 -0.0252 -1.8936  1.5885
   92MOL   H18018562   4.502   6.521   5.438 -3.1647 -0.5309  0.6168
   92MOL   H18118563   4.474   6.434   5.591  0.6814  1.3467 -0.0396
   92MOL   C18218564   4.523   6.075   5.416  0.7718  0.3179  0.1381
   92MOL   C18318565   4.428   6.086   5.293  1.0627 -0.2408  0.3451
   92MOL   O18418566   4.428   5.960   5.224  0.6191  0.0613  0.3733
   92MOL   C18518567   4.549   5.927   5.168 -0.5598  0.3369 -0.1309
   92MOL   H18618568   4.509   5.989   5.481 -2.1675  0.2835 -0.4709
   92MOL   H18718569   4.627   6.070   5.386 -0.0469  0.0544 -2.8289
   92MOL   H18818570   4.452   6.164   5.220  0.8702  0.8048  1.3763
   92MOL   H18918571   4.632   5.910   5.236 -2.1087 -0.6246  1.5631
   92MOL   H19018572   4.535   5.826   5.129  1.6671 -0.6402  1.5243
   92MOL   H19118573   4.582   5.987   5.083 -1.3670  2.3228  0.9262
   92MOL   C19218574   4.280   6.106   5.324 -0.5741 -0.0622 -0.6406
   92MOL   C19318575   4.193   6.138   5.193  0.0478 -0.0829  0.0649
   92MOL   O19418576   4.074   6.188   5.239  0.6812  0.6337 -0.6792
   92MOL   C19518577   3.980   6.219   5.137 -0.1885  1.0268  0.2214
   92MOL   H19618578   4.283   6.196   5.385 -0.5082 -0.4708 -0.0462
   92MOL   H19718579   4.248   6.014   5.372  1.4746 -0.6263 -0.3264
   92MOL   H19818580   4.174   6.042   5.145  0.3548 -0.5237  0.8360
   92MOL   H19918581   3.934   6.134   5.087  2.3268 -0.8352  1.0127
   92MOL   H20018582   3.896   6.277   5.176 -0.3030  0.3003  1.0661
   92MOL   H20118583   4.021   6.276   5.053 -0.1613 -0.0910 -0.5374
   92MOL   H20218584   4.248   6.211   5.133  0.1806 -1.3345 -1.3734
   93MOL     C118585   5.538   0.655   5.531  0.3018  0.1871  0.3421
   93MOL     C218586   5.389   0.629   5.505  0.0411  0.3942 -0.4520
   93MOL     O318587   5.369   0.565   5.382  0.8224  0.2276  0.0500
   93MOL     C418588   5.277   0.620   5.292  0.4021 -0.0848  0.2847
   93MOL     H518589   5.555   0.716   5.620 -3.9590 -1.5049  2.4603
   93MOL     H618590   5.603   0.569   5.547 -0.9289 -0.7487  0.4038
   93MOL     H718591   5.337   0.725   5.504  0.3545  0.5555 -1.4237
   93MOL     H818592   5.303   0.575   5.196  0.4528  0.8689 -0.1471
   93MOL     H918593   5.174   0.613   5.327  0.8228  1.4401  1.9206
   93MOL    H1018594   5.303   0.721   5.262  1.1264 -0.4160 -0.2113
   93MOL    H1118595   5.576   0.712   5.447 -3.1717  1.5016 -0.4325
   93MOL    C1218596   5.327   0.538   5.616  0.8021 -0.1519  0.0426
   93MOL    C1318597   5.308   0.598   5.757  0.7925 -0.6741  0.1890
   93MOL    O1418598   5.429   0.617   5.829 -0.0690  0.2326 -0.4257
   93MOL    C1518599   5.472   0.509   5.895  1.2844  0.3026 -1.2316
   93MOL    H1618600   5.367   0.437   5.625 -0.1469 -0.3118  2.8882
   93MOL    H1718601   5.225   0.517   5.586  0.2276  1.3867  0.8425
   93MOL    H1818602   5.242   0.524   5.803 -1.4178  1.4277  0.4856
   93MOL    H1918603   5.424   0.492   5.991  1.6033 -0.6730 -1.2465
   93MOL    H2018604   5.455   0.413   5.847  0.3406 -0.4447  0.5393
   93MOL    H2118605   5.581   0.520   5.900  1.1364  1.9055 -1.1064
   93MOL    C2218606   5.235   0.735   5.753  0.1278  0.1851  0.0424
   93MOL    C2318607   5.189   0.796   5.897  0.3124  1.0023 -0.8608
   93MOL    O2418608   5.148   0.926   5.876 -0.8564  0.2544  0.1974
   93MOL    C2518609   5.248   1.030   5.872 -0.9326  0.6541  0.9966
   93MOL    H2618610   5.151   0.749   5.684  0.4251  0.3254 -0.2907
   93MOL    H2718611   5.304   0.806   5.709  1.4540 -1.9138 -1.3793
   93MOL    H2818612   5.276   0.799   5.963 -0.7967 -0.2639  0.7022
   93MOL    H2918613   5.187   1.117   5.849 -0.9825  0.1047 -1.0117
   93MOL    H3018614   5.285   1.033   5.975  0.2520 -1.2861  0.6338
   93MOL    H3118615   5.330   1.026   5.800  0.0192 -0.3172  2.1115
   93MOL    C3218616   5.070   0.728   5.967  0.0350  0.4856 -0.2975
   93MOL    C3318617   5.108   0.617   6.066 -0.2773 -0.4077  0.8062
   93MOL    O3418618   5.151   0.665   6.196 -0.1318  0.4300 -0.1440
   93MOL    C3518619   5.274   0.613   6.242  0.0108  0.8694 -0.7186
   93MOL    H3618620   5.008   0.692   5.885 -1.1124 -0.4406  0.9313
   93MOL    H3718621   4.998   0.791   6.020 -0.3706 -0.1251 -0.1184
   93MOL    H3818622   5.192   0.561   6.024 -0.5150 -1.1940  1.3674
   93MOL    H3918623   5.275   0.505   6.257 -1.8561  1.0143  0.7064
   93MOL    H4018624   5.347   0.647   6.169 -0.3768  1.4966 -0.8195
   93MOL    H4118625   5.298   0.659   6.338  0.9508 -2.6276  0.7865
   93MOL    C4218626   4.988   0.522   6.084 -0.0853 -0.0784 -0.6526
   93MOL    C4318627   4.996   0.394   6.005  0.5989 -0.8933  0.9466
   93MOL    O4418628   5.022   0.431   5.869  0.4328 -0.6598  0.6043
   93MOL    C4518629   4.973   0.346   5.766  0.4935 -0.0257  0.8577
   93MOL    H4618630   4.898   0.570   6.045  2.1860  4.4100 -0.7603
   93MOL    H4718631   4.969   0.503   6.190 -0.3450 -0.2033 -0.7219
   93MOL    H4818632   4.901   0.340   6.004 -0.2642  0.5838 -0.4914
   93MOL    H4918633   4.996   0.241   5.780 -0.2481 -0.4502 -0.8842
   93MOL    H5018634   4.864   0.352   5.765  0.5458  1.0578  0.0892
   93MOL    H5118635   5.031   0.387   5.683  0.7769 -1.5915  0.2753
   93MOL    C5218636   5.095   0.286   6.056  0.5277  0.3338  0.5611
   93MOL    C5318637   5.083   0.252   6.199 -0.3676 -0.2666 -0.0040
   93MOL    O5418638   4.948   0.213   6.222 -0.6142 -0.4381 -0.0073
   93MOL    C5518639   4.888   0.249   6.350  0.7162  0.3940 -0.4237
   93MOL    H5618640   5.196   0.326   6.043  0.7559 -0.7527 -1.0919
   93MOL    H5718641   5.084   0.193   6.001  0.5805 -0.3356  1.6530
   93MOL    H5818642   5.111   0.339   6.258  0.9000 -1.5757  1.3564
   93MOL    H5918643   4.959   0.218   6.426  0.1999 -0.7419 -0.3928
   93MOL    H6018644   4.859   0.354   6.357  0.3036  0.3108 -0.8643
   93MOL    H6118645   4.795   0.194   6.366  0.0604  2.3004  2.7805
   93MOL    C6218646   5.167   0.139   6.256  0.5665 -0.2155  0.1439
   93MOL    C6318647   5.316   0.146   6.216  0.1947  0.3173 -0.4661
   93MOL    O6418648   5.380   0.267   6.256 -0.3569 -0.1295 -1.0307
   93MOL    C6518649   5.380   0.296   6.397 -0.6260 -0.4483 -0.2995
   93MOL    H6618650   5.129   0.047   6.211  0.2722  0.4605 -1.0163
   93MOL    H6718651   5.148   0.125   6.363  0.2700  2.4151  0.4633
   93MOL    H6818652   5.317   0.148   6.107 -0.7505 -0.8026 -0.5051
   93MOL    H6918653   5.441   0.386   6.406  0.7560 -1.3744 -0.3904
   93MOL    H7018654   5.279   0.333   6.418 -1.5629 -1.2498 -3.1251
   93MOL    H7118655   5.418   0.211   6.452  1.2357  1.2164  1.0333
   93MOL    C7218656   5.387   0.019   6.258 -0.2019  0.0463  0.4283
   93MOL    C7318657   5.533   0.006   6.224 -0.4466 -0.0128 -0.9145
   93MOL    O7418658   5.568   7.692   6.281  0.1771 -0.2088  0.4247
   93MOL    C7518659   5.708   7.702   6.326 -1.2991  0.4040  0.0279
   93MOL    H7618660   5.329   7.747   6.216  0.8079 -0.9217  0.8806
   93MOL    H7718661   5.385   0.011   6.367 -0.6444  1.3177  0.5205
   93MOL    H7818662   5.575   0.092   6.277 -2.6198  0.0172  0.8060
   93MOL    H7918663   5.730   7.771   6.408 -0.5939 -2.2362  2.1348
   93MOL    H8018664   5.730   7.599   6.353  2.3816  0.9944 -0.4512
   93MOL    H8118665   5.781   7.732   6.251 -1.7716  1.7073  0.0789
   93MOL    C8218666   5.577   0.010   6.077 -0.3063  0.0721 -0.2045
   93MOL    C8318667   5.604   0.154   6.028 -0.0406 -0.5061  0.6637
   93MOL    O8418668   5.718   0.208   6.096 -0.0078  0.4427 -0.1659
   93MOL    C8518669   5.709   0.341   6.134 -0.1280  0.1999 -0.0495
   93MOL    H8618670   5.512   7.768   6.007  0.2618  1.4852 -1.8229
   93MOL    H8718671   5.672   7.772   6.057  1.2009  3.2664 -1.0591
   93MOL    H8818672   5.518   0.219   6.040 -1.1389 -1.9187  0.6007
   93MOL    H8918673   5.803   0.375   6.178 -0.8486 -1.4883  2.8834
   93MOL    H9018674   5.693   0.416   6.056  1.4334 -0.6341 -1.2090
   93MOL    H9118675   5.629   0.359   6.205  0.6372  1.3431  0.5521
   93MOL    C9218676   5.650   0.174   5.881 -0.2784 -0.1169 -0.0768
   93MOL    C9318677   5.547   0.123   5.784 -0.3108 -0.3697  0.4169
   93MOL    O9418678   5.418   0.177   5.812 -0.3204 -0.2626  0.3786
   93MOL    C9518679   5.305   0.137   5.745 -0.3985 -0.7398  0.8949
   93MOL    H9618680   5.735   0.109   5.861 -0.6920 -0.7549  0.2063
   93MOL    H9718681   5.674   0.279   5.864 -1.7557  0.0653 -1.1755
   93MOL    H9818682   5.545   0.014   5.788 -3.4827 -0.4461 -1.4490
   93MOL    H9918683   5.217   0.183   5.789 -1.2270 -3.7159  2.4427
   93MOL   H10018684   5.320   0.171   5.643  0.1129 -1.8649  0.5872
   93MOL   H10118685   5.287   0.031   5.761 -0.1526 -0.7198  1.3150
   93MOL   C10218686   5.584   0.155   5.635 -0.3707 -0.2113 -0.8058
   93MOL   C10318687   5.720   0.133   5.579  0.5930 -0.6416 -0.7729
   93MOL   O10418688   5.714   0.051   5.459 -0.0996 -0.3530 -0.0142
   93MOL   C10518689   5.723   7.726   5.490  0.2155  0.4612  0.4438
   93MOL   H10618690   5.563   0.262   5.637  1.1093  0.0811 -0.4431
   93MOL   H10718691   5.506   0.109   5.574 -2.3614  1.6385  0.2400
   93MOL   H10818692   5.772   0.081   5.660  0.4001  0.3681  0.0077
   93MOL   H10918693   5.810   7.690   5.544  0.7069  1.1988  0.1498
   93MOL   H11018694   5.641   7.685   5.549  2.0342 -0.6843  2.2054
   93MOL   H11118695   5.720   7.667   5.398  1.2365  0.7856  0.1936
   93MOL   C11218696   5.803   0.259   5.547  0.7104 -0.0139  0.5693
   93MOL   C11318697   5.950   0.220   5.507 -0.1483  0.2980  0.4578
   93MOL   O11418698   5.990   0.263   5.378 -0.2109  0.0451  0.0092
   93MOL   C11518699   5.939   0.201   5.267 -0.7356 -0.3716  0.4520
   93MOL   H11618700   5.814   0.326   5.633  1.8349 -0.7888  1.0408
   93MOL   H11718701   5.751   0.304   5.462  1.5520 -0.9096 -0.4278
   93MOL   H11818702   5.974   0.114   5.509 -0.1452  0.3104  3.0166
   93MOL   H11918703   5.956   0.266   5.182 -0.4235  0.1738  0.9251
   93MOL   H12018704   5.983   0.101   5.259 -1.0201 -0.3945 -0.8003
   93MOL   H12118705   5.832   0.179   5.275 -0.9831  0.5117 -0.3540
   93MOL   C12218706   6.065   0.287   5.592  0.1190  0.0649  0.0069
   93MOL   C12318707   6.063   0.238   5.734  1.0641  0.2040 -0.1600
   93MOL   O12418708   6.069   0.092   5.735 -0.1677  0.0631  0.3298
   93MOL   C12518709   6.046   0.030   5.866 -0.3614  0.9234  0.1734
   93MOL   H12618710   6.056   0.395   5.580 -0.0995 -0.0886 -1.2356
   93MOL   H12718711   6.168   0.272   5.560  0.4497  0.2707  0.9612
   93MOL   H12818712   5.963   0.263   5.770  1.1208  1.0962 -0.5911
   93MOL   H12918713   5.956   7.780   5.858  0.4884 -0.3219 -0.0535
   93MOL   H13018714   6.130   7.777   5.893  0.3240  0.3462 -3.1930
   93MOL   H13118715   6.026   0.106   5.942  1.3683 -1.0006  2.6323
   93MOL   C13218716   6.171   0.303   5.825  0.4783  0.1031  0.0535
   93MOL   C13318717   6.162   0.457   5.846 -0.0919 -0.2949 -0.7995
   93MOL   O13418718   6.054   0.489   5.932  0.1604  0.2113  0.1272
   93MOL   C13518719   5.952   0.566   5.870 -0.2582  0.4300 -0.0933
   93MOL   H13618720   6.271   0.282   5.785  0.4690 -0.9005  0.5331
   93MOL   H13718721   6.185   0.260   5.924  1.6676 -0.9843 -0.5670
   93MOL   H13818722   6.153   0.507   5.750 -0.5822  0.7319 -0.2250
   93MOL   H13918723   5.912   0.524   5.778  0.7819 -1.4436  0.2639
   93MOL   H14018724   5.869   0.559   5.940 -0.6929 -1.6960 -0.7695
   93MOL   H14118725   5.974   0.672   5.862  0.2749  0.2999 -0.3889
   93MOL   C14218726   6.281   0.520   5.923 -0.0524 -0.0628  0.0562
   93MOL   C14318727   6.401   0.557   5.835  0.7457  0.0489 -0.5449
   93MOL   O14418728   6.363   0.647   5.729  0.2354 -0.1468  0.3307
   93MOL   C14518729   6.334   0.785   5.763  0.4191  0.4422  0.7628
   93MOL   H14618730   6.324   0.449   5.993  2.1380  1.0219 -0.1444
   93MOL   H14718731   6.249   0.608   5.980  0.5258  0.7017 -0.7722
   93MOL   H14818732   6.425   0.467   5.779 -0.0652  0.7201 -2.0325
   93MOL   H14918733   6.326   0.833   5.666  0.7809 -0.5191  0.2472
   93MOL   H15018734   6.243   0.790   5.822 -0.1335 -1.1623  0.0898
   93MOL   H15118735   6.412   0.831   5.824 -0.6352  0.9733  1.7158
   93MOL   C15218736   6.514   0.608   5.918 -0.0904 -0.0870  0.1344
   93MOL   C15318737   6.646   0.604   5.835 -0.1236 -0.6834 -1.1009
   93MOL   O15418738   6.673   0.731   5.783  0.1536 -0.0449 -0.1018
   93MOL   C15518739   6.726   0.727   5.654 -0.1206  0.6119  0.3385
   93MOL   H15618740   6.529   0.556   6.013  4.2835  0.2335 -0.2744
   93MOL   H15718741   6.514   0.710   5.957 -0.4492  0.0970 -0.3578
   93MOL   H15818742   6.626   0.526   5.761 -0.7222 -2.5482  0.9739
   93MOL   H15918743   6.660   0.674   5.585  1.1749  1.9237 -1.9640
   93MOL   H16018744   6.741   0.826   5.612 -0.5126  0.4676 -0.1645
   93MOL   H16118745   6.817   0.667   5.646 -2.2163 -2.5548 -1.0922
   93MOL   C16218746   6.767   0.545   5.913  0.2213  0.3054  0.2866
   93MOL   C16318747   6.792   0.392   5.885 -0.0876 -0.2592 -0.2657
   93MOL   O16418748   6.933   0.373   5.901  0.5962  0.2644 -0.4661
   93MOL   C16518749   7.012   0.373   5.785  0.6859  0.9580 -0.7142
   93MOL   H16618750   6.756   0.577   6.017  1.0934  0.2993  0.3765
   93MOL   H16718751   6.846   0.610   5.876 -1.5769  1.1662 -2.1993
   93MOL   H16818752   6.770   0.369   5.781  2.4487 -0.3264 -0.8169
   93MOL   H16918753   6.981   0.291   5.721  0.0659 -1.1851  2.2176
   93MOL   H17018754   7.008   0.466   5.728  1.5632 -0.2117 -2.7343
   93MOL   H17118755   7.120   0.364   5.798  0.2909 -3.8645  0.3587
   93MOL   C17218756   6.708   0.302   5.977  0.3803 -0.8002  0.4957
   93MOL   C17318757   6.709   0.146   5.952 -0.4544  0.2854  1.0404
   93MOL   O17418758   6.687   0.089   6.078 -0.4513  0.9096 -0.0333
   93MOL   C17518759   6.783   7.807   6.116 -0.2300  0.5388 -0.2200
   93MOL   H17618760   6.609   0.345   5.995  1.7686  2.0852  1.5184
   93MOL   H17718761   6.747   0.327   6.076  2.3272 -0.3592 -0.3608
   93MOL   H17818762   6.814   0.137   5.923  0.0927  0.9137  2.7404
   93MOL   H17918763   6.777   7.711   6.064  0.0797 -0.4165  1.4828
   93MOL   H18018764   6.884   0.037   6.112 -0.6193  1.4949 -0.4549
   93MOL   H18118765   6.753   7.777   6.216  0.3466  0.3061 -0.1149
   93MOL   C18218766   6.603   0.098   5.856  0.3256  0.6729 -0.4399
   93MOL   C18318767   6.622   7.758   5.804  0.5116  0.5354 -0.1684
   93MOL   O18418768   6.522   7.736   5.708  0.7662  0.2273 -0.6055
   93MOL   C18518769   6.397   7.710   5.758  0.2034  0.8952  0.6392
   93MOL   H18618770   6.601   0.152   5.761  0.0938  1.7653  0.1778
   93MOL   H18718771   6.505   0.107   5.901  0.6203 -1.5151  0.7169
   93MOL   H18818772   6.614   7.692   5.890  0.2173  0.5517 -0.1830
   93MOL   H18918773   6.350   7.776   5.831  0.1191  1.8176 -0.2341
   93MOL   H19018774   6.339   7.705   5.665  0.6007 -0.3648  0.4472
   93MOL   H19118775   6.406   7.607   5.790  3.4764  0.6353 -0.8725
   93MOL   C19218776   6.756   7.733   5.730 -0.6693 -0.1202  0.5095
   93MOL   C19318777   6.770   7.614   5.647  0.2737 -0.1621 -0.6924
   93MOL   O19418778   6.890   7.616   5.569 -0.1154  0.2740  0.2625
   93MOL   C19518779   6.872   7.552   5.444  0.8092 -0.0889 -0.1920
   93MOL   H19618780   6.834   7.736   5.806 -1.1572 -0.0723  1.0087
   93MOL   H19718781   6.770   0.015   5.674 -0.3230 -1.0270 -0.9372
   93MOL   H19818782   6.682   7.598   5.584 -0.5123 -1.2370  0.6584
   93MOL   H19918783   6.808   7.605   5.374  1.1262  0.0142 -0.4057
   93MOL   H20018784   6.958   7.533   5.380 -0.6945 -2.1248 -1.6711
   93MOL   H20118785   6.811   7.462   5.442 -1.1549  1.1940 -0.0352
   93MOL   H20218786   6.773   7.527   5.713 -1.8245 -0.1659 -0.5751
   94MOL     C118787   5.004   0.745   3.643 -0.0636 -0.0234 -0.0422
   94MOL     C218788   4.853   0.735   3.614  0.0296  0.2132  0.3671
   94MOL     O318789   4.793   0.612   3.646 -0.1713 -0.3852  0.0729
   94MOL     C418790   4.854   0.493   3.587 -0.0396 -0.3996  0.1436
   94MOL     H518791   5.050   0.668   3.581 -0.6193 -0.6888  0.3673
   94MOL     H618792   5.059   0.835   3.619  1.2931 -1.3966 -2.2835
   94MOL     H718793   4.837   0.753   3.508  1.2306  0.6445  0.2490
   94MOL     H818794   4.785   0.413   3.614  0.4731 -0.6947  0.5709
   94MOL     H918795   4.878   0.506   3.481 -1.2267 -3.6560 -0.6088
   94MOL    H1018796   4.943   0.455   3.636  0.3130  1.0380  0.6349
   94MOL    H1118797   5.032   0.716   3.744 -1.1548 -0.5866  0.1090
   94MOL    C1218798   4.780   0.839   3.694 -0.1218 -0.3462  0.4894
   94MOL    C1318799   4.626   0.838   3.674  0.0386 -0.5341  0.1859
   94MOL    O1418800   4.568   0.940   3.748  0.3995 -0.1779 -0.3349
   94MOL    C1518801   4.624   0.968   3.881  0.0262 -0.4080  0.0583
   94MOL    H1618802   4.831   0.935   3.686  3.5989 -2.2461  0.3866
   94MOL    H1718803   4.798   0.807   3.796 -1.2485 -1.5413  0.3207
   94MOL    H1818804   4.584   0.745   3.710  1.6980 -1.9441 -1.4096
   94MOL    H1918805   4.717   1.024   3.876 -1.8228  2.5973 -2.4032
   94MOL    H2018806   4.559   1.021   3.949 -1.1499 -0.9513 -0.6213
   94MOL    H2118807   4.642   0.878   3.940  1.1549 -1.6666 -2.1225
   94MOL    C2218808   4.574   0.856   3.531  0.6765  0.3546 -0.3189
   94MOL    C2318809   4.422   0.866   3.497  0.6924  1.1818 -0.6048
   94MOL    O2418810   4.414   0.897   3.360 -0.5160 -0.1290  0.1968
   94MOL    C2518811   4.305   0.962   3.312 -0.2740  0.1917  0.8920
   94MOL    H2618812   4.622   0.787   3.461  1.2117  1.1444 -0.7361
   94MOL    H2718813   4.624   0.948   3.504  0.6600 -0.0817 -1.8828
   94MOL    H2818814   4.379   0.941   3.564 -0.2851  0.3625 -0.2963
   94MOL    H2918815   4.217   0.898   3.317  0.0929 -0.3341  0.6705
   94MOL    H3018816   4.286   1.060   3.356 -0.0354  0.6429  0.0068
   94MOL    H3118817   4.327   0.973   3.206  0.5095 -3.2657  0.6508
   94MOL    C3218818   4.355   0.727   3.539 -0.4223 -0.0204 -0.8705
   94MOL    C3318819   4.207   0.728   3.583 -0.4387 -0.7058 -0.2712
   94MOL    O3418820   4.153   0.602   3.562  0.3199  0.4653 -0.3225
   94MOL    C3518821   4.110   0.581   3.426  0.0239  0.0373  0.1594
   94MOL    H3618822   4.404   0.671   3.619 -0.7165  1.3382  0.2896
   94MOL    H3718823   4.375   0.667   3.451 -0.7657 -2.5526  0.7119
   94MOL    H3818824   4.145   0.793   3.521 -3.5216 -1.8284  1.4918
   94MOL    H3918825   4.075   0.478   3.420  0.1606 -0.0666  1.1168
   94MOL    H4018826   4.019   0.634   3.398  0.2682  0.9570  1.1004
   94MOL    H4118827   4.188   0.599   3.352 -1.3167 -1.2545 -1.6138
   94MOL    C4218828   4.181   0.740   3.736 -0.8727  0.3652  1.4449
   94MOL    C4318829   4.235   0.856   3.819  0.1535 -0.3198 -0.3078
   94MOL    O4418830   4.136   0.949   3.880 -0.2109 -0.7594 -0.0104
   94MOL    C4518831   4.045   1.012   3.787 -0.7381  0.3061 -0.2670
   94MOL    H4618832   4.213   0.645   3.780 -0.6755 -0.1892  0.1084
   94MOL    H4718833   4.075   0.739   3.762 -1.4380 -0.7160 -0.8165
   94MOL    H4818834   4.303   0.921   3.763 -0.3484 -0.0529 -0.6017
   94MOL    H4918835   3.980   0.929   3.758  0.1933 -0.9386  1.1231
   94MOL    H5018836   3.989   1.089   3.839  0.3442 -0.5769  2.2366
   94MOL    H5118837   4.084   1.062   3.698 -2.6623  1.4652 -0.4888
   94MOL    C5218838   4.315   0.801   3.930 -0.1979 -0.4807 -0.5149
   94MOL    C5318839   4.254   0.700   4.035  0.4615  0.5490  0.3839
   94MOL    O5418840   4.341   0.664   4.137 -0.7049  0.3966 -0.0733
   94MOL    C5518841   4.427   0.551   4.116  0.2546  0.0135 -0.3425
   94MOL    H5618842   4.364   0.876   3.993  0.3481 -1.1459 -0.1374
   94MOL    H5718843   4.402   0.753   3.885  1.7549  2.6725 -0.2096
   94MOL    H5818844   4.244   0.608   3.978 -3.7318  0.4405  1.1091
   94MOL    H5918845   4.512   0.556   4.183  0.6997 -2.6566 -0.6536
   94MOL    H6018846   4.376   0.454   4.109  2.0689 -0.9224 -1.0696
   94MOL    H6118847   4.474   0.561   4.018  1.0206 -1.2692 -0.1162
   94MOL    C6218848   4.116   0.738   4.099 -0.3140 -0.1037  0.0840
   94MOL    C6318849   4.058   0.633   4.197  0.2445 -0.0122  0.6214
   94MOL    O6418850   3.924   0.668   4.247  0.2851  0.5227 -0.3044
   94MOL    C6518851   3.930   0.745   4.362  0.5004 -0.4151 -0.1079
   94MOL    H6618852   4.046   0.755   4.017  0.2306  0.6555 -0.2292
   94MOL    H6718853   4.126   0.837   4.141 -0.7740 -0.0091 -0.0260
   94MOL    H6818854   4.115   0.636   4.290  0.4114 -1.4774  0.5719
   94MOL    H6918855   3.827   0.781   4.362  0.3248 -0.9271 -0.3883
   94MOL    H7018856   3.932   0.690   4.456 -0.5570 -0.2605  0.0069
   94MOL    H7118857   4.001   0.827   4.349  0.0494 -0.1581 -0.9751
   94MOL    C7218858   4.060   0.488   4.140  0.2948  0.5543 -0.7328
   94MOL    C7318859   3.984   0.387   4.235 -0.1301 -0.6162  0.4805
   94MOL    O7418860   3.999   0.258   4.184  0.4975 -0.9223  0.3361
   94MOL    C7518861   3.933   0.215   4.070  0.3013  0.5855  0.3914
   94MOL    H7618862   4.152   0.444   4.102  0.8322 -0.4059  1.5480
   94MOL    H7718863   4.001   0.492   4.048 -0.7186 -0.4277 -0.1480
   94MOL    H7818864   3.879   0.415   4.229 -0.0824 -0.3254  1.0305
   94MOL    H7918865   3.951   0.271   3.978  0.0650  0.1568  0.0842
   94MOL    H8018866   3.962   0.113   4.046 -1.1176  0.2818 -0.0968
   94MOL    H8118867   3.825   0.208   4.083  0.2719  0.9954  0.3746
   94MOL    C8218868   4.026   0.370   4.377  0.5279 -0.0662  0.4263
   94MOL    C8318869   3.929   0.293   4.473  0.2223  0.4809 -0.0153
   94MOL    O8418870   3.992   0.298   4.604  0.1908  0.3949  0.0435
   94MOL    C8518871   4.095   0.201   4.626  0.2555 -0.2485 -0.2181
   94MOL    H8618872   4.058   0.466   4.417 -0.9203  0.9514 -0.8064
   94MOL    H8718873   4.119   0.315   4.367  0.0923 -0.5946 -0.8526
   94MOL    H8818874   3.909   0.189   4.448 -1.0865  0.0655  2.7065
   94MOL    H8918875   4.191   0.235   4.589  0.7173 -1.8672 -0.5435
   94MOL    H9018876   4.105   0.179   4.733  0.6632  0.8759 -0.0251
   94MOL    H9118877   4.063   0.109   4.577 -1.8342  0.4935 -0.3064
   94MOL    C9218878   3.795   0.368   4.489 -0.6452  0.1211  0.8308
   94MOL    C9318879   3.720   0.352   4.620  0.2038  0.5326  0.3541
   94MOL    O9418880   3.603   0.420   4.593  0.0963  0.3299 -0.1426
   94MOL    C9518881   3.551   0.481   4.707  0.0849 -0.2725 -0.1665
   94MOL    H9618882   3.734   0.338   4.404  1.9696 -1.0145 -0.7165
   94MOL    H9718883   3.808   0.475   4.476 -0.7764 -0.0932 -1.1898
   94MOL    H9818884   3.778   0.399   4.700 -0.1250  1.3272  0.1341
   94MOL    H9918885   3.566   0.587   4.690 -1.4024  0.0335  0.3583
   94MOL   H10018886   3.446   0.462   4.688  0.1441  0.8071 -1.6368
   94MOL   H10118887   3.590   0.446   4.803 -1.3770  0.8528  0.8565
   94MOL   C10218888   3.690   0.211   4.668  0.5048  0.3907  0.0204
   94MOL   C10318889   3.620   0.129   4.560  0.2097  0.2931  0.3756
   94MOL   O10418890   3.709   0.071   4.477 -0.0771  0.4661 -0.3988
   94MOL   C10518891   3.658   0.052   4.347  0.2083 -0.2785  0.0641
   94MOL   H10618892   3.630   0.214   4.759  0.4516  0.0253 -0.0028
   94MOL   H10718893   3.786   0.164   4.691  0.3013 -0.3942 -0.6827
   94MOL   H10818894   3.548   0.190   4.506 -1.1937 -0.6998  1.0854
   94MOL   H10918895   3.701   7.771   4.305 -0.7178 -1.2211  1.1514
   94MOL   H11018896   3.552   0.028   4.342 -0.1755  0.9023  2.0859
   94MOL   H11118897   3.672   0.142   4.287 -3.5565 -0.8699 -1.8662
   94MOL   C11218898   3.546   0.009   4.619 -0.2749  0.3436 -0.3372
   94MOL   C11318899   3.633   7.708   4.683  0.3630  0.8345 -0.9043
   94MOL   O11418900   3.668   7.750   4.815 -0.3542 -0.8622  0.2466
   94MOL   C11518901   3.805   7.739   4.854 -0.7967  0.2716  0.3033
   94MOL   H11618902   3.486   7.780   4.537 -0.5851 -0.7393  0.4072
   94MOL   H11718903   3.469   0.044   4.688  0.7937 -0.4405  1.3045
   94MOL   H11818904   3.725   7.696   4.626 -0.5458 -1.9305 -1.8879
   94MOL   H11918905   3.849   7.641   4.832  0.2636  1.2314 -2.0458
   94MOL   H12018906   3.876   7.804   4.803 -0.4685 -0.8145 -0.6568
   94MOL   H12118907   3.815   7.760   4.960 -1.8339 -2.3520  0.9631
   94MOL   C12218908   3.572   7.566   4.702 -0.3410 -0.2756  0.1169
   94MOL   C12318909   3.542   7.482   4.580 -0.1556  0.2506  0.2337
   94MOL   O12418910   3.433   7.538   4.519  0.0407  0.0154 -1.0145
   94MOL   C12518911   3.303   7.504   4.571  0.0177 -0.5420  0.2665
   94MOL   H12618912   3.488   7.565   4.771  1.2673  4.3749  2.3511
   94MOL   H12718913   3.640   7.513   4.769  0.6661 -0.3921 -0.9892
   94MOL   H12818914   3.521   7.383   4.619  0.8513 -0.1191 -0.1424
   94MOL   H12918915   3.305   7.525   4.678  1.1279  1.2192 -0.0838
   94MOL   H13018916   3.221   7.558   4.524  0.9432  0.7460  0.1009
   94MOL   H13118917   3.289   7.399   4.545 -1.1895 -0.2481 -0.2957
   94MOL   C13218918   3.661   7.463   4.482 -0.0827 -0.2470  0.5141
   94MOL   C13318919   3.638   7.363   4.368 -0.3124 -0.1974 -0.4449
   94MOL   O13418920   3.763   7.363   4.307 -0.1576 -0.1736 -0.3493
   94MOL   C13518921   3.754   7.386   4.167 -0.3804 -0.2697 -0.6605
   94MOL   H13618922   3.753   7.444   4.538 -0.0953  0.9604  0.9717
   94MOL   H13718923   3.686   7.562   4.443 -2.2895  0.1922  0.1598
   94MOL   H13818924   3.551   7.402   4.315 -1.5395  0.4487  1.9800
   94MOL   H13918925   3.844   7.350   4.117  0.1922  1.7545 -1.1261
   94MOL   H14018926   3.680   7.325   4.117 -0.7718 -1.4175  1.2691
   94MOL   H14118927   3.741   7.489   4.133 -0.1134 -0.7740 -2.3317
   94MOL   C14218928   3.609   7.211   4.415  0.0787  0.2182 -0.3714
   94MOL   C14318929   3.603   7.104   4.302 -0.4217 -0.8139 -0.2246
   94MOL   O14418930   3.726   7.031   4.304 -0.1874  0.0838  0.2948
   94MOL   C14518931   3.769   6.954   4.191 -0.5186  0.2274 -0.9128
   94MOL   H14618932   3.515   7.204   4.469 -0.0029 -0.5083 -0.5974
   94MOL   H14718933   3.690   7.179   4.480  0.9654  1.1422 -1.0071
   94MOL   H14818934   3.601   7.145   4.202 -2.0881 -1.6111 -0.5410
   94MOL   H14918935   3.843   6.875   4.206  0.3315  1.5042  2.0365
   94MOL   H15018936   3.685   6.891   4.164  0.1302 -0.4129 -1.4963
   94MOL   H15118937   3.811   7.026   4.121  2.2000 -0.3962 -0.0044
   94MOL   C15218938   3.481   7.009   4.316 -0.0523  0.0150  0.0806
   94MOL   C15318939   3.351   7.057   4.237  0.0332  0.6236  0.5068
   94MOL   O15418940   3.270   6.941   4.228 -0.5643  0.3723  0.2823
   94MOL   C15518941   3.271   6.879   4.104  0.0833 -0.1845  0.5818
   94MOL   H15618942   3.461   6.985   4.420  1.8022  1.1836  0.7336
   94MOL   H15718943   3.501   6.911   4.271 -2.0982 -0.5946  0.4601
   94MOL   H15818944   3.380   7.096   4.139 -1.3269 -0.5179 -0.3823
   94MOL   H15918945   3.222   6.782   4.096  0.9207 -0.4776 -1.3472
   94MOL   H16018946   3.215   6.944   4.036 -0.4977  0.2061  1.4227
   94MOL   H16118947   3.368   6.868   4.056 -0.1619 -0.1046  0.0604
   94MOL   C16218948   3.273   7.165   4.308  0.3536 -0.0278 -0.2628
   94MOL   C16318949   3.143   7.200   4.238 -0.0426 -0.4202  0.2910
   94MOL   O16418950   3.062   7.293   4.306 -0.4550  0.7303 -0.1204
   94MOL   C16518951   3.007   7.262   4.434 -0.1420  0.4617  0.0864
   94MOL   H16618952   3.337   7.250   4.332  0.8366 -0.4354 -0.1078
   94MOL   H16718953   3.245   7.126   4.406  1.1854 -0.6665 -0.2726
   94MOL   H16818954   3.086   7.108   4.224 -0.9768  0.5391 -2.7154
   94MOL   H16918955   3.090   7.257   4.505 -0.0205 -0.5811 -0.1186
   94MOL   H17018956   2.935   7.336   4.470 -1.4781 -0.6289 -0.3187
   94MOL   H17118957   2.958   7.165   4.443  0.1553  0.1805 -1.3393
   94MOL   C17218958   3.159   7.249   4.091  0.1842  0.2699 -0.0533
   94MOL   C17318959   3.022   7.277   4.017  0.3275  0.0084  0.4275
   94MOL   O17418960   3.048   7.342   3.891  0.4190  0.1592 -0.2408
   94MOL   C17518961   3.034   7.482   3.904 -0.8563  0.6888 -0.0555
   94MOL   H17618962   3.213   7.175   4.032 -1.0676 -0.4979 -0.2571
   94MOL   H17718963   3.222   7.337   4.081  1.7634 -0.9367 -0.8666
   94MOL   H17818964   2.971   7.349   4.082  0.2518 -0.9251  1.4136
   94MOL   H17918965   2.934   7.518   3.927 -1.4528  0.3103 -1.9627
   94MOL   H18018966   3.097   7.512   3.987  1.9786 -1.8347 -1.2169
   94MOL   H18118967   3.070   7.525   3.811  0.3725 -1.7401 -0.7336
   94MOL   C18218968   2.938   7.156   3.999  0.6391  0.7727 -0.4908
   94MOL   C18318969   2.817   7.153   3.895  0.3347  1.2606  0.6346
   94MOL   O18418970   2.811   7.021   3.843  0.5172  0.1788  0.0070
   94MOL   C18518971   2.873   6.995   3.717 -0.0421  0.3232 -0.3740
   94MOL   H18618972   2.909   7.121   4.098  1.1137 -1.2793 -1.0600
   94MOL   H18718973   3.000   7.071   3.969  1.3314  0.4743  1.7137
   94MOL   H18818974   2.833   7.225   3.815 -1.6278 -0.0877 -1.0325
   94MOL   H18918975   2.845   7.064   3.638 -1.7116 -0.8153 -0.8116
   94MOL   H19018976   2.981   7.000   3.727 -0.2295  0.5569  2.0210
   94MOL   H19118977   2.840   6.894   3.691 -2.5534  0.0889  3.2745
   94MOL   C19218978   2.685   7.168   3.961 -0.4243  0.0305 -0.2282
   94MOL   C19318979   2.656   7.317   3.995 -0.4305 -0.4055 -0.8327
   94MOL   O19418980   2.549   7.337   4.083 -0.2343 -0.3175 -0.0055
   94MOL   C19518981   2.582   7.404   4.203  0.0943 -0.1352 -0.3436
   94MOL   H19618982   2.695   7.114   4.055 -0.0015 -1.0304 -0.8712
   94MOL   H19718983   2.612   7.113   3.901 -1.6756  2.5318 -1.0621
   94MOL   H19818984   2.634   7.365   3.900 -0.0545 -1.3787 -1.4246
   94MOL   H19918985   2.602   7.511   4.193  0.3762 -0.1585 -0.0516
   94MOL   H20018986   2.498   7.384   4.270 -0.0837 -2.0211 -1.0976
   94MOL   H20118987   2.670   7.358   4.248  0.3838  1.5232  0.8243
   94MOL   H20218988   2.747   7.364   4.032 -0.9588  0.2213 -0.3281
   95MOL     C118989   4.945   4.506   2.164  0.0488 -0.4726  0.0392
   95MOL     C218990   4.873   4.533   2.293  0.3411 -0.6119 -0.1911
   95MOL     O318991   4.843   4.673   2.322 -0.0110  0.1211 -0.3829
   95MOL     C418992   4.954   4.755   2.348  0.2236 -0.3163 -0.5542
   95MOL     H518993   5.053   4.517   2.159  0.1997 -0.5929  2.5356
   95MOL     H618994   4.924   4.403   2.136 -2.2591 -0.5723  1.9490
   95MOL     H718995   4.928   4.484   2.373  0.1766 -1.5252 -0.6425
   95MOL     H818996   4.918   4.835   2.414  1.4970 -0.7577  0.7097
   95MOL     H918997   5.025   4.693   2.403  0.4681  0.9848  0.6169
   95MOL    H1018998   5.000   4.787   2.255  2.2282 -2.4986 -0.3618
   95MOL    H1118999   4.910   4.571   2.084  3.2173  1.4551  0.1426
   95MOL    C1219000   4.732   4.468   2.292  0.5800  0.1019 -0.1121
   95MOL    C1319001   4.725   4.313   2.295 -0.1687 -0.0307  0.8619
   95MOL    O1419002   4.824   4.255   2.371 -0.5649 -0.2327 -0.2149
   95MOL    C1519003   4.897   4.142   2.330 -0.9349  0.2801  0.7315
   95MOL    H1619004   4.679   4.488   2.199 -0.1231 -0.6723  0.1144
   95MOL    H1719005   4.686   4.508   2.383 -1.6898  1.4129 -1.7916
   95MOL    H1819006   4.740   4.276   2.193  0.8716  2.4783  0.0715
   95MOL    H1919007   4.970   4.119   2.408 -0.1920 -0.8515 -0.2793
   95MOL    H2019008   4.823   4.062   2.334 -2.3825  1.5706  0.1138
   95MOL    H2119009   4.946   4.161   2.235 -0.4326  0.3057  0.9950
   95MOL    C2219010   4.589   4.268   2.350 -0.2466  0.3539  0.6008
   95MOL    C2319011   4.466   4.295   2.254  0.3493  0.2003  0.3015
   95MOL    O2419012   4.498   4.259   2.120  0.2836  0.2501  0.3689
   95MOL    C2519013   4.431   4.326   2.025 -0.3100  0.3461 -0.3786
   95MOL    H2619014   4.566   4.323   2.441 -0.1552 -0.4970  1.1332
   95MOL    H2719015   4.606   4.164   2.378  2.2146 -0.1094 -2.3272
   95MOL    H2819016   4.453   4.404   2.256 -1.9455 -0.0478 -0.3561
   95MOL    H2919017   4.443   4.277   1.928 -0.3589 -0.6273  0.1098
   95MOL    H3019018   4.325   4.307   2.033  0.0031 -2.0825 -1.4856
   95MOL    H3119019   4.462   4.430   2.014 -0.6310  0.3612 -1.1459
   95MOL    C3219020   4.337   4.239   2.304 -0.1300  0.3768 -0.4234
   95MOL    C3319021   4.251   4.340   2.365  0.0648  0.3308  0.2353
   95MOL    O3419022   4.195   4.426   2.264  0.1222 -0.4624  0.2294
   95MOL    C3519023   4.165   4.563   2.305 -0.8800 -0.4780  0.6263
   95MOL    H3619024   4.363   4.176   2.389 -2.0393 -0.4084 -0.4093
   95MOL    H3719025   4.290   4.169   2.236 -2.0030 -0.8645  2.0842
   95MOL    H3819026   4.311   4.407   2.426  2.4086 -0.3442 -1.2564
   95MOL    H3919027   4.112   4.615   2.225 -1.8773  1.3804  2.4775
   95MOL    H4019028   4.119   4.577   2.402  0.0809 -0.8810  1.1489
   95MOL    H4119029   4.262   4.611   2.315 -2.4543  2.7115  1.1002
   95MOL    C4219030   4.136   4.296   2.452 -0.1032 -0.4009  0.8464
   95MOL    C4319031   4.181   4.228   2.585 -0.3837 -0.1829 -0.8425
   95MOL    O4419032   4.241   4.331   2.663 -0.1790  0.6116 -0.0673
   95MOL    C4519033   4.333   4.308   2.768 -0.4124  0.9422 -0.1812
   95MOL    H4619034   4.096   4.215   2.392  0.9500  0.6053 -1.2811
   95MOL    H4719035   4.052   4.366   2.451 -0.3861 -0.6669 -3.2440
   95MOL    H4819036   4.262   4.156   2.568  0.2234  0.2222  0.2882
   95MOL    H4919037   4.283   4.240   2.838  1.3353 -1.3631 -1.1171
   95MOL    H5019038   4.419   4.251   2.734 -2.0533 -1.5200 -0.3894
   95MOL    H5119039   4.356   4.401   2.821 -0.0196  1.0672 -0.5726
   95MOL    C5219040   4.062   4.161   2.667  0.2707 -0.1911  0.2211
   95MOL    C5319041   4.013   4.029   2.594 -0.0375 -0.8579 -0.2781
   95MOL    O5419042   4.134   3.953   2.583  0.1117 -0.4365 -0.2591
   95MOL    C5519043   4.137   3.851   2.483  0.7021 -0.0198  0.0376
   95MOL    H5619044   3.979   4.231   2.672 -0.5700 -1.0864 -0.7028
   95MOL    H5719045   4.081   4.142   2.773  0.1857  1.4157  0.5320
   95MOL    H5819046   3.972   4.058   2.498 -1.8296 -1.2989  0.3383
   95MOL    H5919047   4.084   3.763   2.517  0.4115 -0.2450 -0.9660
   95MOL    H6019048   4.094   3.883   2.388  2.1768 -2.7621 -1.6224
   95MOL    H6119049   4.232   3.801   2.461  0.0555 -2.1178  1.9000
   95MOL    C6219050   3.902   3.961   2.676 -0.3236 -0.1373 -0.2103
   95MOL    C6319051   3.825   3.837   2.617 -0.4398  0.4104  0.2181
   95MOL    O6419052   3.743   3.793   2.716  0.5055  0.1971  0.2110
   95MOL    C6519053   3.672   3.675   2.685  0.3312  0.0549 -0.3413
   95MOL    H6619054   3.837   4.036   2.720  1.7059  0.1999  2.3697
   95MOL    H6719055   3.957   3.926   2.763 -0.1584  2.2127  0.6573
   95MOL    H6819056   3.892   3.753   2.600 -2.5454 -1.1115 -0.8501
   95MOL    H6919057   3.734   3.597   2.643  0.1475 -0.1724 -0.1929
   95MOL    H7019058   3.625   3.625   2.771  0.2220 -1.4622 -1.2683
   95MOL    H7119059   3.595   3.693   2.610 -1.0773  0.5352  1.1809
   95MOL    C7219060   3.752   3.863   2.479 -0.2161 -0.6004 -0.1477
   95MOL    C7319061   3.641   3.977   2.471  0.3138  0.1846  0.2288
   95MOL    O7419062   3.623   4.019   2.337  0.0985 -1.0434 -0.0644
   95MOL    C7519063   3.709   4.125   2.296 -0.2483 -0.3668  0.0563
   95MOL    H7619064   3.706   3.768   2.449 -2.9130  0.5689  0.0981
   95MOL    H7719065   3.833   3.873   2.408  0.6831 -3.7405  0.3596
   95MOL    H7819066   3.679   4.060   2.531  0.8031  1.2199 -1.4906
   95MOL    H7919067   3.692   4.174   2.200  2.3296  0.5571  0.0498
   95MOL    H8019068   3.690   4.208   2.364  1.5141  0.1020 -0.0080
   95MOL    H8119069   3.811   4.088   2.296  0.2941  0.9851  3.4251
   95MOL    C8219070   3.516   3.939   2.545 -0.5227 -0.5430  1.1458
   95MOL    C8319071   3.408   4.045   2.559 -0.5817 -0.2198  0.3110
   95MOL    O8419072   3.454   4.170   2.613 -0.3283  0.5862 -0.1681
   95MOL    C8519073   3.486   4.175   2.751 -0.4805  0.3596 -0.0413
   95MOL    H8619074   3.549   3.914   2.646 -0.4146 -1.3896  0.9071
   95MOL    H8719075   3.471   3.851   2.500 -0.2564  0.1806 -0.5737
   95MOL    H8819076   3.336   3.998   2.625 -1.0249 -1.2185 -0.8752
   95MOL    H8919077   3.527   4.266   2.795 -1.0927  0.1710  0.9355
   95MOL    H9019078   3.396   4.162   2.811 -0.5163 -0.9122 -0.3504
   95MOL    H9119079   3.557   4.096   2.778 -0.0173 -0.4681 -3.4682
   95MOL    C9219080   3.342   4.086   2.423 -0.0005  0.4560 -0.2483
   95MOL    C9319081   3.204   4.150   2.442  0.4038  0.3540 -0.4720
   95MOL    O9419082   3.169   4.198   2.314  0.9255  0.3531  0.5787
   95MOL    C9519083   3.206   4.330   2.282 -0.0057 -0.4093 -0.6903
   95MOL    H9619084   3.333   4.001   2.357 -0.3486 -1.6316  2.3940
   95MOL    H9719085   3.409   4.158   2.377  1.2911 -0.7386 -0.2591
   95MOL    H9819086   3.200   4.225   2.521  2.9531 -0.6806  0.7087
   95MOL    H9919087   3.161   4.367   2.191 -0.0470 -2.2345 -1.4446
   95MOL   H10019088   3.182   4.406   2.356  0.9829  0.1590 -0.9403
   95MOL   H10119089   3.315   4.331   2.272  0.0345  1.2531 -0.1565
   95MOL   C10219090   3.104   4.037   2.479  0.1998 -0.6137  0.1944
   95MOL   C10319091   2.958   4.096   2.474 -0.0781 -0.1144 -0.5718
   95MOL   O10419092   2.869   3.991   2.517  0.1463  0.1353 -0.1024
   95MOL   C10519093   2.840   3.890   2.418 -0.1845 -0.3722  0.3955
   95MOL   H10619094   3.125   4.005   2.581 -0.7041  1.9762  1.2455
   95MOL   H10719095   3.123   3.951   2.414 -0.0296 -0.3173 -0.2712
   95MOL   H10819096   2.927   4.123   2.372  0.5218  2.2108 -0.1766
   95MOL   H10919097   2.777   3.921   2.335  2.1357 -0.7299 -1.5486
   95MOL   H11019098   2.934   3.850   2.379 -0.6136  0.1076 -1.1370
   95MOL   H11119099   2.784   3.814   2.472  0.0360 -0.1812  0.9026
   95MOL   C11219100   2.931   4.208   2.566  0.1944 -1.0682 -0.5926
   95MOL   C11319101   2.778   4.246   2.579  0.1090  0.2845 -0.0405
   95MOL   O11419102   2.765   4.328   2.691  0.2851 -0.2001  0.3060
   95MOL   C11519103   2.746   4.262   2.820  0.5657 -0.3063 -0.0512
   95MOL   H11619104   2.982   4.297   2.532 -1.5828 -0.2239 -1.1068
   95MOL   H11719105   2.971   4.179   2.664 -0.3010 -0.1052 -0.1013
   95MOL   H11819106   2.720   4.159   2.611 -2.2232  1.1086 -1.8725
   95MOL   H11919107   2.832   4.204   2.854  0.6965  0.2807  0.6164
   95MOL   H12019108   2.746   4.329   2.905 -0.4432 -1.3672  0.8026
   95MOL   H12119109   2.654   4.203   2.816 -0.1127  0.7332  0.2258
   95MOL   C12219110   2.709   4.285   2.450 -0.6810  0.7318 -0.4323
   95MOL   C12319111   2.554   4.304   2.462  0.8408 -0.6850  0.1556
   95MOL   O12419112   2.523   4.416   2.378 -0.4121  0.1311  0.0670
   95MOL   C12519113   2.507   4.541   2.448  0.2032 -0.4105  0.0734
   95MOL   H12619114   2.726   4.209   2.374 -1.4264  0.4147 -0.2856
   95MOL   H12719115   2.755   4.378   2.417  0.1367  0.0128 -1.3832
   95MOL   H12819116   2.523   4.316   2.566 -1.1552  2.1231 -0.7278
   95MOL   H12919117   2.431   4.520   2.524  0.3688  2.8143  1.1824
   95MOL   H13019118   2.591   4.583   2.501  0.1892  0.0691 -0.2843
   95MOL   H13119119   2.462   4.612   2.379  0.1518  1.0903  1.6416
   95MOL   C13219120   2.480   4.183   2.400  0.2838  0.6998  0.5791
   95MOL   C13319121   2.337   4.151   2.460  0.3945 -0.1186  0.2679
   95MOL   O13419122   2.251   4.264   2.437  0.2976  0.7858 -1.0022
   95MOL   C13519123   2.198   4.281   2.306 -0.8534 -0.4928  0.5519
   95MOL   H13619124   2.540   4.093   2.415 -2.1824 -1.0303  0.3319
   95MOL   H13719125   2.465   4.199   2.293 -0.1365 -0.1834  0.5058
   95MOL   H13819126   2.339   4.159   2.569  1.1371 -2.3259  0.4520
   95MOL   H13919127   2.116   4.210   2.296 -1.0475 -0.5489  2.2904
   95MOL   H14019128   2.150   4.377   2.293  0.8408  0.4140  0.8049
   95MOL   H14119129   2.270   4.269   2.225 -2.0559 -0.0993 -0.5876
   95MOL   C14219130   2.271   4.013   2.430 -0.0119 -1.1200  0.4880
   95MOL   C14319131   2.346   3.882   2.472  0.0676 -0.2272 -0.3055
   95MOL   O14419132   2.467   3.865   2.388 -0.2772 -0.8710  0.5404
   95MOL   C14519133   2.443   3.814   2.260  0.2667  0.0164 -0.2874
   95MOL   H14619134   2.249   4.019   2.323 -0.7569  0.9909  0.7272
   95MOL   H14719135   2.181   4.016   2.491 -1.0059  0.0571 -0.9934
   95MOL   H14819136   2.283   3.796   2.450  0.6427 -0.5470 -0.7228
   95MOL   H14919137   2.383   3.879   2.197  1.2710  0.4443 -0.8200
   95MOL   H15019138   2.542   3.819   2.214 -0.8414  1.5436 -2.6342
   95MOL   H15119139   2.411   3.710   2.264 -1.3808  0.5313  0.1506
   95MOL   C15219140   2.372   3.879   2.622 -0.1913  0.0105  0.0054
   95MOL   C15319141   2.441   3.748   2.682 -0.4658 -1.1607 -0.2886
   95MOL   O15419142   2.511   3.784   2.799  0.1584 -0.0265  0.2042
   95MOL   C15519143   2.622   3.858   2.777 -0.2136 -0.2511 -0.4518
   95MOL   H15619144   2.277   3.898   2.672  1.4994  0.7419  3.0856
   95MOL   H15719145   2.433   3.966   2.643  0.1698 -0.3959  0.6518
   95MOL   H15819146   2.518   3.715   2.613  1.5887 -0.8292  1.8030
   95MOL   H15919147   2.672   3.854   2.680  2.7572 -0.7635  1.0195
   95MOL   H16019148   2.608   3.964   2.802 -2.4898 -0.1042 -2.1939
   95MOL   H16119149   2.700   3.830   2.849 -0.0238  1.2738 -0.0371
   95MOL   C16219150   2.339   3.638   2.710 -0.0505  0.0634 -0.5608
   95MOL   C16319151   2.389   3.502   2.771  0.1918  0.0947  1.2912
   95MOL   O16419152   2.284   3.468   2.856 -0.1761 -0.1406 -0.0161
   95MOL   C16519153   2.315   3.343   2.926 -0.1966  0.4273  0.0158
   95MOL   H16619154   2.267   3.623   2.630 -1.3337  2.6621  0.0380
   95MOL   H16719155   2.269   3.684   2.780 -0.1100  0.1243 -0.6614
   95MOL   H16819156   2.485   3.513   2.821  0.7214  1.7526 -0.0284
   95MOL   H16919157   2.289   3.245   2.886  0.8926  0.0937  0.1198
   95MOL   H17019158   2.418   3.330   2.959 -0.2767  0.2764  0.2065
   95MOL   H17119159   2.263   3.346   3.022 -0.6579  0.6358 -0.2357
   95MOL   C17219160   2.409   3.395   2.660 -0.5484 -0.1020 -0.3765
   95MOL   C17319161   2.507   3.426   2.548  0.1943  0.3088 -0.1991
   95MOL   O17419162   2.636   3.423   2.608 -0.1850 -1.0274 -0.3293
   95MOL   C17519163   2.728   3.534   2.583  0.7348 -0.2100 -0.2390
   95MOL   H17619164   2.317   3.359   2.614  0.1014 -1.6050 -0.5546
   95MOL   H17719165   2.444   3.305   2.711  0.5961  0.4746 -0.1407
   95MOL   H17819166   2.474   3.520   2.504 -1.1096  0.2677  0.6441
   95MOL   H17919167   2.830   3.495   2.592  0.1028 -1.8200  0.1034
   95MOL   H18019168   2.723   3.576   2.482  1.2112  0.5848  0.0605
   95MOL   H18119169   2.697   3.610   2.655 -0.5393  0.6905 -1.7005
   95MOL   C18219170   2.516   3.324   2.435 -0.1624 -0.2770 -0.3513
   95MOL   C18319171   2.610   3.350   2.311  0.6093 -0.1735  0.1014
   95MOL   O18419172   2.574   3.247   2.218 -0.0177  0.5782  0.1661
   95MOL   C18519173   2.679   3.168   2.164 -0.0851 -0.3247  0.6157
   95MOL   H18619174   2.416   3.297   2.401 -0.5286  0.1286  0.3863
   95MOL   H18719175   2.559   3.232   2.474 -1.1652 -1.5697 -2.2010
   95MOL   H18819176   2.714   3.357   2.341  0.0496  0.1257  2.0815
   95MOL   H18919177   2.639   3.102   2.087  1.6883  0.1460 -0.7658
   95MOL   H19019178   2.766   3.229   2.135  1.4004 -2.7889 -0.2496
   95MOL   H19119179   2.732   3.108   2.237 -0.8947 -0.5132  1.0534
   95MOL   C19219180   2.562   3.483   2.243  0.1232  0.3175  0.1254
   95MOL   C19319181   2.634   3.511   2.113  0.0019 -0.8749  0.1767
   95MOL   O19419182   2.764   3.575   2.130 -0.1630 -0.4594  0.2462
   95MOL   C19519183   2.806   3.626   2.000 -0.1142  0.1707 -0.6469
   95MOL   H19619184   2.577   3.567   2.312  1.9474  0.6140 -0.6096
   95MOL   H19719185   2.455   3.478   2.222  0.2485  2.0183 -1.0094
   95MOL   H19819186   2.567   3.571   2.053  0.4032  0.5943  1.1747
   95MOL   H19919187   2.914   3.640   1.991 -0.3264  1.6994 -1.0023
   95MOL   H20019188   2.789   3.540   1.937  4.5947 -0.6785 -0.9124
   95MOL   H20119189   2.753   3.710   1.956  0.0951  0.5604 -0.1671
   95MOL   H20219190   2.640   3.416   2.060 -0.9677  0.5740 -2.6081
   96MOL     C119191   5.535   7.752   0.860  1.0093 -0.5434  0.3561
   96MOL     C219192   5.632   7.786   0.745 -1.0918 -0.0384 -0.3107
   96MOL     O319193   5.745   0.046   0.803 -0.3312  0.1011  0.0869
   96MOL     C419194   5.765   0.169   0.733  0.8534 -0.2145  0.6064
   96MOL     H519195   5.581   7.691   0.938 -1.5278 -1.7443  0.9793
   96MOL     H619196   5.505   0.034   0.909 -0.7942 -0.5990 -0.6283
   96MOL     H719197   5.563   0.028   0.679 -0.8441 -1.0571 -1.3907
   96MOL     H819198   5.829   0.233   0.794 -0.8689 -0.0953  2.3296
   96MOL     H919199   5.801   0.159   0.631  0.0641  1.0738  0.1914
   96MOL    H1019200   5.676   0.231   0.728  1.8572  1.1340 -1.2450
   96MOL    H1119201   5.441   7.698   0.844  0.2405  0.7274  0.5407
   96MOL    C1219202   5.673   7.658   0.669  0.1626  0.8672  0.1384
   96MOL    C1319203   5.727   7.677   0.533  0.1994 -0.7649  0.1558
   96MOL    O1419204   5.774   7.555   0.477  0.5411 -0.1150  0.2474
   96MOL    C1519205   5.913   7.519   0.508 -0.5761 -0.2098 -0.7113
   96MOL    H1619206   5.593   7.589   0.641  1.7682 -0.8776 -0.2620
   96MOL    H1719207   5.744   7.608   0.734  1.4077  0.2529 -1.6642
   96MOL    H1819208   5.805   7.753   0.535  1.2312 -1.6032 -3.6893
   96MOL    H1919209   5.979   7.601   0.480 -1.2529 -0.6961 -3.9500
   96MOL    H2019210   5.922   7.511   0.617  0.0531  4.4345 -0.3246
   96MOL    H2119211   5.929   7.421   0.465 -1.7718 -0.2143 -1.1712
   96MOL    C2219212   5.627   7.740   0.428  0.5815  0.0729 -0.5718
   96MOL    C2319213   5.704   7.787   0.304  0.4135 -0.1349  0.0252
   96MOL    O2419214   5.619   7.786   0.198  0.4513  0.8815 -0.4363
   96MOL    C2519215   5.618   7.663   0.128 -0.2034 -0.3448 -0.3005
   96MOL    H2619216   5.572   0.016   0.466  2.1154  2.3384 -3.3518
   96MOL    H2719217   5.557   7.664   0.394 -1.2229  1.0082  0.9774
   96MOL    H2819218   5.785   7.717   0.283  1.9509  1.8787 -0.9270
   96MOL    H2919219   5.716   7.624   0.104 -0.0364 -0.5265  0.6667
   96MOL    H3019220   5.561   7.582   0.174  1.4525 -1.3805 -0.0702
   96MOL    H3119221   5.562   7.690   0.038  0.1258  0.8040 -0.1715
   96MOL    C3219222   5.744   0.129   0.311 -0.0449  0.1738 -0.3937
   96MOL    C3319223   5.857   0.177   0.216  0.5840  0.2876  0.0869
   96MOL    O3419224   5.841   0.318   0.202  0.0347 -0.0882 -0.0530
   96MOL    C3519225   5.770   0.356   0.086  0.1966 -0.1470 -0.0982
   96MOL    H3619226   5.768   0.167   0.410 -3.6055  0.3254  0.4863
   96MOL    H3719227   5.652   0.186   0.302 -0.0638  0.4482  1.4141
   96MOL    H3819228   5.858   0.137   0.115  2.6348 -0.4085  0.3406
   96MOL    H3919229   5.687   0.286   0.081  0.3656 -0.5253  1.8437
   96MOL    H4019230   5.732   0.458   0.089 -1.5785 -0.7652 -1.2170
   96MOL    H4119231   5.822   0.344   7.802  0.0715  1.6627 -0.4105
   96MOL    C4219232   5.999   0.166   0.282 -0.5707  0.6477  0.2002
   96MOL    C4319233   6.048   0.019   0.308  0.0387 -0.0147 -0.0211
   96MOL    O4419234   6.033   7.770   0.181 -0.0560  0.1806 -0.1108
   96MOL    C4519235   6.031   7.630   0.185  1.2847 -0.0400  0.7989
   96MOL    H4619236   5.996   0.222   0.375 -2.1786  0.6018  0.1862
   96MOL    H4719237   6.073   0.225   0.229 -0.6376  0.1828 -0.4225
   96MOL    H4819238   5.978   7.791   0.383 -0.0781  3.6340  1.8877
   96MOL    H4919239   6.044   7.593   0.084  0.8553 -0.6506  0.9662
   96MOL    H5019240   6.117   7.584   0.235 -0.1386 -2.5376  1.0161
   96MOL    H5119241   5.935   7.591   0.216  2.1395 -1.9101  1.1882
   96MOL    C5219242   6.184   0.003   0.370 -0.1692  0.2734  0.0135
   96MOL    C5319243   6.212   0.030   0.519  0.2359 -0.4665 -0.2383
   96MOL    O5419244   6.154   7.740   0.595 -0.1617  0.3140  0.2473
   96MOL    C5519245   6.075   7.780   0.709  0.4058 -0.5399 -0.3221
   96MOL    H5619246   6.252   0.073   0.320  0.9567 -0.0299  1.0987
   96MOL    H5719247   6.221   7.714   0.348 -0.9643  0.3472 -1.7947
   96MOL    H5819248   6.172   0.130   0.541  1.2911  0.1587 -1.0942
   96MOL    H5919249   6.055   7.696   0.776 -2.7405 -0.7043 -1.4275
   96MOL    H6019250   6.132   0.034   0.776 -0.9703 -1.0442  1.3736
   96MOL    H6119251   5.981   0.019   0.686  0.6249 -0.2450 -0.5736
   96MOL    C6219252   6.364   0.019   0.541  0.0949  0.3037 -0.1328
   96MOL    C6319253   6.416   0.074   0.672  0.4432  0.4516  0.1707
   96MOL    O6419254   6.547   0.035   0.688  0.2377  0.4692 -0.5862
   96MOL    C6519255   6.565   7.714   0.739 -0.2162  0.2086 -0.4868
   96MOL    H6619256   6.416   0.085   0.472 -1.2986 -0.1673 -1.6720
   96MOL    H6719257   6.384   7.723   0.527 -2.7959 -0.1262 -1.3053
   96MOL    H6819258   6.360   0.030   0.755  0.8166  2.1440  1.3546
   96MOL    H6919259   6.667   7.686   0.715 -0.4501 -0.5800 -0.5891
   96MOL    H7019260   6.558   7.719   0.848  0.3865 -1.1206 -0.3809
   96MOL    H7119261   6.490   7.650   0.693 -1.0503 -0.1133  1.2885
   96MOL    C7219262   6.418   0.227   0.676  1.3174 -0.2497 -0.4148
   96MOL    C7319263   6.378   0.285   0.816  0.1607 -0.2154  0.3069
   96MOL    O7419264   6.495   0.352   0.868  0.3366  0.1718 -0.1981
   96MOL    C7519265   6.617   0.273   0.909 -0.8262 -0.2427  0.0958
   96MOL    H7619266   6.336   0.263   0.612  1.1972  2.0368  0.9600
   96MOL    H7719267   6.511   0.274   0.644 -0.3460  3.9712  0.4772
   96MOL    H7819268   6.346   0.211   0.889 -0.3775 -0.6281 -0.3449
   96MOL    H7919269   6.669   0.248   0.817 -2.4658 -2.6003 -0.2199
   96MOL    H8019270   6.688   0.324   0.974 -1.0288 -0.9496  0.8758
   96MOL    H8119271   6.601   0.173   0.949 -1.2183 -0.9980 -1.8986
   96MOL    C8219272   6.284   0.404   0.808  0.0705  0.0286  0.1247
   96MOL    C8319273   6.223   0.452   0.939 -0.1797  0.6295  1.1204
   96MOL    O8419274   6.189   0.347   1.021 -0.4302 -0.2300 -0.2519
   96MOL    C8519275   6.071   0.277   0.982 -0.2594  0.3540  0.4058
   96MOL    H8619276   6.206   0.360   0.746 -0.1279  0.4865  0.0411
   96MOL    H8719277   6.320   0.488   0.750 -1.2215  0.7531  0.3336
   96MOL    H8819278   6.135   0.507   0.908  0.3097  2.1919  2.4386
   96MOL    H8919279   6.085   0.250   0.878 -0.1274 -0.2765  0.5818
   96MOL    H9019280   6.064   0.195   1.054  1.0204  1.1392  1.4511
   96MOL    H9119281   5.989   0.349   0.985 -0.6305 -0.0811  0.8103
   96MOL    C9219282   6.310   0.553   1.019 -0.0790  0.7672 -0.5074
   96MOL    C9319283   6.308   0.701   0.967  0.0000  0.2349 -0.1895
   96MOL    O9419284   6.382   0.713   0.841 -0.4735  0.0847  0.2717
   96MOL    C9519285   6.523   0.709   0.855 -0.9058  0.1298 -0.8021
   96MOL    H9619286   6.412   0.519   1.034 -0.4094  0.8464  2.1837
   96MOL    H9719287   6.259   0.572   1.114  2.3119  0.1711  0.9255
   96MOL    H9819288   6.360   0.759   1.043  1.7544 -1.4125 -0.0823
   96MOL    H9919289   6.553   0.713   0.959  0.4528  1.4162 -1.2263
   96MOL   H10019290   6.560   0.617   0.812 -0.4272  0.3373 -0.8326
   96MOL   H10119291   6.566   0.793   0.800 -1.0227 -0.6105 -2.0471
   96MOL   C10219292   6.167   0.771   0.921  0.5528 -0.0112 -0.3804
   96MOL   C10319293   6.067   0.785   1.033 -0.3500 -0.1477  0.4096
   96MOL   O10419294   6.124   0.881   1.121 -0.7334 -0.6433  0.0647
   96MOL   C10519295   6.106   0.845   1.260  0.8618  0.0542 -0.1521
   96MOL   H10619296   6.124   0.711   0.841 -1.7117  2.4267 -1.0776
   96MOL   H10719297   6.194   0.869   0.882  1.4753 -0.5925 -1.2284
   96MOL   H10819298   6.049   0.693   1.089 -1.5364  0.6454  1.3692
   96MOL   H10919299   6.174   0.760   1.269 -1.8172 -1.9056  2.9669
   96MOL   H11019300   6.140   0.928   1.323  1.0980 -0.5042  0.4669
   96MOL   H11119301   6.004   0.817   1.287  0.0467  1.6436 -1.4738
   96MOL   C11219302   5.933   0.849   0.973  0.3442 -0.1797 -0.4029
   96MOL   C11319303   5.815   0.877   1.074 -0.5370 -0.1949  0.1354
   96MOL   O11419304   5.712   0.957   1.015  0.2724  0.5848  0.1444
   96MOL   C11519305   5.737   1.100   1.002  0.5388 -0.2945 -0.0989
   96MOL   H11619306   5.898   0.804   0.880 -1.8048  0.2730  0.1410
   96MOL   H11719307   5.963   0.946   0.933  0.2646  0.4529  1.0191
   96MOL   H11819308   5.844   0.938   1.160  0.2766  1.2194 -1.1117
   96MOL   H11919309   5.657   1.155   0.953  0.6256  0.2573  0.3747
   96MOL   H12019310   5.743   1.148   1.100  0.6701 -1.0409  0.2617
   96MOL   H12119311   5.826   1.125   0.945  0.4345 -1.1735 -0.6559
   96MOL   C12219312   5.745   0.752   1.129 -0.5948  0.4103  0.1144
   96MOL   C12319313   5.696   0.636   1.032 -0.0539  0.2289 -0.0302
   96MOL   O12419314   5.816   0.585   0.979  0.0908 -0.6416  0.3825
   96MOL   C12519315   5.793   0.527   0.850 -0.5786  0.3713  0.0164
   96MOL   H12619316   5.656   0.788   1.179  0.5659  1.5450  1.3903
   96MOL   H12719317   5.801   0.716   1.215 -2.2033  0.6822  1.3050
   96MOL   H12819318   5.627   0.681   0.961 -0.2399 -0.4179 -0.2631
   96MOL   H12919319   5.750   0.605   0.786 -1.7544 -0.6538 -0.4519
   96MOL   H13019320   5.886   0.482   0.814 -0.6148 -0.4077  0.8847
   96MOL   H13119321   5.714   0.453   0.857 -0.4099  0.3259  1.4701
   96MOL   C13219322   5.632   0.524   1.116  0.1038  0.4601  0.5609
   96MOL   C13319323   5.507   0.548   1.198 -0.3817 -0.3925  0.2769
   96MOL   O13419324   5.405   0.588   1.108  0.3582 -0.6675 -0.4028
   96MOL   C13519325   5.323   0.699   1.156  0.0196  0.2898 -0.0909
   96MOL   H13619326   5.707   0.483   1.182  1.6685  2.2278 -0.0633
   96MOL   H13719327   5.603   0.434   1.062 -0.8843  1.3052 -0.3348
   96MOL   H13819328   5.537   0.621   1.274 -0.3564  0.8153 -0.8821
   96MOL   H13919329   5.229   0.706   1.100 -1.3822 -0.1667  2.1282
   96MOL   H14019330   5.289   0.687   1.259 -0.6635 -2.0657 -0.5519
   96MOL   H14119331   5.372   0.796   1.165  0.7739 -0.0546 -0.4899
   96MOL   C14219332   5.453   0.421   1.269 -0.8366 -0.6558 -0.2063
   96MOL   C14319333   5.552   0.358   1.368 -0.2118 -0.0531  0.3648
   96MOL   O14419334   5.591   0.457   1.466 -0.3300 -0.0722 -0.1208
   96MOL   C14519335   5.510   0.478   1.582  0.1133 -0.5178  0.1571
   96MOL   H14619336   5.415   0.353   1.192 -2.1540 -1.2743  0.9765
   96MOL   H14719337   5.359   0.450   1.315 -0.3526  1.1309 -0.2813
   96MOL   H14819338   5.638   0.329   1.309 -0.5384  0.6653 -0.4732
   96MOL   H14919339   5.533   0.575   1.626 -0.8683 -0.9292  1.6106
   96MOL   H15019340   5.402   0.478   1.566  0.3496 -0.3384 -1.5236
   96MOL   H15119341   5.530   0.400   1.655  0.7023 -2.0657 -1.6011
   96MOL   C15219342   5.489   0.226   1.425 -0.2242  0.2416 -0.2046
   96MOL   C15319343   5.582   0.133   1.510 -0.1162 -0.2397  0.3898
   96MOL   O15419344   5.569   0.162   1.648  0.2384  0.2747 -0.7304
   96MOL   C15519345   5.701   0.154   1.709  0.3239  0.1570  0.6763
   96MOL   H15619346   5.448   0.168   1.342 -1.3758  0.1222  0.4391
   96MOL   H15719347   5.399   0.247   1.483 -0.2344  0.4731 -0.3027
   96MOL   H15819348   5.683   0.141   1.471 -0.3144 -0.4276 -0.1624
   96MOL   H15919349   5.687   0.161   1.817  1.2396  0.6380  0.7752
   96MOL   H16019350   5.743   0.053   1.700 -1.7060 -0.6539  0.1036
   96MOL   H16119351   5.775   0.227   1.675  2.5169 -2.1345  0.3247
   96MOL   C16219352   5.538   7.793   1.494 -0.1025  0.1506 -0.3559
   96MOL   C16319353   5.555   7.728   1.358  0.0182  0.7626  0.7479
   96MOL   O16419354   5.689   7.729   1.318  0.6892  0.2751  0.9796
   96MOL   C16519355   5.716   0.013   1.215  0.0782  0.5233  0.0395
   96MOL   H16619356   5.432   7.787   1.518 -0.8837  1.6681 -3.2796
   96MOL   H16719357   5.589   7.737   1.573 -2.7110 -2.3815 -0.3991
   96MOL   H16819358   5.499   7.781   1.282  0.8501 -0.0426 -0.4443
   96MOL   H16919359   5.824   0.008   1.197 -0.1762 -2.4292 -0.9123
   96MOL   H17019360   5.662   7.800   1.123  1.5276  0.7200 -0.8839
   96MOL   H17119361   5.683   0.112   1.248 -1.5917  0.0407 -0.1836
   96MOL   C17219362   5.497   7.584   1.340 -0.6595 -0.3326 -0.6463
   96MOL   C17319363   5.361   7.561   1.393 -0.5716  0.9439  0.4653
   96MOL   O17419364   5.269   7.631   1.323 -0.3346 -0.4414 -0.7492
   96MOL   C17519365   5.190   7.710   1.406 -0.1660  0.6340 -0.4959
   96MOL   H17619366   5.563   7.511   1.388 -1.7676 -0.7028  0.3336
   96MOL   H17719367   5.502   7.543   1.239  1.7248 -0.0252 -0.6865
   96MOL   H17819368   5.369   7.584   1.500  1.8807 -1.0554  0.7704
   96MOL   H17919369   5.131   7.783   1.351  1.4502  1.2747 -1.3927
   96MOL   H18019370   5.108   7.669   1.466 -1.4240  3.5424 -0.1107
   96MOL   H18119371   5.245   7.775   1.474  0.0454  1.6330 -1.6237
   96MOL   C18219372   5.327   7.407   1.379 -0.0240  0.6012  0.1038
   96MOL   C18319373   5.192   7.360   1.445  0.6498  0.6957 -0.6888
   96MOL   O18419374   5.131   7.267   1.349  0.1346 -0.4458 -0.6787
   96MOL   C18519375   4.993   7.270   1.379  0.3854 -0.0233 -0.3022
   96MOL   H18619376   5.405   7.347   1.426 -0.8487  0.7427  1.7090
   96MOL   H18719377   5.331   7.370   1.277 -1.2431  1.3174 -0.2159
   96MOL   H18819378   5.137   7.453   1.437  0.4424  0.5286 -1.2595
   96MOL   H18919379   4.950   7.369   1.386 -0.1441 -0.0844 -2.2146
   96MOL   H19019380   4.933   7.233   1.295  1.0294  1.8523 -1.6314
   96MOL   H19119381   4.974   7.199   1.459  2.8045 -2.3253 -1.6583
   96MOL   C19219382   5.190   7.311   1.591 -0.0828 -0.7763 -0.1028
   96MOL   C19319383   5.248   7.401   1.697 -0.1211  0.4547 -0.0879
   96MOL   O19419384   5.167   7.517   1.719 -0.3518  0.3067  0.2144
   96MOL   C19519385   5.211   7.594   1.832 -0.7545 -0.5058 -0.4613
   96MOL   H19619386   5.239   7.214   1.601 -2.2836 -1.9588 -0.4041
   96MOL   H19719387   5.086   7.297   1.622  0.2739  0.5568  1.7736
   96MOL   H19819388   5.350   7.430   1.672 -0.3796  0.9187 -0.6133
   96MOL   H19919389   5.197   7.547   1.930  0.9825 -0.0362  0.0189
   96MOL   H20019390   5.319   7.600   1.829 -0.7754  1.9422  1.7301
   96MOL   H20119391   5.165   7.693   1.837  0.0966 -0.1242 -0.2332
   96MOL   H20219392   5.260   7.340   1.787  0.6556 -1.1775 -1.2814
   97MOL     C119393   5.017   5.567   0.872 -0.1048 -0.2067  0.2367
   97MOL     C219394   4.884   5.587   0.941 -0.5528  0.1308  0.1980
   97MOL     O319395   4.791   5.617   0.839  0.2230 -0.5942  0.6110
   97MOL     C419396   4.778   5.765   0.828 -0.7202 -0.2548  0.3592
   97MOL     H519397   5.011   5.488   0.796  0.9111  0.5252 -0.6122
   97MOL     H619398   5.042   5.663   0.827  0.5426 -0.4792  0.0044
   97MOL     H719399   4.900   5.658   1.022 -1.0342 -0.1874  0.5758
   97MOL     H819400   4.877   5.811   0.836 -0.6483  0.0305 -1.8994
   97MOL     H919401   4.729   5.807   0.740 -0.5227  0.6866  0.6929
   97MOL    H1019402   4.717   5.796   0.913  0.4207  2.9909  0.0486
   97MOL    H1119403   5.096   5.539   0.941 -0.6091  2.6404  2.0103
   97MOL    C1219404   4.835   5.454   1.000  0.1263  0.9434 -0.0902
   97MOL    C1319405   4.687   5.467   1.045 -0.0233  1.5401 -0.6146
   97MOL    O1419406   4.656   5.342   1.113  0.1093  0.0247  0.1454
   97MOL    C1519407   4.604   5.242   1.028  0.5891 -0.7080  0.4250
   97MOL    H1619408   4.893   5.434   1.090  1.7762 -3.2654 -1.9650
   97MOL    H1719409   4.847   5.370   0.932 -0.6695 -1.4939  2.6881
   97MOL    H1819410   4.617   5.495   0.966  0.5207 -1.0934 -2.0857
   97MOL    H1919411   4.562   5.172   1.099 -2.3707  0.2443 -0.3231
   97MOL    H2019412   4.520   5.285   0.974  0.9251  1.5071  1.6038
   97MOL    H2119413   4.676   5.188   0.967  0.5546 -0.3081  0.0267
   97MOL    C2219414   4.674   5.577   1.150  0.4385 -0.4033 -1.5061
   97MOL    C2319415   4.539   5.590   1.226 -0.3468 -0.2860 -0.4005
   97MOL    O2419416   4.557   5.715   1.301  0.1403 -0.2955  0.3566
   97MOL    C2519417   4.623   5.693   1.422  0.7766  0.0629 -0.2364
   97MOL    H2619418   4.691   5.675   1.106 -2.9188  2.1286  2.4212
   97MOL    H2719419   4.755   5.557   1.220 -0.1630  2.5020  0.1140
   97MOL    H2819420   4.518   5.502   1.286 -1.6108 -0.6013 -1.2802
   97MOL    H2919421   4.714   5.632   1.423 -1.0442 -2.8243  3.3399
   97MOL    H3019422   4.644   5.782   1.481 -2.8551  1.2456 -0.6276
   97MOL    H3119423   4.559   5.643   1.495  1.0905  1.8356  1.2837
   97MOL    C3219424   4.419   5.602   1.135 -0.1601 -0.5682  0.6780
   97MOL    C3319425   4.287   5.641   1.212 -0.2537  0.5376 -0.0158
   97MOL    O3419426   4.183   5.666   1.112 -0.0464  0.1425 -0.0916
   97MOL    C3519427   4.195   5.790   1.050 -0.6981 -0.1599  0.1162
   97MOL    H3619428   4.403   5.502   1.093 -0.1199 -1.2708  2.3285
   97MOL    H3719429   4.444   5.685   1.069  1.2498 -0.8224  0.8804
   97MOL    H3819430   4.315   5.734   1.261  2.4340  0.3179 -1.0413
   97MOL    H3919431   4.186   5.872   1.121 -0.7768  0.1694 -0.2728
   97MOL    H4019432   4.293   5.794   1.003 -0.3524  1.6232  0.9797
   97MOL    H4119433   4.119   5.795   0.972 -0.1368 -0.8917 -0.4841
   97MOL    C4219434   4.240   5.539   1.318 -0.0788  0.5897 -0.9474
   97MOL    C4319435   4.238   5.391   1.280 -0.2453  0.3369  0.5052
   97MOL    O4419436   4.250   5.319   1.405 -0.0765 -0.2502  0.9285
   97MOL    C4519437   4.374   5.267   1.439  1.3145 -0.3379 -0.4375
   97MOL    H4619438   4.144   5.573   1.357 -0.0331 -0.5811  0.2318
   97MOL    H4719439   4.313   5.550   1.398 -1.8360  0.2204  0.7597
   97MOL    H4819440   4.326   5.363   1.223 -0.4422  1.1574 -0.2171
   97MOL    H4919441   4.403   5.190   1.368  1.7790 -0.4427 -0.1365
   97MOL    H5019442   4.444   5.350   1.440  1.5322 -0.5094 -1.4176
   97MOL    H5119443   4.372   5.220   1.538  0.9692 -1.2092 -0.8443
   97MOL    C5219444   4.109   5.344   1.212  0.1854 -0.3054 -0.7590
   97MOL    C5319445   4.087   5.192   1.199  0.1114 -0.0746 -0.6677
   97MOL    O5419446   3.961   5.152   1.137  0.0241  0.2874 -0.3895
   97MOL    C5519447   3.892   5.047   1.209  0.3987  0.1105 -0.0692
   97MOL    H5619448   4.112   5.391   1.114  2.1919  2.6507  0.6377
   97MOL    H5719449   4.021   5.386   1.260 -0.0333  0.0613 -1.4739
   97MOL    H5819450   4.095   5.148   1.299  0.2676  0.1919 -0.5622
   97MOL    H5919451   3.943   4.952   1.195  1.6424  1.0335 -2.1263
   97MOL    H6019452   3.868   5.086   1.308  0.1381  0.7849 -0.3923
   97MOL    H6119453   3.798   5.036   1.155  1.1106  1.8967 -1.7529
   97MOL    C6219454   4.194   5.134   1.095  0.6959 -0.1478 -0.1958
   97MOL    C6319455   4.230   4.980   1.098 -0.1149 -0.2458 -0.2891
   97MOL    O6419456   4.312   4.947   0.983  0.2038  0.0604 -0.4884
   97MOL    C6519457   4.240   4.919   0.861 -0.1140  0.1841  0.6365
   97MOL    H6619458   4.288   5.189   1.099  1.4964 -1.5219  0.3643
   97MOL    H6719459   4.168   5.152   0.991  0.4836 -0.3070 -0.1710
   97MOL    H6819460   4.146   4.910   1.096 -1.2711  1.0239  2.0284
   97MOL    H6919461   4.158   4.985   0.836 -2.2153 -2.4364  0.3672
   97MOL    H7019462   4.311   4.905   0.779 -1.4466  0.2540 -0.5379
   97MOL    H7119463   4.177   4.831   0.872  1.1182 -0.4509  3.2244
   97MOL    C7219464   4.320   4.940   1.217  0.0012  0.7096  0.1403
   97MOL    C7319465   4.339   4.788   1.230 -0.4949 -0.0481  0.3631
   97MOL    O7419466   4.408   4.766   1.354 -0.0956 -0.7828 -0.0791
   97MOL    C7519467   4.550   4.789   1.354  0.3210  0.1842 -0.1369
   97MOL    H7619468   4.275   4.976   1.310  2.8571 -0.1365  1.8874
   97MOL    H7719469   4.410   5.001   1.209  1.6099 -1.7848 -1.2636
   97MOL    H7819470   4.396   4.765   1.140 -0.8388 -1.3092  0.4650
   97MOL    H7919471   4.584   4.889   1.326  0.3803  0.4414  0.8463
   97MOL    H8019472   4.586   4.767   1.454  4.0309 -3.0526 -2.0629
   97MOL    H8119473   4.584   4.714   1.283  0.3124 -1.7522  1.8591
   97MOL    C8219474   4.207   4.710   1.232 -0.3554  0.3642 -0.0471
   97MOL    C8319475   4.221   4.564   1.277  0.0757 -0.5208  0.1499
   97MOL    O8419476   4.089   4.522   1.297 -0.4500  0.2314 -0.1513
   97MOL    C8519477   4.068   4.466   1.428  0.3195 -0.1648  0.1907
   97MOL    H8619478   4.164   4.696   1.133 -1.8792 -1.8963  0.8856
   97MOL    H8719479   4.137   4.768   1.291 -0.6046  0.4990 -0.4737
   97MOL    H8819480   4.264   4.581   1.376  0.2130 -3.0049  0.5435
   97MOL    H8919481   4.145   4.392   1.449  2.4336  0.7857 -3.6463
   97MOL    H9019482   4.063   4.551   1.496 -0.2504  0.1956 -0.2945
   97MOL    H9119483   3.966   4.428   1.427  0.1260  0.3020  1.4376
   97MOL    C9219484   4.309   4.474   1.187 -0.3601  0.0791 -0.7594
   97MOL    C9319485   4.264   4.446   1.041  1.0229  0.2501  0.1435
   97MOL    O9419486   4.381   4.435   0.965 -0.0547  0.0235 -0.4163
   97MOL    C9519487   4.414   4.559   0.900  0.4488  0.2893 -0.0621
   97MOL    H9619488   4.310   4.383   1.248  0.1427 -1.0154 -2.3774
   97MOL    H9719489   4.412   4.511   1.187 -0.2643 -0.1876 -1.1908
   97MOL    H9819490   4.201   4.529   1.009 -0.6096 -0.6926  0.8139
   97MOL    H9919491   4.431   4.640   0.971 -0.7277  0.5467 -0.0706
   97MOL   H10019492   4.497   4.545   0.830 -1.2409  0.7704 -2.1950
   97MOL   H10119493   4.333   4.588   0.835 -0.1440 -0.4972  0.3135
   97MOL   C10219494   4.179   4.313   1.050  0.3313 -0.0108 -0.6407
   97MOL   C10319495   4.147   4.265   0.911 -0.1641 -0.6467 -0.0771
   97MOL   O10419496   4.086   4.140   0.903 -0.1058 -0.5214  0.2558
   97MOL   C10519497   4.165   4.029   0.947  0.3516 -0.6317  0.4828
   97MOL   H10619498   4.082   4.325   1.099  1.1126  0.7612  0.7255
   97MOL   H10719499   4.228   4.241   1.114 -0.7091 -0.9432 -0.8697
   97MOL   H10819500   4.247   4.251   0.870  0.0676 -1.9753  0.8935
   97MOL   H10919501   4.196   3.968   0.863 -2.5163  1.7997 -2.4842
   97MOL   H11019502   4.262   4.053   0.992  0.1363  2.3012 -0.4928
   97MOL   H11119503   4.115   3.972   1.025 -1.4616  1.5343  0.9512
   97MOL   C11219504   4.054   4.357   0.834  0.6477  0.0774  0.0817
   97MOL   C11319505   4.072   4.347   0.681  0.2753 -0.1995 -0.0564
   97MOL   O11419506   3.957   4.397   0.611 -0.0598  0.4796 -0.1657
   97MOL   C11519507   3.851   4.303   0.588  0.0746 -0.0667  0.4950
   97MOL   H11619508   4.055   4.461   0.868  0.8136 -0.0008  0.3187
   97MOL   H11719509   3.952   4.325   0.859  0.7144 -0.9021 -0.9175
   97MOL   H11819510   4.104   4.245   0.656  1.5861  0.1620  0.0807
   97MOL   H11919511   3.870   4.240   0.501 -2.1876 -1.3497  0.8593
   97MOL   H12019512   3.852   4.230   0.669  0.1985 -0.4739  0.1335
   97MOL   H12119513   3.751   4.343   0.573 -1.0496 -2.4395  1.2922
   97MOL   C12219514   4.187   4.433   0.630  0.3374  0.0394  0.7610
   97MOL   C12319515   4.228   4.409   0.489 -0.4585 -0.3806  0.1525
   97MOL   O12419516   4.321   4.509   0.453 -0.1654  0.0068 -0.1053
   97MOL   C12519517   4.324   4.546   0.315  0.6492 -0.4598 -0.8770
   97MOL   H12619518   4.280   4.445   0.685 -1.2251  1.9017  3.1549
   97MOL   H12719519   4.144   4.533   0.641  1.5257  0.5004  1.2358
   97MOL   H12819520   4.139   4.422   0.428 -1.2228 -2.7589  0.7419
   97MOL   H12919521   4.229   4.591   0.288 -0.4974 -1.8836  0.7079
   97MOL   H13019522   4.392   4.631   0.305  0.6219 -0.3423 -0.0923
   97MOL   H13119523   4.371   4.477   0.245  0.6256 -0.1233 -1.2252
   97MOL   C13219524   4.286   4.272   0.456 -0.3607  0.1442  0.2123
   97MOL   C13319525   4.200   4.192   0.364  0.4479 -0.0317 -0.2088
   97MOL   O13419526   4.205   4.250   0.230  0.2659 -0.2878  0.0802
   97MOL   C13519527   4.110   4.203   0.136 -0.1818  0.2672 -1.4524
   97MOL   H13619528   4.332   4.226   0.544  0.1430 -0.7035 -0.4991
   97MOL   H13719529   4.384   4.286   0.412  0.1419 -1.9804  0.6120
   97MOL   H13819530   4.095   4.192   0.394  0.7296 -3.4814  1.0514
   97MOL   H13919531   4.110   4.278   0.057 -0.5206  2.1908  0.3077
   97MOL   H14019532   4.128   4.102   0.099  1.0907 -0.1854  0.3203
   97MOL   H14119533   4.008   4.202   0.176  0.0603 -0.9238 -0.8459
   97MOL   C14219534   4.239   4.039   0.361  0.2123  0.3808  0.3915
   97MOL   C14319535   4.223   3.965   0.493 -0.3797  0.1605 -0.3697
   97MOL   O14419536   4.081   3.940   0.496 -0.2654  0.1936 -0.2049
   97MOL   C14519537   4.028   3.925   0.629  0.4222 -0.1902  0.2855
   97MOL   H14619538   4.339   4.034   0.319  0.5964 -0.4638  1.3977
   97MOL   H14719539   4.170   3.998   0.287 -0.5520 -0.2672  1.4468
   97MOL   H14819540   4.250   4.024   0.580 -1.1772  0.3331 -0.2361
   97MOL   H14919541   4.006   4.025   0.664 -2.4580 -0.9468  0.7970
   97MOL   H15019542   3.931   3.874   0.623 -0.4463  1.5160 -0.7258
   97MOL   H15119543   4.092   3.872   0.700  1.7253  1.2991  0.2389
   97MOL   C15219544   4.305   3.830   0.495 -0.3236  0.7226 -0.2352
   97MOL   C15319545   4.449   3.859   0.547 -0.2960  0.2525  0.2651
   97MOL   O15419546   4.447   3.902   0.679  0.5296 -0.1244  0.5109
   97MOL   C15519547   4.560   3.977   0.722 -0.0126  0.0410  0.3161
   97MOL   H15619548   4.302   3.786   0.396 -2.1759 -0.4843  0.3150
   97MOL   H15719549   4.258   3.760   0.564  0.9732 -0.7815 -0.8582
   97MOL   H15819550   4.485   3.942   0.486  1.1919  0.0919  0.9055
   97MOL   H15919551   4.641   3.917   0.762  0.6233 -1.1201 -2.5597
   97MOL   H16019552   4.590   4.041   0.639  1.6486  0.4794  1.2493
   97MOL   H16119553   4.542   4.044   0.806  1.0388  0.4835  0.1915
   97MOL   C16219554   4.543   3.737   0.538 -0.1441 -0.5898 -0.4172
   97MOL   C16319555   4.685   3.753   0.488  0.1657  0.3005 -0.5311
   97MOL   O16419556   4.765   3.658   0.556  0.5209  0.0005  0.0250
   97MOL   C16519557   4.897   3.694   0.561 -0.0028 -1.1627 -0.2594
   97MOL   H16619558   4.485   3.661   0.485  2.0810 -1.6925 -1.3376
   97MOL   H16719559   4.544   3.687   0.635  0.4079 -0.7876 -0.5231
   97MOL   H16819560   4.696   3.856   0.522 -3.1509  0.9776 -1.3512
   97MOL   H16919561   4.968   3.613   0.547  1.7393  0.4341 -0.8115
   97MOL   H17019562   4.925   3.781   0.501 -1.5251 -0.1652  0.4428
   97MOL   H17119563   4.915   3.740   0.658  0.1406  0.5152 -1.0711
   97MOL   C17219564   4.708   3.749   0.332 -0.1204  0.0965  0.3935
   97MOL   C17319565   4.678   3.877   0.255  0.3923  0.6956 -0.9915
   97MOL   O17419566   4.536   3.914   0.239  0.3678  0.2875  0.1396
   97MOL   C17519567   4.471   3.836   0.133 -0.5113  0.4299 -0.2048
   97MOL   H17619568   4.655   3.675   0.271  0.7289  0.3682 -0.6913
   97MOL   H17719569   4.811   3.724   0.305 -0.6805 -2.0526  0.0986
   97MOL   H17819570   4.722   3.854   0.157 -0.1952 -1.2480 -0.8155
   97MOL   H17919571   4.448   3.736   0.169 -0.6682  0.2285 -0.8558
   97MOL   H18019572   4.380   3.893   0.115 -0.7871  0.9587  2.5309
   97MOL   H18119573   4.526   3.826   0.040 -2.7753  1.6124 -1.7258
   97MOL   C18219574   4.743   4.010   0.302  0.0926  0.2070  0.0368
   97MOL   C18319575   4.744   4.131   0.203  0.0981 -1.3385 -0.5051
   97MOL   O18419576   4.789   4.252   0.268  0.4544 -0.6167  0.5339
   97MOL   C18519577   4.695   4.324   0.340  0.0752 -0.0938 -0.2230
   97MOL   H18619578   4.845   3.990   0.335  0.4300  1.3450 -0.3019
   97MOL   H18719579   4.694   4.049   0.391  0.4697 -1.4855  1.0069
   97MOL   H18819580   4.640   4.151   0.177  0.3471 -0.8999 -1.1832
   97MOL   H18919581   4.653   4.272   0.426  2.0122 -0.8666  0.2809
   97MOL   H19019582   4.749   4.412   0.376 -0.6618  0.0851  0.4590
   97MOL   H19119583   4.618   4.369   0.278 -0.0102  1.8887  1.2774
   97MOL   C19219584   4.829   4.117   0.071 -0.2487  0.1751 -0.4978
   97MOL   C19319585   4.985   4.125   0.083 -0.7033 -0.6580 -0.3157
   97MOL   O19419586   5.050   4.081   7.770 -0.1869 -0.2210  0.0591
   97MOL   C19519587   5.107   4.185   7.694 -0.2421 -0.0147  0.5122
   97MOL   H19619588   4.792   4.202   0.013 -0.6755  1.7330  1.9798
   97MOL   H19719589   4.811   4.026   0.015  0.1442 -0.7833  0.9124
   97MOL   H19819590   5.015   4.056   0.162 -0.0081  1.0007  0.9096
   97MOL   H19919591   5.133   4.160   7.591  0.2249 -0.6526  0.7813
   97MOL   H20019592   5.042   4.270   7.672 -0.6069 -0.5792 -0.6196
   97MOL   H20119593   5.194   4.231   7.742 -0.0808 -0.8609  1.0249
   97MOL   H20219594   5.018   4.223   0.118  1.0096 -0.0523 -3.4359
   98MOL     C119595   3.856   4.845   7.000  0.3745 -0.2058 -0.7758
   98MOL     C219596   3.999   4.822   7.041 -0.4182  0.3864 -0.0354
   98MOL     O319597   4.078   4.814   6.925  0.3065  0.7569 -0.1039
   98MOL     C419598   4.122   4.681   6.901 -0.1660  0.1078 -0.0296
   98MOL     H519599   3.846   4.924   6.925 -1.6019 -0.2084 -0.5318
   98MOL     H619600   3.802   4.760   6.959 -0.2202  0.2666 -0.9853
   98MOL     H719601   3.990   4.731   7.101 -1.7301  0.4180 -0.1649
   98MOL     H819602   4.190   4.638   6.974  0.8818 -0.3546 -1.2766
   98MOL     H919603   4.032   4.619   6.909 -0.0305 -0.2146 -0.9920
   98MOL    H1019604   4.171   4.663   6.806  1.7795 -0.9286  1.1377
   98MOL    H1119605   3.810   4.877   7.093 -2.1652 -3.9169 -0.6400
   98MOL    C1219606   4.055   4.936   7.125 -0.1076 -0.3495  0.1236
   98MOL    C1319607   4.186   4.903   7.198  0.0776 -0.0719  0.3934
   98MOL    O1419608   4.241   5.018   7.265  0.8292  0.7669  0.2169
   98MOL    C1519609   4.281   5.126   7.184 -0.0908 -0.0264  0.4335
   98MOL    H1619610   3.982   4.958   7.204  0.5931 -1.3271  1.0662
   98MOL    H1719611   4.051   5.028   7.067  0.2011 -0.2508  0.2570
   98MOL    H1819612   4.257   4.880   7.119 -1.2177 -0.8039 -0.5937
   98MOL    H1919613   4.380   5.115   7.141  0.4264  2.2165  0.9370
   98MOL    H2019614   4.224   5.142   7.093  2.0559 -0.2631 -0.9950
   98MOL    H2119615   4.277   5.218   7.243 -1.4285  0.5974 -0.6212
   98MOL    C2219616   4.181   4.785   7.303 -0.3413 -0.1240  0.0696
   98MOL    C2319617   4.313   4.704   7.316  0.5942  0.0845 -0.3126
   98MOL    O2419618   4.330   4.639   7.185 -0.1818 -0.0488  0.1713
   98MOL    C2519619   4.420   4.529   7.179 -0.2717  0.0432 -1.2869
   98MOL    H2619620   4.104   4.717   7.267 -0.7638 -0.1076  0.9194
   98MOL    H2719621   4.146   4.820   7.400 -0.1239 -1.5771  0.6815
   98MOL    H2819622   4.284   4.633   7.393  0.3366 -0.2588 -0.7182
   98MOL    H2919623   4.427   4.483   7.081  2.5263 -1.9572 -0.2074
   98MOL    H3019624   4.524   4.552   7.206 -0.4841  0.1837 -0.5780
   98MOL    H3119625   4.395   4.447   7.246 -1.5028  0.9026 -0.6811
   98MOL    C3219626   4.440   4.776   7.361  0.1436 -0.3914 -0.2371
   98MOL    C3319627   4.411   4.845   7.496  0.1296  0.1996 -0.2853
   98MOL    O3419628   4.380   4.743   7.586  0.1103 -0.5032  0.6726
   98MOL    C3519629   4.277   4.763   7.678  0.1781 -0.4247 -0.0582
   98MOL    H3619630   4.455   4.849   7.282  0.8526 -0.0107  0.2432
   98MOL    H3719631   4.529   4.712   7.356  0.9517  0.5514  1.8751
   98MOL    H3819632   4.330   4.918   7.489  0.0810  0.2014  0.2163
   98MOL    H3919633   4.248   4.867   7.690  2.8931  0.8032 -3.2759
   98MOL    H4019634   4.188   4.715   7.639  0.7771 -0.5504 -1.2953
   98MOL    H4119635   4.297   4.715   7.774  1.4528 -0.8777 -0.5336
   98MOL    C4219636   4.541   4.911   7.547  0.0309 -0.0796  0.6937
   98MOL    C4319637   4.556   5.059   7.519  0.0587  0.7457 -0.0886
   98MOL    O4419638   4.547   5.079   7.380 -0.0524 -0.1822  0.7724
   98MOL    C4519639   4.625   5.194   7.331  0.1358  0.2785 -0.3152
   98MOL    H4619640   4.631   4.866   7.507  2.0471  3.2413  1.3351
   98MOL    H4719641   4.547   4.889   7.654  1.5424  3.1272  1.3315
   98MOL    H4819642   4.652   5.102   7.549  0.8791  0.7371 -2.5153
   98MOL    H4919643   4.596   5.284   7.385 -2.2574 -0.1643 -0.7952
   98MOL    H5019644   4.731   5.181   7.351 -0.0121  0.3679  0.5670
   98MOL    H5119645   4.618   5.203   7.223  0.8654  3.7133 -0.1300
   98MOL    C5219646   4.435   5.145   7.584 -0.2249  0.0910  0.7552
   98MOL    C5319647   4.438   5.131   7.737  0.4769 -0.1713 -0.3334
   98MOL    O5419648   4.542   5.216   7.787  0.4458  0.3204 -0.5786
   98MOL    C5519649   4.653   5.154   0.032  0.0020 -0.1834  0.4314
   98MOL    H5619650   4.340   5.120   7.538 -0.3100 -0.2955  1.1389
   98MOL    H5719651   4.458   5.248   7.557 -1.6461  0.2143 -0.0055
   98MOL    H5819652   4.451   5.029   7.774 -2.8836 -0.4855  0.0852
   98MOL    H5919653   4.619   5.093   0.116  0.1670  0.8656  1.2604
   98MOL    H6019654   4.695   5.088   7.767 -0.1755 -1.1673  1.1833
   98MOL    H6119655   4.731   5.223   0.061 -1.1679 -0.1184  3.6060
   98MOL    C6219656   4.317   5.191   7.801  0.3089  0.3662  0.7892
   98MOL    C6319657   4.314   5.196   0.147  0.5057 -0.2848  0.0025
   98MOL    O6419658   4.202   5.262   0.203  0.0922  0.0285 -0.5750
   98MOL    C6519659   4.219   5.398   0.250 -0.0675  0.2746 -0.2482
   98MOL    H6619660   4.235   5.133   7.757  1.1014 -1.4722  1.6499
   98MOL    H6719661   4.315   5.296   7.771  0.0291  0.0084 -0.5019
   98MOL    H6819662   4.401   5.246   0.188  0.3321  1.0845 -1.2339
   98MOL    H6919663   4.125   5.446   0.275  0.2041 -0.1052  1.5143
   98MOL    H7019664   4.289   5.402   0.333 -1.1005 -1.1607  0.7005
   98MOL    H7119665   4.258   5.454   0.164 -1.7146  0.2854 -1.0075
   98MOL    C7219666   4.304   5.056   0.205 -1.0119 -0.0039  0.4188
   98MOL    C7319667   4.348   5.035   0.353  0.4619  0.1794 -0.0992
   98MOL    O7419668   4.288   4.911   0.401  0.1779  0.6768  0.4584
   98MOL    C7519669   4.158   4.927   0.455 -0.1890  0.0102  0.3963
   98MOL    H7619670   4.354   4.984   0.141 -0.3516  0.6741  0.1820
   98MOL    H7719671   4.204   5.022   0.177 -0.3436 -0.1538 -1.8137
   98MOL    H7819672   4.324   5.118   0.419  0.0958  1.1013 -1.3721
   98MOL    H7919673   4.089   4.972   0.384  0.9388  2.1844  0.6391
   98MOL    H8019674   4.125   4.828   0.487  1.1555  0.3398  2.9148
   98MOL    H8119675   4.158   4.995   0.540  0.0264 -1.4876  1.6104
   98MOL    C8219676   4.496   5.002   0.368  0.0824 -0.3996 -0.6582
   98MOL    C8319677   4.542   5.005   0.518  0.1758 -0.7950 -0.0933
   98MOL    O8419678   4.613   4.887   0.529 -0.2460 -0.0018  0.3900
   98MOL    C8519679   4.543   4.778   0.582  0.1786  0.0149  0.2296
   98MOL    H8619680   4.561   5.073   0.317  2.5875 -2.0948  0.0882
   98MOL    H8719681   4.518   4.904   0.326  3.3026  0.8432 -1.9978
   98MOL    H8819682   4.461   4.990   0.589  0.1181  0.1515  0.0488
   98MOL    H8919683   4.615   4.697   0.575  0.7264  0.1569  3.4564
   98MOL    H9019684   4.521   4.795   0.688  0.7561 -0.6659  0.4623
   98MOL    H9119685   4.447   4.754   0.536  0.4527 -1.3076  0.3269
   98MOL    C9219686   4.625   5.124   0.557  0.1095 -0.0686  0.3257
   98MOL    C9319687   4.546   5.255   0.561  0.8225 -0.3386 -0.0388
   98MOL    O9419688   4.443   5.239   0.665 -0.3539  0.6206  0.6583
   98MOL    C9519689   4.328   5.322   0.657 -0.4596 -0.4858 -0.0708
   98MOL    H9619690   4.710   5.133   0.489 -0.7454 -0.0822 -0.7611
   98MOL    H9719691   4.655   5.113   0.661 -1.1460  0.6274  0.7755
   98MOL    H9819692   4.494   5.276   0.468 -1.2565  0.7000  1.3144
   98MOL    H9919693   4.348   5.428   0.673 -0.6880 -0.3190 -0.8690
   98MOL   H10019694   4.269   5.317   0.565  2.5853 -1.5976 -2.0230
   98MOL   H10119695   4.264   5.296   0.742 -1.1304 -1.4325 -0.8574
   98MOL   C10219696   4.632   5.376   0.589  0.1577 -0.1787 -0.6008
   98MOL   C10319697   4.721   5.417   0.470  0.3263  0.0286 -0.2738
   98MOL   O10419698   4.640   5.468   0.363 -0.1770 -0.1232  1.0310
   98MOL   C10519699   4.640   5.412   0.236  0.6894  0.4948  0.2720
   98MOL   H10619700   4.699   5.366   0.675 -0.6673  0.2664  0.1018
   98MOL   H10719701   4.563   5.457   0.613  2.2963  2.1183 -1.8445
   98MOL   H10819702   4.779   5.329   0.441 -1.0018 -0.8338 -0.3899
   98MOL   H10919703   4.724   5.440   0.172 -0.6907  2.7923 -0.6012
   98MOL   H11019704   4.628   5.305   0.248 -1.9056  0.3974 -2.3899
   98MOL   H11119705   4.551   5.447   0.183  0.2699  0.0936  0.7060
   98MOL   C11219706   4.818   5.532   0.515  0.5771  0.3805 -1.1179
   98MOL   C11319707   4.918   5.579   0.403  0.0130 -0.1862 -0.5458
   98MOL   O11419708   4.951   5.717   0.408  0.6738 -0.2506  0.2884
   98MOL   C11519709   4.993   5.785   0.528  0.0716  0.0670  0.2338
   98MOL   H11619710   4.871   5.507   0.607  0.5122  0.5516 -1.0339
   98MOL   H11719711   4.757   5.619   0.541  0.5387  0.0806 -0.1991
   98MOL   H11819712   4.859   5.584   0.312 -2.3087  0.6174  0.9729
   98MOL   H11919713   4.907   5.822   0.583  0.7475 -0.2844  1.5320
   98MOL   H12019714   5.044   5.726   0.604  0.9364  1.0499  0.4263
   98MOL   H12119715   5.050   5.874   0.502  0.3239 -0.1770 -0.0655
   98MOL   C12219716   5.047   5.492   0.381  0.8101 -0.3207 -0.7880
   98MOL   C12319717   5.131   5.527   0.250 -0.2730  0.1643  0.1146
   98MOL   O12419718   5.267   5.491   0.268  0.1195 -0.3062 -0.0386
   98MOL   C12519719   5.355   5.590   0.331 -0.2851 -0.0324 -0.2390
   98MOL   H12619720   5.022   5.386   0.385  1.6118 -0.5377 -1.3399
   98MOL   H12719721   5.115   5.496   0.466 -0.3051  3.1236 -0.0069
   98MOL   H12819722   5.123   5.635   0.237 -0.1438  0.4107  2.0277
   98MOL   H12919723   5.388   5.655   0.250 -0.2011 -1.7368 -1.6050
   98MOL   H13019724   5.306   5.635   0.417  0.8571 -0.4811  0.6635
   98MOL   H13119725   5.447   5.539   0.360  1.8090  2.6000 -2.0301
   98MOL   C13219726   5.079   5.466   0.121  0.0475 -0.9865  1.0459
   98MOL   C13319727   5.065   5.310   0.128 -0.0018  0.2355 -0.4768
   98MOL   O13419728   4.932   5.291   0.182  0.3906 -0.2018 -0.1564
   98MOL   C13519729   4.908   5.164   0.238 -0.0715  0.1389 -0.3737
   98MOL   H13619730   5.144   5.492   0.037 -2.5680  2.5346 -0.0486
   98MOL   H13719731   4.978   5.504   0.105 -0.1987 -1.5518  1.2669
   98MOL   H13819732   5.137   5.267   0.197 -1.8312  1.2375  2.1260
   98MOL   H13919733   4.991   5.140   0.305  0.7889  2.1021 -0.7117
   98MOL   H14019734   4.807   5.153   0.276 -0.3945 -1.2660 -1.6215
   98MOL   H14119735   4.909   5.097   0.152  1.4174  3.3161 -2.9650
   98MOL   C14219736   5.095   5.234   7.806  0.0229  0.1564  0.4733
   98MOL   C14319737   4.987   5.237   7.690  0.1361 -0.5489  0.0473
   98MOL   O14419738   4.953   5.374   7.658 -0.6375  0.4954  0.0747
   98MOL   C14519739   4.819   5.402   7.682  0.6548 -0.6006 -0.5989
   98MOL   H14619740   5.112   5.127   0.014  1.1529  0.3867  0.8143
   98MOL   H14719741   5.191   5.269   7.769 -0.4306  1.2787  0.3458
   98MOL   H14819742   4.895   5.187   7.720 -0.3992 -0.8321 -2.0166
   98MOL   H14919743   4.787   5.487   7.621  1.2366 -1.3652 -1.9768
   98MOL   H15019744   4.758   5.320   7.644  0.0789 -0.3906 -0.1372
   98MOL   H15119745   4.810   5.430   7.787  0.4636  1.0418 -1.0300
   98MOL   C15219746   5.022   5.169   7.554  0.2158  0.8592 -0.7646
   98MOL   C15319747   5.035   5.017   7.577 -0.1411  0.4935  0.5521
   98MOL   O15419748   4.910   4.974   7.628  0.3099  0.2084 -0.0188
   98MOL   C15519749   4.904   4.852   7.693 -0.0496  0.4685  0.5402
   98MOL   H15619750   5.115   5.211   7.514  1.4310 -2.3458 -1.4014
   98MOL   H15719751   4.947   5.202   7.483 -1.3439 -1.2116 -0.1153
   98MOL   H15819752   5.111   4.986   7.650  2.5052 -1.2301 -2.7335
   98MOL   H15919753   4.807   4.809   7.665  2.3150 -4.5153 -0.5179
   98MOL   H16019754   4.989   4.789   7.670  1.0868  2.0746  0.2629
   98MOL   H16119755   4.890   4.868   7.800  2.3148  1.7345  0.6867
   98MOL   C16219756   5.080   4.936   7.450  0.5309 -0.2749 -0.6721
   98MOL   C16319757   4.987   4.929   7.328  0.2848 -0.3386 -0.0005
   98MOL   O16419758   5.065   4.937   7.209  0.1582  0.1984 -0.2105
   98MOL   C16519759   5.080   5.070   7.172  0.0275  0.6388  0.4528
   98MOL   H16619760   5.106   4.837   7.486 -0.0171  0.3976  1.6224
   98MOL   H16719761   5.171   4.980   7.409 -0.1103 -0.0975 -1.9511
   98MOL   H16819762   4.906   5.003   7.329 -0.2037 -0.8913  1.3670
   98MOL   H16919763   5.140   5.071   7.081 -0.4512  1.0574  0.1482
   98MOL   H17019764   4.988   5.120   7.143 -0.5138  0.3268  1.6082
   98MOL   H17119765   5.136   5.126   7.247  0.1354 -0.7135  1.3995
   98MOL   C17219766   4.914   4.796   7.319 -0.1796  0.4410  0.4041
   98MOL   C17319767   4.833   4.764   7.185  0.6040 -0.7375 -0.6359
   98MOL   O17419768   4.762   4.644   7.219 -0.2905  0.3016 -0.2354
   98MOL   C17519769   4.800   4.530   7.156 -1.1673 -0.3155  0.2700
   98MOL   H17619770   4.843   4.785   7.401  0.6136  0.1354  1.0546
   98MOL   H17719771   4.992   4.720   7.322 -0.4737  0.1811  1.7335
   98MOL   H17819772   4.910   4.755   7.108  1.2610  1.5656 -0.2688
   98MOL   H17919773   4.908   4.521   7.151 -1.2550 -0.8130 -0.9819
   98MOL   H18019774   4.761   4.442   7.208 -0.3304 -0.2251  1.0592
   98MOL   H18119775   4.746   4.507   7.064 -1.4958  0.6240  0.2236
   98MOL   C18219776   4.734   4.874   7.135  0.1922 -0.1548 -0.1049
   98MOL   C18319777   4.683   4.834   6.994  0.2932  0.2028  0.0171
   98MOL   O18419778   4.573   4.918   6.967 -0.6974 -0.1231 -0.1030
   98MOL   C18519779   4.474   4.875   6.879 -0.1828  0.0549 -0.2383
   98MOL   H18619780   4.778   4.973   7.123 -0.0781  0.2502  1.9853
   98MOL   H18719781   4.659   4.890   7.212  0.2701 -1.0767  0.1750
   98MOL   H18819782   4.646   4.732   7.008  1.7539 -0.4685 -0.8464
   98MOL   H18919783   4.403   4.958   6.867  0.5210  0.5679 -0.9364
   98MOL   H19019784   4.507   4.857   6.777  0.8364 -2.0858  0.4491
   98MOL   H19119785   4.423   4.788   6.921  1.8478 -0.6329  0.8383
   98MOL   C19219786   4.780   4.820   6.871  0.2488  0.5065 -0.5809
   98MOL   C19319787   4.850   4.946   6.833  0.9929 -0.1931 -1.2108
   98MOL   O19419788   4.893   4.929   6.706 -0.6999  0.3584  0.1485
   98MOL   C19519789   4.792   4.943   6.603 -0.1923  0.1755  0.4194
   98MOL   H19619790   4.716   4.781   6.792  1.6647 -0.1886 -1.3910
   98MOL   H19719791   4.860   4.746   6.873 -0.4208 -0.2233 -0.9098
   98MOL   H19819792   4.935   4.958   6.900  0.3684 -1.6587 -0.1433
   98MOL   H19919793   4.763   4.845   6.566  2.3232 -1.2001  1.9504
   98MOL   H20019794   4.704   5.001   6.630 -0.6117  0.2284 -1.0166
   98MOL   H20119795   4.839   4.979   6.511  2.3972 -0.3694  1.4910
   98MOL   H20219796   4.784   5.033   6.840  0.4598 -0.7566  1.0598
   99MOL     C119797   4.253   5.067   6.055 -0.7954 -0.2274 -0.0345
   99MOL     C219798   4.364   4.995   6.128 -0.6933 -0.8489 -0.1902
   99MOL     O319799   4.438   4.933   6.019  0.1769  0.3535 -0.0556
   99MOL     C419800   4.520   4.822   6.070  0.4439 -0.6575  0.0379
   99MOL     H519801   4.296   5.154   6.006 -0.5223 -1.5691 -2.2087
   99MOL     H619802   4.190   5.009   5.988  0.0836  0.7298 -1.7171
   99MOL     H719803   4.310   4.923   6.190 -0.7197 -0.1439  0.6144
   99MOL     H819804   4.620   4.852   6.101 -0.1697  1.4618  0.0452
   99MOL     H919805   4.475   4.750   6.138  2.1651 -1.6753  0.1127
   99MOL    H1019806   4.539   4.765   5.979  1.2697 -0.5065  0.1148
   99MOL    H1119807   4.181   5.125   6.114  0.9256  2.7520 -0.7376
   99MOL    C1219808   4.457   5.099   6.206 -0.3071 -0.5929  0.4245
   99MOL    C1319809   4.410   5.139   6.351  0.0281  0.3867 -0.7937
   99MOL    O1419810   4.415   5.024   6.429 -0.2839  0.5103 -0.3038
   99MOL    C1519811   4.319   5.041   6.535  0.0482  0.1479 -0.3545
   99MOL    H1619812   4.467   5.186   6.141  0.2579 -0.5754  0.5245
   99MOL    H1719813   4.563   5.070   6.210 -0.0835  0.3518  1.5288
   99MOL    H1819814   4.310   5.182   6.360 -0.4580 -0.5964 -1.4390
   99MOL    H1919815   4.333   4.949   6.592  0.3749  2.5835  3.6636
   99MOL    H2019816   4.340   5.129   6.595  2.3774  0.2899 -1.3304
   99MOL    H2119817   4.217   5.037   6.498 -0.3379 -0.8961  0.7772
   99MOL    C2219818   4.519   5.227   6.424 -0.4995  0.0821 -1.1813
   99MOL    C2319819   4.557   5.362   6.359 -0.4191  0.5786  0.5606
   99MOL    O2419820   4.620   5.345   6.238 -0.1314  0.0164 -0.5184
   99MOL    C2519821   4.760   5.336   6.254 -0.1010 -0.3148  0.2362
   99MOL    H2619822   4.605   5.160   6.431  0.0838  0.9109 -0.3383
   99MOL    H2719823   4.477   5.251   6.521  1.6460 -0.2060 -0.1456
   99MOL    H2819824   4.624   5.416   6.426 -0.9852  1.5099  0.3785
   99MOL    H2919825   4.812   5.295   6.166  1.9226  0.8608  0.8478
   99MOL    H3019826   4.806   5.430   6.283  1.4779 -1.5451  1.8861
   99MOL    H3119827   4.789   5.260   6.327  0.7975 -0.2761 -0.0630
   99MOL    C3219828   4.437   5.452   6.338 -0.4698  0.4576 -0.9148
   99MOL    C3319829   4.465   5.602   6.293 -1.1289  0.3076  0.1738
   99MOL    O3419830   4.346   5.655   6.241 -0.6139  0.2943 -0.3102
   99MOL    C3519831   4.317   5.618   6.104  0.5926 -0.3229 -0.3320
   99MOL    H3619832   4.385   5.460   6.434  0.5490 -1.8487 -0.1479
   99MOL    H3719833   4.363   5.402   6.276 -0.7004 -0.8096  0.3566
   99MOL    H3819834   4.543   5.596   6.217  0.9516  1.7402  2.1417
   99MOL    H3919835   4.269   5.521   6.090 -2.2814  1.1753 -1.4920
   99MOL    H4019836   4.260   5.686   6.040  0.0722 -0.1382  0.3250
   99MOL    H4119837   4.414   5.621   6.055  0.8199  1.0847  0.2009
   99MOL    C4219838   4.508   5.687   6.410  0.1219  0.1485  0.6257
   99MOL    C4319839   4.553   5.832   6.362  0.4522  0.2906 -0.5771
   99MOL    O4419840   4.593   5.906   6.478  0.5270 -0.0098  0.4624
   99MOL    C4519841   4.528   6.023   6.513  1.0206 -0.7152  0.1294
   99MOL    H4619842   4.596   5.640   6.455  0.1591  0.5773  1.0081
   99MOL    H4719843   4.434   5.698   6.489  1.9930  1.0838  2.2965
   99MOL    H4819844   4.473   5.891   6.319 -1.7995 -1.7131  0.7265
   99MOL    H4919845   4.496   6.093   6.436  0.9288 -1.4546 -0.5185
   99MOL    H5019846   4.431   5.991   6.551  0.6413  1.5176  1.1044
   99MOL    H5119847   4.575   6.083   6.590  0.1446  1.6276 -1.1131
   99MOL    C5219848   4.674   5.838   6.267  0.5315  0.4562 -0.6350
   99MOL    C5319849   4.754   5.967   6.252  0.3198 -0.3281  0.1152
   99MOL    O5419850   4.870   5.960   6.172  0.3763  0.4289 -0.2245
   99MOL    C5519851   4.995   5.937   6.241 -0.2532 -0.2392 -0.1109
   99MOL    H5619852   4.639   5.798   6.172 -2.5528 -0.0915  0.6649
   99MOL    H5719853   4.746   5.760   6.295  0.2885 -0.0474 -1.4015
   99MOL    H5819854   4.783   6.016   6.345  2.1661  2.1828 -1.7063
   99MOL    H5919855   4.996   5.840   6.291 -4.2773 -0.1692  0.2766
   99MOL    H6019856   5.064   5.936   6.157  0.7061 -1.1248  0.6681
   99MOL    H6119857   5.019   6.023   6.303  0.9378 -0.0214 -0.8693
   99MOL    C6219858   4.674   6.073   6.166  0.3767  0.2117  0.0229
   99MOL    C6319859   4.736   6.210   6.164  0.5121 -0.6207 -0.1795
   99MOL    O6419860   4.658   6.286   6.070  0.1956 -0.1839  0.5229
   99MOL    C6519861   4.735   6.383   6.002  0.6378 -0.0762  0.1046
   99MOL    H6619862   4.569   6.083   6.197  0.4409  1.5032 -0.1435
   99MOL    H6719863   4.663   6.034   6.065  2.7948  0.9805 -0.5555
   99MOL    H6819864   4.839   6.214   6.129  0.6601 -1.1334  0.1830
   99MOL    H6919865   4.663   6.413   5.926 -2.0129 -2.6100  1.5508
   99MOL    H7019866   4.757   6.470   6.065  0.6655  0.5405 -0.7475
   99MOL    H7119867   4.826   6.354   5.950  0.3043 -1.0996  0.0898
   99MOL    C7219868   4.737   6.279   6.303  0.1156  0.0644 -0.1423
   99MOL    C7319869   4.892   6.301   6.350  0.1442  0.1577  1.0332
   99MOL    O7419870   4.948   6.403   6.270 -0.3752  0.1923  0.4259
   99MOL    C7519871   5.092   6.404   6.266 -0.3502 -0.3854 -0.5998
   99MOL    H7619872   4.669   6.226   6.370  1.0288  2.0775  2.4541
   99MOL    H7719873   4.702   6.383   6.305 -0.1448 -0.0443  0.9481
   99MOL    H7819874   4.943   6.209   6.322 -1.7260 -0.3782 -0.7315
   99MOL    H7919875   5.128   6.309   6.228 -0.0949 -1.0284  1.1860
   99MOL    H8019876   5.122   6.494   6.213  0.5605  1.3293  2.6921
   99MOL    H8119877   5.148   6.408   6.360  0.2615  4.0892 -1.0261
   99MOL    C8219878   4.902   6.354   6.494  0.1649 -0.0460  0.3142
   99MOL    C8319879   4.860   6.253   6.604  0.1225 -0.7197 -0.0881
   99MOL    O8419880   4.981   6.180   6.634  0.4323 -0.4206  0.5697
   99MOL    C8519881   4.976   6.068   6.723 -0.1194 -0.5278 -0.0345
   99MOL    H8619882   4.841   6.444   6.506  0.2988  0.2101 -0.7948
   99MOL    H8719883   5.005   6.388   6.506 -0.1475  0.5809  1.3087
   99MOL    H8819884   4.782   6.185   6.568 -0.9986  0.9772 -0.9328
   99MOL    H8919885   5.071   6.015   6.714 -0.4329 -1.5010  2.1114
   99MOL    H9019886   4.964   6.100   6.827  0.7105  0.4705 -0.2325
   99MOL    H9119887   4.899   5.998   6.691  1.0391 -2.7747  1.9198
   99MOL    C9219888   4.810   6.327   6.737  0.1249 -0.2890 -1.0516
   99MOL    C9319889   4.675   6.406   6.740  0.7696  0.4313 -0.7404
   99MOL    O9419890   4.575   6.311   6.745  0.1220 -0.2049  0.5702
   99MOL    C9519891   4.453   6.359   6.707  0.3122  0.1183 -0.1323
   99MOL    H9619892   4.900   6.383   6.763 -1.1949  1.9558 -1.2375
   99MOL    H9719893   4.808   6.258   6.821 -0.1041  2.2417  1.0704
   99MOL    H9819894   4.671   6.471   6.653  1.6267 -1.5583 -2.2859
   99MOL    H9919895   4.463   6.386   6.602  0.2239  0.3584 -0.0790
   99MOL   H10019896   4.380   6.280   6.720 -1.2592  1.0547 -2.9755
   99MOL   H10119897   4.432   6.452   6.760  0.9990 -0.8109  1.8298
   99MOL   C10219898   4.665   6.503   6.856 -0.2615  0.0298 -0.2964
   99MOL   C10319899   4.736   6.629   6.822  0.4715 -0.1139 -0.7117
   99MOL   O10419900   4.658   6.710   6.732  0.1385  0.2617 -0.4799
   99MOL   C10519901   4.737   6.794   6.646  0.5700 -0.1999 -0.3590
   99MOL   H10619902   4.713   6.463   6.946 -1.2490 -1.1044 -0.2578
   99MOL   H10719903   4.565   6.537   6.882 -1.1379 -1.4653 -1.6385
   99MOL   H10819904   4.838   6.611   6.786  0.1887 -1.3329 -0.9277
   99MOL   H10919905   4.825   6.844   6.685  0.1937  1.2419 -1.3093
   99MOL   H11019906   4.782   6.733   6.567 -0.1937 -1.4810  0.1737
   99MOL   H11119907   4.673   6.863   6.590 -2.0627 -2.2476 -0.0081
   99MOL   C11219908   4.758   6.722   6.951  0.0384 -0.7036  0.2372
   99MOL   C11319909   4.871   6.684   7.042  0.2265 -0.0016 -0.2667
   99MOL   O11419910   4.987   6.715   6.961 -0.2531  0.3756  0.4982
   99MOL   C11519911   5.082   6.607   6.935 -0.4195  0.1916 -0.5096
   99MOL   H11619912   4.668   6.719   7.012 -0.1894  1.7173  0.0947
   99MOL   H11719913   4.764   6.828   6.927 -1.3604 -0.8636 -0.9520
   99MOL   H11819914   4.874   6.579   7.070  0.7933  0.0513 -0.1181
   99MOL   H11919915   5.124   6.575   7.030 -1.6845  0.6201  0.2145
   99MOL   H12019916   5.025   6.524   6.895  0.5866  0.0153 -1.5774
   99MOL   H12119917   5.162   6.633   6.867  2.0409 -2.9829  1.0876
   99MOL   C12219918   4.877   6.765   7.170  0.3616 -0.1179 -0.2385
   99MOL   C12319919   4.770   6.732   7.277  0.3454 -0.0127 -0.3416
   99MOL   O12419920   4.784   6.591   7.302  0.3961 -0.3055 -0.1007
   99MOL   C12519921   4.653   6.529   7.306  0.4327 -0.4739  0.2170
   99MOL   H12619922   4.859   6.870   7.145  1.1805  0.0971  0.0383
   99MOL   H12719923   4.975   6.762   7.220  0.0824  2.0295  0.5103
   99MOL   H12819924   4.672   6.756   7.236 -0.1384 -3.2346 -1.1879
   99MOL   H12919925   4.661   6.421   7.314  2.5362 -0.1556  3.0896
   99MOL   H13019926   4.591   6.569   7.386  1.2178 -1.0802  1.1345
   99MOL   H13119927   4.586   6.551   7.222 -1.2966 -2.9780  0.8890
   99MOL   C13219928   4.794   6.794   7.412  0.6716 -0.2101  0.2371
   99MOL   C13319929   4.851   6.933   7.418 -0.3900  0.1538  0.2016
   99MOL   O13419930   4.766   7.020   7.339 -0.2521  0.4193 -0.2045
   99MOL   C13519931   4.831   7.140   7.283 -0.2498  0.0089 -0.0124
   99MOL   H13619932   4.866   6.737   7.471  0.8338  0.8642  1.1021
   99MOL   H13719933   4.702   6.792   7.470  0.7557  0.8936  0.4293
   99MOL   H13819934   4.950   6.930   7.373 -0.1723 -2.8797  0.7694
   99MOL   H13919935   4.886   7.109   7.195  0.2163 -2.5156  1.1072
   99MOL   H14019936   4.755   7.209   7.246 -0.0173  0.9629  1.2584
   99MOL   H14119937   4.892   7.198   7.352  0.0659  2.8260 -2.6160
   99MOL   C14219938   4.861   6.995   7.565  0.8585  0.2655 -0.5012
   99MOL   C14319939   4.948   6.920   7.667  0.5047 -0.2112 -0.6409
   99MOL   O14419940   5.078   6.928   7.614 -0.2312  0.4542 -0.4450
   99MOL   C14519941   5.161   6.818   7.666 -0.5163  0.2673  0.0441
   99MOL   H14619942   4.765   6.981   7.614 -1.0371  0.2178 -4.0992
   99MOL   H14719943   4.889   7.100   7.571  0.9286  0.0938  3.5670
   99MOL   H14819944   4.919   6.815   7.668 -1.8711  0.4092  0.7599
   99MOL   H14919945   5.177   6.816   7.773  3.2239 -1.9079 -0.4817
   99MOL   H15019946   5.123   6.719   7.641  2.1762 -0.9870  0.8082
   99MOL   H15119947   5.263   6.828   7.630 -0.4108  0.2716  0.3495
   99MOL   C15219948   4.961   6.990   7.801 -0.0541 -0.1839  0.2021
   99MOL   C15319949   4.840   6.979   0.084 -0.4461  0.0306  0.2844
   99MOL   O15419950   4.723   7.038   0.029 -0.5306  0.3615  0.1319
   99MOL   C15519951   4.707   7.174   0.057 -0.0806 -0.8641  0.1148
   99MOL   H15619952   4.985   7.096   7.793  0.1438 -0.1473  1.2307
   99MOL   H15719953   5.048   6.960   0.049  0.6379  0.9103 -0.2406
   99MOL   H15819954   4.858   7.030   0.179 -3.2125  1.0043  0.3154
   99MOL   H15919955   4.791   7.244   0.065 -0.7954  0.2304 -1.4897
   99MOL   H16019956   4.634   7.205   7.793  1.9855  0.8107 -1.2758
   99MOL   H16119957   4.650   7.175   0.150  0.3900  2.1056  0.4273
   99MOL   C16219958   4.797   6.829   0.119 -0.0517  0.3842  0.2774
   99MOL   C16319959   4.692   6.828   0.227  0.0426 -0.0518 -0.0745
   99MOL   O16419960   4.673   6.691   0.244 -0.6739  0.5976  0.3795
   99MOL   C16519961   4.591   6.632   0.149 -0.3106  0.9800 -0.8552
   99MOL   H16619962   4.878   6.765   0.154 -2.2086 -2.6649 -0.1122
   99MOL   H16719963   4.760   6.790   0.024  0.1685  1.0823 -0.1005
   99MOL   H16819964   4.605   6.884   0.193  1.5933  2.1198 -0.6176
   99MOL   H16919965   4.528   6.712   0.109 -0.1559  1.6205  0.1607
   99MOL   H17019966   4.650   6.589   0.067  3.6858  0.7870  1.9915
   99MOL   H17119967   4.523   6.563   0.200  1.3113  0.4218  0.5910
   99MOL   C17219968   4.725   6.890   0.371  0.7113 -1.1614 -0.0852
   99MOL   C17319969   4.622   6.865   0.481 -0.2780  0.0158 -0.0690
   99MOL   O17419970   4.660   6.925   0.599  0.5639 -0.0486  0.0329
   99MOL   C17519971   4.751   6.851   0.678  0.4091  0.2909  0.6482
   99MOL   H17619972   4.744   6.997   0.364 -2.2147 -0.6354 -0.5737
   99MOL   H17719973   4.808   6.831   0.410 -0.1782 -0.9508  2.1767
   99MOL   H17819974   4.613   6.756   0.485 -1.0277  0.1214  1.0504
   99MOL   H17919975   4.838   6.819   0.620  1.0603 -1.0015  2.2764
   99MOL   H18019976   4.793   6.908   0.760  0.9270  2.4970 -1.1083
   99MOL   H18119977   4.699   6.761   0.710  0.7542 -0.1017  0.1077
   99MOL   C18219978   4.485   6.934   0.442 -0.4263  0.3645 -0.2869
   99MOL   C18319979   4.365   6.855   0.483 -0.0189  0.1868 -0.0022
   99MOL   O18419980   4.268   6.946   0.537  0.1366  0.1670  0.5207
   99MOL   C18519981   4.271   6.927   0.680  1.0141  0.0541 -0.0550
   99MOL   H18619982   4.471   6.944   0.334 -1.1793  0.5505 -0.1756
   99MOL   H18719983   4.480   7.034   0.483  0.1252 -0.3850  1.6556
   99MOL   H18819984   4.410   6.788   0.557 -0.3184 -0.2266 -0.1938
   99MOL   H18919985   4.361   6.937   0.739 -0.9793 -1.2811  3.3714
   99MOL   H19019986   4.210   7.009   0.716  1.5410  2.1420 -3.6965
   99MOL   H19119987   4.232   6.830   0.711  0.1398  0.4161  0.0004
   99MOL   C19219988   4.290   6.769   0.377  0.3199  0.3670 -0.0034
   99MOL   C19319989   4.175   6.681   0.429 -0.4946  0.0798  0.3190
   99MOL   O19419990   4.215   6.602   0.535  0.0055 -0.0010 -0.0790
   99MOL   C19519991   4.123   6.500   0.556  0.2847  0.3656 -0.3206
   99MOL   H19619992   4.377   6.715   0.338 -0.7246 -0.6677 -0.9206
   99MOL   H19719993   4.256   6.817   0.286 -0.5477 -1.0151 -0.4180
   99MOL   H19819994   4.143   6.625   0.341  0.9693  0.7276 -0.6597
   99MOL   H19919995   4.090   6.444   0.469  0.6016 -0.1844 -0.0910
   99MOL   H20019996   4.169   6.425   0.621  0.3673  0.1277 -0.6503
   99MOL   H20119997   4.042   6.547   0.612  0.2160 -0.7423  0.5293
   99MOL   H20219998   4.096   6.748   0.462  0.2561  0.9900  0.2947
  100MOL     C119999   0.145   0.370   1.378 -0.5580  0.5575 -0.1160
  100MOL     C220000   0.021   0.331   1.467  0.3024  0.6206 -0.6630
  100MOL     O320001   0.025   0.193   1.503  0.2612 -0.2683 -0.3938
  100MOL     C420002   7.785   0.101   1.411  1.0905  0.0503  0.3626
  100MOL     H520003   0.134   0.326   1.278  2.1570  0.0086 -0.2245
  100MOL     H620004   0.168   0.476   1.375 -1.1947  0.6617 -2.4591
  100MOL     H720005   7.739   0.347   1.412 -0.8960 -0.6660  0.9544
  100MOL     H820006   0.048   0.025   1.385 -0.7008 -1.3046 -0.8345
  100MOL     H920007   7.692   0.056   1.445  2.2466 -3.4678 -0.8890
  100MOL    H1020008   7.770   0.142   1.311  1.5071 -0.0618  0.2540
  100MOL    H1120009   0.234   0.319   1.415  1.4692  3.0614 -1.4214
  100MOL    C1220010   0.017   0.409   1.604  0.5428 -0.7486  0.4204
  100MOL    C1320011   7.700   0.396   1.686  0.9669 -0.5823  1.0234
  100MOL    O1420012   7.706   0.309   1.796 -0.0154  0.1379  0.0900
  100MOL    C1520013   7.730   0.168   1.773  0.3271  0.3858 -0.1265
  100MOL    H1620014   0.031   0.516   1.587  1.2408 -0.9633 -0.3689
  100MOL    H1720015   0.097   0.376   1.670  2.5204  2.2151 -0.3809
  100MOL    H1820016   7.619   0.359   1.624  0.2638  1.2653  0.8138
  100MOL    H1920017   0.026   0.162   1.751  0.4281  1.8928 -0.1282
  100MOL    H2020018   7.732   0.105   1.862 -1.1376  0.5312  0.0261
  100MOL    H2120019   7.670   0.122   1.695 -1.1938 -1.0306  1.8121
  100MOL    C2220020   7.652   0.529   1.746 -0.1254 -0.4909 -0.2528
  100MOL    C2320021   7.733   0.581   1.870  0.5912  0.5563 -0.1678
  100MOL    O2420022   0.062   0.586   1.836 -0.0869 -0.1474 -0.0360
  100MOL    C2520023   0.149   0.531   1.926  0.8869  0.0298 -0.4207
  100MOL    H2620024   7.549   0.517   1.779 -0.1802 -0.5298 -0.4365
  100MOL    H2720025   7.652   0.605   1.667  0.6134  2.4145  2.4308
  100MOL    H2820026   7.714   0.514   1.954  2.5568 -0.7404 -0.7232
  100MOL    H2920027   0.255   0.554   1.912  0.8849  0.2211 -0.1305
  100MOL    H3020028   0.123   0.570   2.025 -1.5012 -1.2118 -0.5326
  100MOL    H3120029   0.125   0.425   1.936  1.4064 -0.2250 -1.7996
  100MOL    C3220030   7.711   0.723   1.919  0.5630 -0.0252  0.1822
  100MOL    C3320031   7.564   0.759   1.950  0.1961  0.7427  0.0989
  100MOL    O3420032   7.561   0.870   2.039 -0.7112 -0.0543 -0.6291
  100MOL    C3520033   7.564   0.845   2.179 -0.5023 -0.4190 -0.0424
  100MOL    H3620034   7.758   0.799   1.857  1.6934 -1.3549 -0.6126
  100MOL    H3720035   7.762   0.726   2.016  0.8729 -2.5754  0.1202
  100MOL    H3820036   7.504   0.677   1.990  0.9595 -0.3942 -1.0469
  100MOL    H3920037   7.492   0.766   2.201 -0.5635 -0.3160  0.1220
  100MOL    H4020038   7.668   0.826   2.206  0.8413  3.3352 -2.2252
  100MOL    H4120039   7.526   0.936   2.224  0.5630 -0.5111  1.0690
  100MOL    C4220040   7.486   0.812   1.825 -0.3020  0.5300  0.1162
  100MOL    C4320041   7.343   0.854   1.843 -0.1556  0.6233 -0.1490
  100MOL    O4420042   7.291   0.895   1.716 -0.1188 -0.0268 -0.9051
  100MOL    C4520043   7.300   1.030   1.699 -0.2019 -0.3864  0.5201
  100MOL    H4620044   7.481   0.732   1.752 -0.1107  1.9702 -1.5009
  100MOL    H4720045   7.537   0.902   1.792  1.5209  0.0396  1.4948
  100MOL    H4820046   7.345   0.938   1.913 -0.5499  0.9844 -0.5621
  100MOL    H4920047   7.270   1.049   1.596 -0.7057  1.7924  1.0372
  100MOL    H5020048   7.233   1.089   1.762 -0.0028 -2.1072  2.4022
  100MOL    H5120049   7.401   1.066   1.719 -0.1980 -0.3746  0.4804
  100MOL    C5220050   7.261   0.735   1.898  0.1618 -0.4712  1.0331
  100MOL    C5320051   7.108   0.765   1.911  0.2605 -0.6381 -0.5068
  100MOL    O5420052   7.046   0.647   1.966 -0.6646  0.3872  0.1494
  100MOL    C5520053   7.014   0.545   1.862  0.4011  0.8388  0.1557
  100MOL    H5620054   7.293   0.724   2.001 -0.1708  2.5366  1.4852
  100MOL    H5720055   7.283   0.641   1.848  0.5219  0.6101 -0.8728
  100MOL    H5820056   7.063   0.782   1.813  1.2096 -0.9743 -1.0056
  100MOL    H5920057   6.931   0.592   1.809 -0.4824 -0.6287  0.2161
  100MOL    H6020058   7.098   0.504   1.806 -0.7552 -0.9995 -0.2844
  100MOL    H6120059   6.972   0.459   1.915  1.7822 -1.0182 -1.6999
  100MOL    C6220060   7.074   0.886   2.009 -0.1244 -0.1546  0.3798
  100MOL    C6320061   6.926   0.905   2.038  0.2278 -0.1810  0.4246
  100MOL    O6420062   6.905   0.997   2.143  0.2650  0.6459 -0.4202
  100MOL    C6520063   6.899   0.941   2.269  0.4981 -0.0290 -0.0065
  100MOL    H6620064   7.113   0.981   1.972 -0.9887 -0.5382 -1.5702
  100MOL    H6720065   7.137   0.873   2.097  0.6211 -2.8141 -0.4827
  100MOL    H6820066   6.884   0.809   2.070  0.8652 -0.2463  1.0764
  100MOL    H6920067   6.796   0.905   2.275  0.8868 -1.0337  0.8141
  100MOL    H7020068   6.958   0.849   2.277  1.3213  0.4723 -0.2357
  100MOL    H7120069   6.922   1.011   2.349 -2.4202  1.2587 -0.2449
  100MOL    C7220070   6.843   0.945   1.917  0.8186  1.2170  0.1519
  100MOL    C7320071   6.692   0.947   1.936  0.5854 -0.7167  0.3949
  100MOL    O7420072   6.641   1.064   1.882  0.8922  0.3040  0.1605
  100MOL    C7520073   6.647   1.178   1.973 -0.0581  0.5740  0.8587
  100MOL    H7620074   6.863   0.880   1.832 -0.3055 -1.8916  2.1755
  100MOL    H7720075   6.882   1.040   1.879  1.4211  0.0942 -2.1524
  100MOL    H7820076   6.671   0.948   2.043  2.5306 -0.3566  0.7882
  100MOL    H7920077   6.588   1.267   1.951 -0.0548  0.7303  1.4957
  100MOL    H8020078   6.601   1.146   2.066 -0.5381  1.8051  1.0477
  100MOL    H8120079   6.749   1.216   1.980  0.0447  0.0715  2.2279
  100MOL    C8220080   6.620   0.825   1.866  0.0245 -0.0758 -0.1699
  100MOL    C8320081   6.636   0.687   1.941  0.6964  0.1718  0.1806
  100MOL    O8420082   6.599   0.708   2.077 -0.6127 -0.4487  0.1809
  100MOL    C8520083   6.635   0.608   2.169  0.3983 -0.3915 -0.1765
  100MOL    H8620084   6.635   0.814   1.759 -2.3293 -0.8741 -0.4553
  100MOL    H8720085   6.515   0.853   1.877 -0.7364 -3.8075  3.1617
  100MOL    H8820086   6.744   0.671   1.943  0.7294  0.2453 -0.6932
  100MOL    H8920087   6.595   0.630   2.268  1.0443 -2.3273  0.5498
  100MOL    H9020088   6.598   0.509   2.141 -0.9740  0.4814 -1.5072
  100MOL    H9120089   6.744   0.608   2.180  0.1557 -0.0027  2.4832
  100MOL    C9220090   6.554   0.569   1.885  0.3304 -0.4158 -0.3460
  100MOL    C9320091   6.555   0.548   1.737  0.0082  0.5038  1.0138
  100MOL    O9420092   6.696   0.557   1.703  0.4794 -0.0065 -0.3203
  100MOL    C9520093   6.723   0.595   1.571 -0.4919 -0.3181 -0.2188
  100MOL    H9620094   6.449   0.581   1.909 -0.0802  3.1734 -3.4359
  100MOL    H9720095   6.595   0.477   1.927 -0.9517 -1.0722 -0.5124
  100MOL    H9820096   6.497   0.623   1.683  0.5491  1.8881  2.2990
  100MOL    H9920097   6.654   0.677   1.549 -1.4586 -0.2115  2.9173
  100MOL   H10020098   6.826   0.629   1.560  0.4953 -2.2989  2.2884
  100MOL   H10120099   6.692   0.515   1.503  0.7318 -0.8359 -0.1821
  100MOL   C10220100   6.491   0.415   1.696  0.4366  0.9466  0.1105
  100MOL   C10320101   6.338   0.418   1.683 -0.3147  0.1897 -0.1111
  100MOL   O10420102   6.289   0.437   1.818  0.0027  0.1909  0.3446
  100MOL   C10520103   6.209   0.329   1.871  0.4949 -0.0419  0.3653
  100MOL   H10620104   6.526   0.337   1.762  1.7805  1.7400  0.3557
  100MOL   H10720105   6.528   0.374   1.602 -0.3982 -0.0833  0.2312
  100MOL   H10820106   6.302   0.328   1.635 -2.0637  0.7647  0.0733
  100MOL   H10920107   6.179   0.375   1.965  0.4256 -1.5183  1.0821
  100MOL   H11020108   6.117   0.314   1.814  0.4402  0.5048  0.3130
  100MOL   H11120109   6.258   0.236   1.900  0.0202 -1.3119 -2.6857
  100MOL   C11220110   6.265   0.514   1.588 -0.0272 -0.3013 -0.0008
  100MOL   C11320111   6.297   0.502   1.445 -0.1688  0.8421 -0.1180
  100MOL   O11420112   6.429   0.559   1.427  0.8100 -0.7130  0.1740
  100MOL   C11520113   6.470   0.618   1.301  0.1054  0.0644 -0.1365
  100MOL   H11620114   6.282   0.615   1.625 -1.8119  0.3440 -0.8802
  100MOL   H11720115   6.160   0.490   1.603  0.4111 -3.3048 -1.3065
  100MOL   H11820116   6.227   0.568   1.393  1.4235  2.1742 -0.6023
  100MOL   H11920117   6.402   0.700   1.275  0.9116  0.1240 -2.0992
  100MOL   H12020118   6.568   0.664   1.309  0.2340 -0.0106 -1.1894
  100MOL   H12120119   6.468   0.544   1.221  0.1488  1.2475 -1.2476
  100MOL   C12220120   6.284   0.359   1.381  0.0445  0.0226  0.0838
  100MOL   C12320121   6.144   0.300   1.399 -0.6044  0.2454 -0.2818
  100MOL   O12420122   6.053   0.382   1.327  0.5317  0.1497 -0.2729
  100MOL   C12520123   5.937   0.421   1.406 -0.9762 -0.4045  0.2229
  100MOL   H12620124   6.355   0.289   1.424 -0.3277 -0.0283  0.6122
  100MOL   H12720125   6.304   0.375   1.275 -4.3436  0.7986 -0.7202
  100MOL   H12820126   6.112   0.300   1.503 -2.0964  0.4113 -0.7215
  100MOL   H12920127   5.868   0.339   1.428 -0.5346 -0.3887  1.7246
  100MOL   H13020128   5.975   0.464   1.499 -1.1908  0.7508 -0.2193
  100MOL   H13120129   5.886   0.505   1.360  3.1368  2.3587  0.4387
  100MOL   C13220130   6.133   0.160   1.337 -0.1748 -0.0383 -0.3586
  100MOL   C13320131   6.208   0.045   1.406  0.3745 -0.3100  1.0018
  100MOL   O13420132   6.174   0.060   1.542  0.6072 -0.1744 -0.0276
  100MOL   C13520133   6.273   0.001   1.618 -0.5509 -0.3252 -0.5528
  100MOL   H13620134   6.165   0.168   1.234 -1.1933 -0.8334 -0.7428
  100MOL   H13720135   6.033   0.118   1.323  0.2384 -1.8262  1.6843
  100MOL   H13820136   6.313   0.057   1.383 -0.4171  1.4615 -1.9597
  100MOL   H13920137   6.369   0.048   1.594 -0.5534 -0.4970 -0.9005
  100MOL   H14020138   6.247   7.809   1.724 -0.2064  0.0546 -0.4558
  100MOL   H14120139   6.295   7.706   1.606  0.8859  0.2436 -3.5349
  100MOL   C14220140   6.163   7.714   1.354 -0.4378 -0.8471  0.0431
  100MOL   C14320141   6.167   7.698   1.200 -0.5239 -0.1102 -0.7795
  100MOL   O14420142   6.302   7.713   1.160 -0.2320  0.1458 -0.1284
  100MOL   C14520143   6.335   0.000   1.058  0.1321  0.5966 -0.5042
  100MOL   H14620144   6.067   7.698   1.402 -0.0707 -0.7546  0.8146
  100MOL   H14720145   6.236   7.641   1.389 -0.8399 -0.8645  0.8676
  100MOL   H14820146   6.099   7.770   1.155  0.0763  0.5735 -0.6002
  100MOL   H14920147   6.328   0.100   1.102  0.6919  0.7583 -0.7778
  100MOL   H15020148   6.439   7.805   1.026  1.9103  3.1547  4.2590
  100MOL   H15120149   6.273   7.803   0.969  0.4105  0.3032 -0.6746
  100MOL   C15220150   6.121   7.557   1.152  0.5143 -0.0811  0.7914
  100MOL   C15320151   5.978   7.509   1.195  0.3986 -0.0992  0.0651
  100MOL   O15420152   5.899   7.459   1.090 -0.0092  0.0431  0.0401
  100MOL   C15520153   5.852   7.549   0.996 -0.2141  0.2261  0.0800
  100MOL   H15620154   6.185   7.480   1.197  0.9112  0.1885  0.6976
  100MOL   H15720155   6.146   7.562   1.046  1.7270  1.4544  1.1363
  100MOL   H15820156   5.940   7.601   1.240 -2.9082 -1.6790  0.6679
  100MOL   H15920157   5.791   7.630   1.037 -0.1770  1.3062 -1.9665
  100MOL   H16020158   5.931   7.592   0.934 -0.5101 -0.6322 -0.9082
  100MOL   H16120159   5.777   7.498   0.936  0.1489  0.5329 -0.6392
  100MOL   C16220160   5.976   7.393   1.297 -0.1530 -0.0321  0.2061
  100MOL   C16320161   5.840   7.375   1.373 -0.0205  0.0806 -0.9992
  100MOL   O16420162   5.828   7.237   1.405  0.5208  0.3059  0.3621
  100MOL   C16520163   5.696   7.191   1.409  0.7133  0.5374  0.1851
  100MOL   H16620164   6.062   7.406   1.363 -0.8693  2.4824  0.7010
  100MOL   H16720165   5.999   7.299   1.248 -1.4731 -0.7018  0.8685
  100MOL   H16820166   5.762   7.404   1.303 -0.2296  2.5604  0.1986
  100MOL   H16920167   5.701   7.088   1.446  0.6111  0.2147 -0.6976
  100MOL   H17020168   5.629   7.243   1.477  1.8500 -2.1523  3.5522
  100MOL   H17120169   5.640   7.192   1.316  0.5064 -2.0120  0.2521
  100MOL   C17220170   5.821   7.451   1.509  0.8882 -0.3064  0.1363
  100MOL   C17320171   5.899   7.405   1.632 -0.5688 -0.0497  0.3239
  100MOL   O17420172   6.029   7.443   1.608 -0.1379 -0.1336 -0.0683
  100MOL   C17520173   6.122   7.347   1.651 -0.5582  0.0411 -1.0006
  100MOL   H17620174   5.717   7.465   1.538  1.3733  1.6141  1.0222
  100MOL   H17720175   5.857   7.550   1.484 -0.2991 -0.2247 -1.3537
  100MOL   H17820176   5.888   7.297   1.643 -0.3569 -0.0284  0.7676
  100MOL   H17920177   6.104   7.248   1.608  1.8089 -1.2142  0.7404
  100MOL   H18020178   6.226   7.380   1.645  0.4102 -1.8228  3.3929
  100MOL   H18120179   6.126   7.331   1.759  4.3158 -0.0011 -1.0789
  100MOL   C18220180   5.845   7.478   1.764 -0.5634 -0.7969  0.8102
  100MOL   C18320181   5.752   7.387   1.843  0.4080 -0.6953  0.1960
  100MOL   O18420182   5.686   7.465   1.945  0.2938  0.0505  0.1310
  100MOL   C18520183   5.757   7.506   2.057 -1.2636  0.3240  0.1948
  100MOL   H18620184   5.799   7.573   1.739 -1.5276 -1.4319  0.1661
  100MOL   H18720185   5.928   7.498   1.832 -0.8899 -1.2367  1.3397
  100MOL   H18820186   5.809   7.306   1.889  1.4774  1.3323  2.5058
  100MOL   H18920187   5.687   7.539   2.134  0.2222  0.5193  1.4695
  100MOL   H19020188   5.836   7.438   2.088 -0.6835  0.5434 -0.7850
  100MOL   H19120189   5.808   7.597   2.023 -0.1202 -0.9405 -1.5601
  100MOL   C19220190   5.635   7.322   1.776  0.2542 -0.2494 -0.0648
  100MOL   C19320191   5.560   7.229   1.882 -0.8308 -0.4810 -0.2707
  100MOL   O19420192   5.449   7.163   1.818 -0.0392  0.0538 -0.4158
  100MOL   C19520193   5.400   7.072   1.913  0.0003  0.6288 -0.2785
  100MOL   H19620194   5.663   7.257   1.694 -0.3544 -0.8884  0.2234
  100MOL   H19720195   5.569   7.396   1.732  0.2331 -0.4842 -0.4346
  100MOL   H19820196   5.519   7.284   1.967  1.1057 -0.8670  0.9521
  100MOL   H19920197   5.420   7.109   2.013  0.6656  0.8164 -0.4728
  100MOL   H20020198   5.293   7.062   1.900 -0.0084  2.4160 -1.8904
  100MOL   H20120199   5.455   6.978   1.900 -1.9368 -0.6692  0.6686
  100MOL   H20220200   5.621   7.144   1.913  0.7206  0.4391 -0.7042
  101MOL     C120201   6.568   6.143   5.456 -0.0620 -0.7404  0.2216
  101MOL     C220202   6.466   6.050   5.404 -0.5681 -0.0366 -0.3963
  101MOL     O320203   6.336   6.115   5.400  0.0382  0.3509  0.0621
  101MOL     C420204   6.268   6.124   5.529 -0.3425 -0.6197 -0.2856
  101MOL     H520205   6.556   6.156   5.564 -1.0228 -1.7531  0.2525
  101MOL     H620206   6.672   6.113   5.447  0.1199  0.2970 -1.3406
  101MOL     H720207   6.467   5.962   5.469  1.4397  0.0661 -0.2710
  101MOL     H820208   6.258   6.031   5.584  0.9476 -0.1213  0.8309
  101MOL     H920209   6.317   6.183   5.607 -0.7356  0.7042 -1.0290
  101MOL    H1020210   6.167   6.164   5.517 -0.1670  0.0218  0.3420
  101MOL    H1120211   6.556   6.242   5.411  0.6824 -0.0938  1.3998
  101MOL    C1220212   6.491   6.012   5.253  0.8089  0.0294  0.2759
  101MOL    C1320213   6.434   5.880   5.196 -0.1120  1.2223  0.0667
  101MOL    O1420214   6.500   5.759   5.239  0.0436  0.0122 -0.0632
  101MOL    C1520215   6.517   5.650   5.155  0.1500 -0.3388 -0.3968
  101MOL    H1620216   6.600   6.002   5.245  1.0387  1.4492  1.2568
  101MOL    H1720217   6.482   6.101   5.191 -0.2447 -1.4462 -1.7312
  101MOL    H1820218   6.453   5.884   5.089  2.1227 -1.0857  0.3255
  101MOL    H1920219   6.521   5.560   5.216 -1.4262  1.0391  1.8669
  101MOL    H2020220   6.430   5.639   5.090 -0.7778 -1.1491  0.9531
  101MOL    H2120221   6.611   5.659   5.101 -0.8403 -1.3746 -2.3395
  101MOL    C2220222   6.283   5.866   5.220  0.2599 -0.3959  0.2541
  101MOL    C2320223   6.200   5.969   5.142 -0.1243  0.1698 -0.2928
  101MOL    O2420224   6.204   5.949   4.992  0.2837 -0.1049  0.4558
  101MOL    C2520225   6.162   5.818   4.950 -0.4204  0.7969 -0.0065
  101MOL    H2620226   6.263   5.880   5.327  0.2889  2.0702 -0.0367
  101MOL    H2720227   6.251   5.762   5.213  0.0027 -0.4443  1.8691
  101MOL    H2820228   6.235   6.072   5.158  1.3164 -0.3522  0.0126
  101MOL    H2920229   6.177   5.818   4.842  0.5656 -0.5575  0.1055
  101MOL    H3020230   6.221   5.740   4.998 -0.2920  1.8707  1.6091
  101MOL    H3120231   6.058   5.798   4.974  0.3560 -1.5726  1.6169
  101MOL    C3220232   6.050   5.974   5.192 -0.6500  0.3660  0.2480
  101MOL    C3320233   5.962   6.080   5.128  0.3219 -0.7858  0.2323
  101MOL    O3420234   5.838   6.042   5.190  0.4831 -0.3032  0.8445
  101MOL    C3520235   5.730   6.101   5.119 -0.4114  0.3570  0.0440
  101MOL    H3620236   6.068   5.988   5.298  0.6611 -0.0588  0.0845
  101MOL    H3720237   6.010   5.873   5.178 -1.1162  0.6307 -0.3665
  101MOL    H3820238   5.956   6.072   5.020 -0.2230  1.9964  0.0373
  101MOL    H3920239   5.632   6.075   5.161 -1.8899  2.3645 -2.0085
  101MOL    H4020240   5.728   6.210   5.120  0.6626  0.3756  0.2374
  101MOL    H4120241   5.738   6.062   5.018 -0.5534  0.3009  0.0542
  101MOL    C4220242   6.018   6.221   5.162 -0.1519  0.4189  0.0152
  101MOL    C4320243   6.063   6.294   5.038  0.0899  0.2018  0.3062
  101MOL    O4420244   5.933   6.322   4.983  0.6496 -0.1462  0.5917
  101MOL    C4520245   5.933   6.376   4.854  0.6796  0.0902 -0.2553
  101MOL    H4620246   6.098   6.228   5.236 -1.0180  0.5630  0.9516
  101MOL    H4720247   5.944   6.277   5.219 -2.8758 -0.3285 -2.6320
  101MOL    H4820248   6.131   6.224   4.990  0.1188  1.1365 -1.0546
  101MOL    H4920249   5.948   6.483   4.846 -3.2416  0.6837 -0.5281
  101MOL    H5020250   5.992   6.313   4.787 -1.1149 -1.2591 -0.6263
  101MOL    H5120251   5.830   6.362   4.819  1.1273 -3.7312 -0.2750
  101MOL    C5220252   6.130   6.426   5.094  0.0090 -0.6109 -0.0768
  101MOL    C5320253   6.213   6.495   4.994 -0.1031  0.1010 -0.5099
  101MOL    O5420254   6.249   6.624   5.039  0.0024 -0.5530  0.2279
  101MOL    C5520255   6.148   6.722   5.013 -0.2361 -0.3862 -0.5110
  101MOL    H5620256   6.191   6.408   5.182 -1.7940  0.9683  1.5467
  101MOL    H5720257   6.052   6.489   5.137  0.6393 -0.2149  0.4774
  101MOL    H5820258   6.160   6.510   4.900 -0.5786  1.0937 -0.0889
  101MOL    H5920259   6.144   6.748   4.907  2.7992  2.0804 -0.0971
  101MOL    H6020260   6.049   6.691   5.044 -1.3434  2.4402 -1.0318
  101MOL    H6120261   6.166   6.817   5.063  0.2780 -0.3938 -0.6787
  101MOL    C6220262   6.348   6.429   4.968  0.1323 -0.4099  0.8228
  101MOL    C6320263   6.434   6.496   4.856  0.0325 -0.2336 -0.1326
  101MOL    O6420264   6.574   6.509   4.897  0.1845 -0.4550  0.0434
  101MOL    C6520265   6.604   6.634   4.936  0.0543 -0.3761  0.1868
  101MOL    H6620266   6.339   6.321   4.951  1.6422 -0.4924  0.5052
  101MOL    H6720267   6.401   6.425   5.062  0.1998 -1.2812  0.7526
  101MOL    H6820268   6.399   6.596   4.832 -0.1589 -0.3967 -0.5279
  101MOL    H6920269   6.542   6.674   5.017 -3.5063  0.9847 -3.0852
  101MOL    H7020270   6.707   6.623   4.972  0.3146 -3.0954 -1.2099
  101MOL    H7120271   6.600   6.710   4.859 -1.8994  0.8682  1.4710
  101MOL    C7220272   6.424   6.431   4.717 -0.0155  0.1677 -0.4189
  101MOL    C7320273   6.289   6.459   4.645 -0.2388 -0.0057 -0.0039
  101MOL    O7420274   6.285   6.597   4.609  0.3879 -0.1409  0.4477
  101MOL    C7520275   6.159   6.655   4.606 -0.6782  0.2223 -0.3444
  101MOL    H7620276   6.453   6.326   4.728 -0.8288 -0.2137 -1.7118
  101MOL    H7720277   6.505   6.453   4.647  0.2136 -0.4716 -0.3594
  101MOL    H7820278   6.208   6.435   4.715  0.0729  1.6109  0.9319
  101MOL    H7920279   6.097   6.632   4.692  1.9713 -1.1240  1.2793
  101MOL    H8020280   6.166   6.764   4.608 -1.7974  0.4043 -3.0149
  101MOL    H8120281   6.115   6.632   4.509 -1.9303 -0.0796  0.2905
  101MOL    C8220282   6.289   6.381   4.517 -0.3135 -0.3280  0.4926
  101MOL    C8320283   6.273   6.224   4.516  0.1239  0.5746 -0.6344
  101MOL    O8420284   6.159   6.202   4.599 -0.2162 -0.1194  0.5070
  101MOL    C8520285   6.184   6.135   4.719  0.4748  0.1654  0.0992
  101MOL    H8620286   6.373   6.405   4.452 -1.0325  0.7575 -0.0454
  101MOL    H8720287   6.199   6.413   4.465 -0.0968  1.1356  0.9869
  101MOL    H8820288   6.363   6.176   4.556 -0.4488 -0.7508 -0.9027
  101MOL    H8920289   6.092   6.094   4.760  0.0603  1.3579  0.3783
  101MOL    H9020290   6.239   6.047   4.686  0.3286  0.0370  0.2055
  101MOL    H9120291   6.239   6.208   4.779  2.8211 -0.5295 -1.1082
  101MOL    C9220292   6.242   6.177   4.369 -0.4536  0.3601 -0.2062
  101MOL    C9320293   6.201   6.027   4.354  0.3623  0.4976 -0.5235
  101MOL    O9420294   6.139   6.007   4.226  0.3773 -0.4261 -0.0996
  101MOL    C9520295   5.998   6.036   4.232 -0.0308  0.0219  0.5828
  101MOL    H9620296   6.334   6.204   4.315 -0.3737  1.8787  0.6469
  101MOL    H9720297   6.167   6.245   4.328 -1.9845 -0.9627  0.3598
  101MOL    H9820298   6.142   5.987   4.436 -0.8210 -0.1032 -1.6404
  101MOL    H9920299   5.953   5.951   4.283  1.0038  0.8234  2.9153
  101MOL   H10020300   5.964   6.130   4.277  0.2355  0.6294 -0.4794
  101MOL   H10120301   5.962   6.052   4.130  1.6416  4.2214  0.5526
  101MOL   C10220302   6.325   5.936   4.356  0.4744 -0.2242  0.2548
  101MOL   C10320303   6.322   5.792   4.417 -0.7811 -0.7658  0.0400
  101MOL   O10420304   6.305   5.809   4.557  0.3293 -0.3369 -0.0972
  101MOL   C10520305   6.407   5.762   4.634  0.0108 -0.3358 -0.0509
  101MOL   H10620306   6.407   5.978   4.414  0.8284 -0.8007  0.1665
  101MOL   H10720307   6.360   5.935   4.253  2.1749  1.4227  0.7946
  101MOL   H10820308   6.421   5.751   4.396  1.0202  1.6084  3.3702
  101MOL   H10920309   6.376   5.754   4.738  0.3034  0.3139  0.0872
  101MOL   H11020310   6.428   5.658   4.606 -1.7581 -1.0188  1.0584
  101MOL   H11120311   6.495   5.824   4.617 -0.0466 -0.1880  0.1901
  101MOL   C11220312   6.214   5.696   4.358 -0.0171  0.1861  0.1927
  101MOL   C11320313   6.239   5.544   4.373  0.7781 -0.1409 -0.6975
  101MOL   O11420314   6.245   5.507   4.515  0.5579  0.1761 -0.2734
  101MOL   C11520315   6.135   5.533   4.599 -0.9123  0.2494 -0.1334
  101MOL   H11620316   6.213   5.714   4.250  0.4592 -0.9316 -0.0164
  101MOL   H11720317   6.114   5.731   4.384  0.2398 -1.1276  3.1609
  101MOL   H11820318   6.331   5.512   4.324  0.8284 -0.0508 -0.6614
  101MOL   H11920319   6.052   5.470   4.569 -0.7392  0.4247 -0.9826
  101MOL   H12020320   6.154   5.507   4.703 -0.5864 -0.7450 -0.4369
  101MOL   H12120321   6.099   5.636   4.597 -2.9483 -0.4507 -1.0184
  101MOL   C12220322   6.124   5.470   4.303 -0.2757 -0.8313  0.0384
  101MOL   C12320323   6.143   5.319   4.283 -0.2838 -0.1794  0.6463
  101MOL   O12420324   6.029   5.266   4.219  0.6027  0.3919  0.6171
  101MOL   C12520325   5.919   5.241   4.302  0.2803  0.0542 -0.1338
  101MOL   H12620326   6.124   5.508   4.201  0.7816  0.0637  0.3631
  101MOL   H12720327   6.027   5.491   4.347  0.9980  1.5457  1.8397
  101MOL   H12820328   6.150   5.272   4.381 -0.6518 -0.6419  0.4508
  101MOL   H12920329   5.850   5.175   4.250  0.3178  0.2309 -0.4118
  101MOL   H13020330   5.948   5.184   4.391  1.6190 -0.1469 -0.6798
  101MOL   H13120331   5.871   5.336   4.323  1.6026  1.1256 -1.8050
  101MOL   C13220332   6.257   5.271   4.191 -0.0005 -0.9510  0.2565
  101MOL   C13320333   6.281   5.116   4.199 -0.1021  0.0585 -0.0738
  101MOL   O13420334   6.242   5.067   4.071 -0.4002 -0.0213 -0.4503
  101MOL   C13520335   6.192   4.933   4.061  0.2926 -0.6538  0.2070
  101MOL   H13620336   6.350   5.329   4.195 -1.4506  1.3871  0.8802
  101MOL   H13720337   6.232   5.294   4.088 -2.7382 -2.1459  0.6188
  101MOL   H13820338   6.230   5.085   4.290  0.0692 -1.2604 -0.4191
  101MOL   H13920339   6.273   4.867   4.092  1.1659  0.4955  0.4069
  101MOL   H14020340   6.113   4.914   4.134  1.7963  1.8308  2.5587
  101MOL   H14120341   6.159   4.908   3.961  0.2077  0.7025 -0.1114
  101MOL   C14220342   6.432   5.077   4.223 -0.0858  0.2315  0.3930
  101MOL   C14320343   6.488   5.133   4.357 -0.4839  0.3089  0.7107
  101MOL   O14420344   6.420   5.066   4.461 -0.2649  0.1784 -0.3395
  101MOL   C14520345   6.429   5.135   4.587  1.2740  0.4105  0.4846
  101MOL   H14620346   6.499   5.118   4.147 -0.1299  1.2644  0.9092
  101MOL   H14720347   6.435   4.968   4.217 -0.4117  0.1527  1.5961
  101MOL   H14820348   6.483   5.241   4.356  4.4496  0.6751  0.8827
  101MOL   H14920349   6.368   5.070   4.650 -1.7303  1.0398 -1.6622
  101MOL   H15020350   6.535   5.138   4.609  1.5166 -0.3845 -0.5126
  101MOL   H15120351   6.386   5.235   4.587  0.6532  0.1497  0.5975
  101MOL   C15220352   6.638   5.093   4.367  0.2327 -0.5001  0.0105
  101MOL   C15320353   6.737   5.186   4.287 -0.1881 -0.0082  0.0890
  101MOL   O15420354   6.754   5.307   4.364 -0.0180  0.3624 -0.4217
  101MOL   C15520355   6.777   5.417   4.281 -0.4560  0.4599 -0.2476
  101MOL   H15620356   6.661   4.991   4.339 -1.2489 -0.4526 -1.4403
  101MOL   H15720357   6.680   5.107   4.467 -0.3077  0.2850  0.1409
  101MOL   H15820358   6.707   5.204   4.184 -0.6913 -3.5916 -0.4311
  101MOL   H15920359   6.826   5.496   4.339  1.0789 -0.4215 -0.3116
  101MOL   H16020360   6.850   5.397   4.203  0.3597  1.8594  0.1294
  101MOL   H16120361   6.684   5.452   4.235 -2.5488 -1.7314  2.1358
  101MOL   C16220362   6.876   5.128   4.276 -0.0184  0.0337 -0.2045
  101MOL   C16320363   6.899   4.984   4.218  0.1087 -0.1733  0.4060
  101MOL   O16420364   6.869   4.887   4.312  0.0958  0.0744  0.2763
  101MOL   C16520365   6.977   4.836   4.396  0.4084 -0.6729  0.6302
  101MOL   H16620366   6.918   5.130   4.376 -0.9496 -0.1657  0.1943
  101MOL   H16720367   6.936   5.194   4.213  1.2613 -0.3490  0.5979
  101MOL   H16820368   7.001   4.960   4.187 -0.1495 -1.9099  0.8579
  101MOL   H16920369   7.039   4.765   4.340 -3.6057 -2.6743 -1.5039
  101MOL   H17020370   7.034   4.916   4.444 -1.0160 -0.4467  1.9628
  101MOL   H17120371   6.934   4.779   4.478 -0.9174 -1.9429 -0.9076
  101MOL   C17220372   6.808   4.950   4.098  0.5227 -0.2784  0.0697
  101MOL   C17320373   6.866   4.976   3.962  0.2607 -0.2821 -0.1048
  101MOL   O17420374   7.003   4.942   3.952 -0.0661  0.2169  0.2439
  101MOL   C17520375   7.029   4.801   3.925 -0.8269  0.6945 -0.2386
  101MOL   H17620376   6.715   5.006   4.109  1.1560  0.5290  1.4532
  101MOL   H17720377   6.781   4.844   4.103 -1.5673  0.0293 -2.9898
  101MOL   H17820378   6.865   5.084   3.948 -3.4167 -0.3503 -1.1074
  101MOL   H17920379   7.032   4.745   4.018  2.8974  0.2439 -0.5389
  101MOL   H18020380   6.960   4.752   3.857 -0.2316 -2.6954  1.4747
  101MOL   H18120381   7.128   4.783   3.883 -0.0574  1.4145  1.1943
  101MOL   C18220382   6.768   4.918   3.853  0.4415 -0.5826  0.0999
  101MOL   C18320383   6.638   5.000   3.828  0.0058 -0.3133 -0.0744
  101MOL   O18420384   6.674   5.105   3.734  0.0148  0.8459  0.1295
  101MOL   C18520385   6.645   5.236   3.779  0.0177  0.0186 -0.7483
  101MOL   H18620386   6.745   4.817   3.885  1.9966 -0.6589  1.0405
  101MOL   H18720387   6.831   4.924   3.763  0.0082 -1.1573 -0.2458
  101MOL   H18820388   6.601   5.028   3.927 -2.2865 -1.0114 -0.7198
  101MOL   H18920389   6.539   5.248   3.758  0.4149  1.5544 -1.9945
  101MOL   H19020390   6.658   5.246   3.887 -1.9931  0.4865 -0.5203
  101MOL   H19120391   6.697   5.316   3.726  1.1675 -0.3350 -0.1645
  101MOL   C19220392   6.533   4.916   3.761 -0.1243 -0.1879 -0.5777
  101MOL   C19320393   6.480   4.786   3.834 -0.1315 -0.7139  0.0583
  101MOL   O19420394   6.385   4.751   3.746 -0.0797  0.3503  0.7875
  101MOL   C19520395   6.330   4.629   3.788  0.2756  0.5903 -0.5307
  101MOL   H19620396   6.578   4.890   3.665 -1.1761 -1.0319 -0.8455
  101MOL   H19720397   6.452   4.980   3.725 -0.2827 -1.1197 -1.9200
  101MOL   H19820398   6.430   4.814   3.927  0.4441 -0.5691  0.3238
  101MOL   H19920399   6.400   4.545   3.785 -0.2815  0.1022  0.0280
  101MOL   H20020400   6.267   4.649   3.875  0.9727 -0.9208  0.3498
  101MOL   H20120401   6.262   4.604   3.707  2.1872 -0.8115 -1.7487
  101MOL   H20220402   6.554   4.710   3.855 -0.2039 -0.2933  1.8750
  102MOL     C120403   0.794   5.891   0.955  0.1619 -0.8934  0.2755
  102MOL     C220404   0.776   5.824   1.089  0.0854  0.0025 -0.3408
  102MOL     O320405   0.722   5.914   1.184  0.5547  0.2978  0.4785
  102MOL     C420406   0.812   6.004   1.241 -0.1470  0.2771 -0.8987
  102MOL     H520407   0.837   5.816   0.888  2.7560  0.6278  0.1499
  102MOL     H620408   0.702   5.933   0.915  0.4816  0.0473  0.5203
  102MOL     H720409   0.874   5.793   1.126  0.3511 -0.6944 -1.5924
  102MOL     H820410   0.771   6.025   1.340 -2.9498  2.5907 -2.4535
  102MOL     H920411   0.905   5.959   1.276 -1.1116 -1.8670 -1.0336
  102MOL    H1020412   0.834   6.098   1.191 -1.0631  2.4362  2.5804
  102MOL    H1120413   0.860   5.977   0.970  0.0794 -0.5653 -1.1503
  102MOL    C1220414   0.694   5.692   1.086  0.5630 -0.3566  0.4458
  102MOL    C1320415   0.708   5.590   1.195  0.5000  0.2670 -0.6662
  102MOL    O1420416   0.845   5.569   1.224 -0.1427  0.6833 -0.0146
  102MOL    C1520417   0.912   5.487   1.126  0.3070 -0.4496  0.1042
  102MOL    H1620418   0.730   5.644   0.995  2.7177  3.6800 -0.9678
  102MOL    H1720419   0.588   5.716   1.074  0.4181 -0.8445  0.7514
  102MOL    H1820420   0.672   5.493   1.159 -0.1286 -0.6696  2.3439
  102MOL    H1920421   0.915   5.533   1.027 -0.9038 -0.9894 -0.2040
  102MOL    H2020422   1.018   5.474   1.146  0.6706 -1.1151 -2.0963
  102MOL    H2120423   0.871   5.386   1.128  0.7165 -0.5906  1.3107
  102MOL    C2220424   0.638   5.635   1.329  0.2471  0.2224 -1.1722
  102MOL    C2320425   0.621   5.535   1.440  0.0515 -0.0253 -0.1864
  102MOL    O2420426   0.549   5.593   1.551  0.1834  0.4661 -0.5778
  102MOL    C2520427   0.603   5.568   1.677  0.3585  0.1500  0.4533
  102MOL    H2620428   0.549   5.687   1.292  0.0744  2.9472  2.7794
  102MOL    H2720429   0.699   5.718   1.366 -1.7744  0.5970  1.4311
  102MOL    H2820430   0.720   5.509   1.476  0.6432  1.8018 -0.4224
  102MOL    H2920431   0.695   5.625   1.687  1.7772 -1.6165 -1.9323
  102MOL    H3020432   0.536   5.611   1.751  0.2392  2.0104 -0.7051
  102MOL    H3120433   0.624   5.463   1.698  1.1066  0.0864 -0.5927
  102MOL    C3220434   0.551   5.395   1.401 -0.5581 -0.4513 -0.0494
  102MOL    C3320435   0.399   5.408   1.363 -0.3403 -0.0269 -0.3187
  102MOL    O3420436   0.406   5.464   1.236  0.6332  0.0950  0.2777
  102MOL    C3520437   0.280   5.513   1.185 -0.5833  0.9787  0.0120
  102MOL    H3620438   0.558   5.322   1.482 -0.5033 -0.1580  0.2108
  102MOL    H3720439   0.612   5.351   1.322  0.1743  0.7825 -0.1866
  102MOL    H3820440   0.345   5.476   1.430 -1.2145 -3.8843  3.0485
  102MOL    H3920441   0.274   5.492   1.078  0.4603 -0.8151  0.2782
  102MOL    H4020442   0.202   5.449   1.225 -2.3386  1.7795 -2.0351
  102MOL    H4120443   0.263   5.616   1.215  1.7837  1.4030 -0.0132
  102MOL    C4220444   0.327   5.271   1.368 -0.1649  0.2419 -0.2284
  102MOL    C4320445   0.235   5.251   1.491 -0.2804 -0.7350  0.4702
  102MOL    O4420446   0.171   5.128   1.479 -0.6510 -0.2348 -0.0246
  102MOL    C4520447   0.056   5.130   1.398 -0.1174  0.9430  0.2142
  102MOL    H4620448   0.404   5.194   1.367 -0.0125  0.3978 -1.0923
  102MOL    H4720449   0.273   5.256   1.275 -0.2342  0.4893 -0.2298
  102MOL    H4820450   0.156   5.327   1.494 -0.7912 -1.3155  3.2898
  102MOL    H4920451   0.035   5.025   1.377 -0.6154  1.0287  0.2936
  102MOL    H5020452   7.777   5.171   1.445 -0.0991  0.9380  0.2547
  102MOL    H5120453   0.065   5.184   1.304 -0.3467  0.6892  0.0450
  102MOL    C5220454   0.311   5.245   1.627 -0.6238 -0.1820 -0.3130
  102MOL    C5320455   0.230   5.287   1.753 -0.0239 -0.2368  0.2761
  102MOL    O5420456   0.269   5.201   1.860  0.6135 -0.2078  0.1166
  102MOL    C5520457   0.186   5.078   1.862 -0.6692  0.0903 -0.1897
  102MOL    H5620458   0.397   5.311   1.616 -2.6829  1.9395 -5.0552
  102MOL    H5720459   0.341   5.142   1.641 -2.6945 -0.5179  1.9416
  102MOL    H5820460   0.122   5.287   1.743 -0.1241  0.7739  1.3737
  102MOL    H5920461   0.207   5.007   1.942 -3.0124 -0.4736 -0.0489
  102MOL    H6020462   0.082   5.112   1.859 -0.5519  0.3508 -1.5032
  102MOL    H6120463   0.217   5.021   1.774 -0.8845  0.8912 -0.7917
  102MOL    C6220464   0.270   5.426   1.805  0.1517 -0.1036 -0.2019
  102MOL    C6320465   0.191   5.530   1.726  0.2033  0.0321 -0.3061
  102MOL    O6420466   0.047   5.522   1.752 -0.0168 -0.3351 -0.3337
  102MOL    C6520467   0.004   5.547   1.889  0.2732 -0.7365 -0.0359
  102MOL    H6620468   0.378   5.442   1.804 -0.2161  2.5211 -1.2441
  102MOL    H6720469   0.248   5.424   1.912  0.6788 -0.1060 -0.0950
  102MOL    H6820470   0.194   5.502   1.621 -0.2065  1.9610 -0.8482
  102MOL    H6920471   7.706   5.555   1.882  0.5891  2.1674 -2.2816
  102MOL    H7020472   0.033   5.465   1.955 -0.3547  1.1042  2.6360
  102MOL    H7120473   0.046   5.640   1.926 -1.1581 -0.2831  0.4874
  102MOL    C7220474   0.247   5.675   1.750 -0.2714  0.0993 -0.3885
  102MOL    C7320475   0.169   5.784   1.668  0.0418 -0.5250  0.4680
  102MOL    O7420476   0.208   5.917   1.721  0.4462  0.1552 -0.5204
  102MOL    C7520477   0.120   5.960   1.825 -0.1759 -0.3826 -0.4116
  102MOL    H7620478   0.352   5.677   1.721  0.5294  0.0753  2.4459
  102MOL    H7720479   0.245   5.700   1.856 -1.0200  1.0686 -0.6302
  102MOL    H7820480   0.066   5.749   1.676 -0.4675  0.4842 -1.3811
  102MOL    H7920481   0.157   6.058   1.854 -0.5678 -0.8277  1.6586
  102MOL    H8020482   0.020   5.976   1.785 -0.2254  0.9622  0.2238
  102MOL    H8120483   0.138   5.900   1.914  0.3888 -0.9126 -0.8799
  102MOL    C8220484   0.199   5.769   1.517 -0.2061  0.3653 -0.4405
  102MOL    C8320485   0.123   5.859   1.414 -0.0190 -0.6138 -0.1452
  102MOL    O8420486   7.790   5.853   1.424 -0.7294 -0.3005  0.0371
  102MOL    C8520487   7.728   5.734   1.383  0.0918 -0.7359 -0.0768
  102MOL    H8620488   0.177   5.666   1.489 -1.7497 -0.5903  3.8664
  102MOL    H8720489   0.307   5.780   1.504 -0.2184  4.2473  1.9056
  102MOL    H8820490   0.162   5.821   1.319  3.1910 -0.4222  1.0069
  102MOL    H8920491   7.747   5.663   1.464 -0.0536 -1.8108 -0.9809
  102MOL    H9020492   7.621   5.754   1.379  0.6140  1.9602 -1.9491
  102MOL    H9120493   7.755   5.697   1.284 -0.4714 -0.3051 -0.3871
  102MOL    C9220494   0.158   6.009   1.439 -0.0795  0.4679 -0.5152
  102MOL    C9320495   0.295   6.056   1.413 -0.0780 -0.1175 -0.0247
  102MOL    O9420496   0.321   6.028   1.279 -0.4080 -0.0582  0.2988
  102MOL    C9520497   0.461   6.005   1.254  0.3579  0.0520 -0.2394
  102MOL    H9620498   0.132   6.044   1.539 -1.0128 -1.3004 -0.1177
  102MOL    H9720499   0.099   6.076   1.375 -0.1426  0.8601 -0.0458
  102MOL    H9820500   0.355   5.985   1.470  0.7180  0.5110 -0.0619
  102MOL    H9920501   0.506   6.104   1.269  1.2824 -0.4338  0.2218
  102MOL   H10020502   0.516   5.940   1.322 -1.4080  0.0506  1.2412
  102MOL   H10120503   0.483   5.976   1.152  1.4842  1.6558 -0.4738
  102MOL   C10220504   0.335   6.203   1.453 -0.0918  0.1074 -0.3769
  102MOL   C10320505   0.420   6.209   1.583 -0.0660  0.2780  0.0107
  102MOL   O10420506   0.542   6.139   1.551  0.1923  0.4022 -0.0223
  102MOL   C10520507   0.587   6.045   1.645 -0.4153  0.3725 -0.2924
  102MOL   H10620508   0.245   6.265   1.456 -0.1297  0.0107  1.1802
  102MOL   H10720509   0.394   6.252   1.376 -0.2564 -0.7792 -1.0669
  102MOL   H10820510   0.366   6.149   1.657 -0.0394 -1.9423 -1.7208
  102MOL   H10920511   0.507   5.983   1.685  1.3504 -0.7253  1.6664
  102MOL   H11020512   0.667   5.987   1.599 -0.4154  0.7647 -0.7826
  102MOL   H11120513   0.635   6.094   1.730 -0.4922 -0.9760  0.5434
  102MOL   C11220514   0.449   6.352   1.639  0.1212 -0.1254  0.1512
  102MOL   C11320515   0.326   6.434   1.678 -0.8571  0.0282 -0.2343
  102MOL   O11420516   0.280   6.359   1.793 -0.2174 -0.1098  0.5129
  102MOL   C11520517   0.145   6.378   1.826  0.0212 -0.5061  0.1988
  102MOL   H11620518   0.482   6.402   1.548  0.4015 -3.2844 -1.5878
  102MOL   H11720519   0.518   6.349   1.723 -1.8374  1.2888  1.8435
  102MOL   H11820520   0.249   6.429   1.601 -2.1125  0.2357  0.9868
  102MOL   H11920521   0.100   6.312   1.900 -2.5987  0.0594 -0.8071
  102MOL   H12020522   0.143   6.475   1.876  0.8309 -1.7283  2.6952
  102MOL   H12120523   0.082   6.365   1.737 -1.2657  0.4637  0.9457
  102MOL   C12220524   0.349   6.580   1.718  1.0651 -0.1438 -0.1897
  102MOL   C12320525   0.360   6.679   1.598 -0.2498  0.1524 -0.3863
  102MOL   O12420526   0.474   6.655   1.519  0.4947 -0.2803  0.4942
  102MOL   C12520527   0.598   6.673   1.586 -0.8645  0.2173  0.6534
  102MOL   H12620528   0.432   6.597   1.785  1.4603  1.1136 -0.9925
  102MOL   H12720529   0.260   6.616   1.770  0.2086 -1.1212 -0.9629
  102MOL   H12820530   0.375   6.776   1.645  0.3989 -0.1552  0.0415
  102MOL   H12920531   0.679   6.713   1.524 -1.1040 -1.2821 -0.6387
  102MOL   H13020532   0.600   6.744   1.669 -1.7342  0.2974  0.6112
  102MOL   H13120533   0.631   6.575   1.619 -1.4000 -0.5370 -1.0147
  102MOL   C13220534   0.239   6.672   1.500 -0.1261  0.2221  0.0160
  102MOL   C13320535   0.197   6.789   1.414  0.2207  0.2613  0.3482
  102MOL   O13420536   0.180   6.887   1.512 -0.5889 -1.1596 -0.1868
  102MOL   C13520537   0.099   6.995   1.492 -0.1695 -0.1500  0.2579
  102MOL   H13620538   0.158   6.647   1.568  0.3810  0.3553  0.6662
  102MOL   H13720539   0.256   6.589   1.432  0.7957  0.6344 -0.2643
  102MOL   H13820540   0.097   6.781   1.371  0.1284 -2.9209  1.0748
  102MOL   H13920541   0.124   7.075   1.562 -1.6363  1.3292 -0.8715
  102MOL   H14020542   0.111   7.029   1.389  2.1649 -1.1168  0.1799
  102MOL   H14120543   7.803   6.977   1.502 -0.3882  1.0010  0.0533
  102MOL   C14220544   0.308   6.821   1.306  0.4636 -0.4557  0.1026
  102MOL   C14320545   0.324   6.724   1.186  0.8322 -0.1037  0.5672
  102MOL   O14420546   0.200   6.716   1.113 -0.4460 -0.0553 -0.8227
  102MOL   C14520547   0.137   6.591   1.128  0.0764 -0.4156  0.6504
  102MOL   H14620548   0.404   6.840   1.355  0.8608 -2.2274  0.0140
  102MOL   H14720549   0.272   6.909   1.252  0.5552  1.0561  2.4077
  102MOL   H14820550   0.350   6.628   1.230  1.1663 -0.0717  0.4409
  102MOL   H14920551   0.137   6.554   1.231 -1.7871  2.7270  1.8779
  102MOL   H15020552   0.037   6.609   1.089 -0.0289  0.7577  1.4194
  102MOL   H15120553   0.192   6.518   1.070  0.8387 -1.6090  2.8176
  102MOL   C15220554   0.435   6.769   1.090 -0.7459 -0.2705  0.1342
  102MOL   C15320555   0.463   6.679   0.974  0.9536  0.7955  0.6154
  102MOL   O15420556   0.555   6.748   0.888  0.2066  0.1735 -0.2333
  102MOL   C15520557   0.501   6.837   0.792 -0.1495 -0.5229  0.0076
  102MOL   H15620558   0.526   6.771   1.149 -0.1313 -0.2934 -0.8111
  102MOL   H15720559   0.416   6.869   1.051 -1.3872 -0.8952 -1.1741
  102MOL   H15820560   0.375   6.661   0.913  3.3788 -1.6398 -2.2687
  102MOL   H15920561   0.425   6.796   0.725  0.1595  1.9335 -1.9396
  102MOL   H16020562   0.454   6.924   0.837  1.1844 -0.7344  1.8311
  102MOL   H16120563   0.571   6.882   0.721  1.1193 -1.8273  0.4188
  102MOL   C16220564   0.522   6.541   1.016  0.1788 -0.2245  0.9055
  102MOL   C16320565   0.557   6.448   0.896 -0.3427  0.3799  0.2855
  102MOL   O16420566   0.697   6.429   0.896 -0.0547 -0.4088  0.3980
  102MOL   C16520567   0.761   6.514   0.806  0.0753  0.0048  0.2111
  102MOL   H16620568   0.438   6.498   1.071 -2.3228  0.0774 -2.4770
  102MOL   H16720569   0.610   6.553   1.078  0.3254  0.0466  0.6465
  102MOL   H16820570   0.526   6.515   0.815 -0.0144  0.0795 -0.0909
  102MOL   H16920571   0.865   6.484   0.796  0.3882  0.6794  1.3500
  102MOL   H17020572   0.720   6.507   0.705 -1.6911 -3.3165  1.1034
  102MOL   H17120573   0.759   6.620   0.834  1.7632  0.1259 -0.1123
  102MOL   C17220574   0.496   6.307   0.880 -0.1241  0.0976 -0.5230
  102MOL   C17320575   0.360   6.307   0.803 -0.3202 -0.3409 -0.1463
  102MOL   O17420576   0.380   6.354   0.671 -0.1530 -0.2300  0.3247
  102MOL   C17520577   0.288   6.453   0.635  0.2753 -0.4279  0.5246
  102MOL   H17620578   0.495   6.259   0.978  0.5127  0.5946 -0.2657
  102MOL   H17720579   0.561   6.256   0.809  3.2044  3.3501  0.0373
  102MOL   H17820580   0.294   6.381   0.850  2.3967  1.7902  0.4488
  102MOL   H17920581   0.282   6.538   0.703  0.3150 -2.5833  3.3317
  102MOL   H18020582   0.314   6.488   0.536  1.5926  0.7032  1.2586
  102MOL   H18120583   0.187   6.413   0.625  0.3085 -0.2683 -0.4842
  102MOL   C18220584   0.292   6.171   0.799  0.4667 -0.6659 -0.0532
  102MOL   C18320585   0.223   6.126   0.932 -1.0402  0.0011  0.0591
  102MOL   O18420586   0.131   6.228   0.969  0.1603 -0.1698 -0.5517
  102MOL   C18520587   0.093   6.226   1.109  0.2092  0.3629  0.3691
  102MOL   H18620588   0.350   6.097   0.744  1.9159  2.3277 -2.6901
  102MOL   H18720589   0.206   6.179   0.732 -0.9994 -0.6791  1.7955
  102MOL   H18820590   0.296   6.124   1.013  1.4109  0.4386 -2.0519
  102MOL   H18920591   0.034   6.316   1.126  1.3885  0.8602  1.8441
  102MOL   H19020592   0.039   6.138   1.145 -0.2590  0.1827 -0.7221
  102MOL   H19120593   0.174   6.242   1.179  0.1406  1.1170  0.2813
  102MOL   C19220594   0.159   5.994   0.916  0.6800  0.3294  0.1308
  102MOL   C19320595   0.257   5.878   0.937  0.4600 -0.3090 -0.2684
  102MOL   O19420596   0.195   5.756   0.960  0.3004 -0.2360  0.0804
  102MOL   C19520597   0.136   5.706   0.845 -0.0631 -0.2125  0.1364
  102MOL   H19620598   0.104   5.996   0.822  0.3862 -1.4036  0.2399
  102MOL   H19720599   0.080   5.991   0.992  1.1923  1.6965  0.7229
  102MOL   H19820600   0.294   5.908   1.035 -2.7252 -0.7165  1.1070
  102MOL   H19920601   0.206   5.685   0.764 -0.4761  0.5240 -0.4186
  102MOL   H20020602   0.088   5.612   0.872 -0.5220  0.1746  0.6752
  102MOL   H20120603   0.048   5.767   0.823  0.6607  1.9881  3.0655
  102MOL   H20220604   0.343   5.879   0.869  1.7070 -0.2276  1.2714
  103MOL     C120605   5.140   3.212   2.465  0.2041 -0.0180  0.1542
  103MOL     C220606   5.163   3.216   2.617 -0.0027  1.0854 -0.4922
  103MOL     O320607   5.199   3.082   2.660  0.2550  0.3242 -0.3510
  103MOL     C420608   5.088   2.990   2.684 -0.0949 -0.4548  0.8332
  103MOL     H520609   5.232   3.202   2.407  0.9596  2.1437  0.9466
  103MOL     H620610   5.063   3.140   2.439  0.8407 -0.7186  0.1608
  103MOL     H720611   5.070   3.240   2.669  0.5377  0.0607  0.9717
  103MOL     H820612   5.126   2.888   2.680 -0.8386 -0.6693 -2.5991
  103MOL     H920613   5.033   3.011   2.776  0.5916 -0.4909  1.2511
  103MOL    H1020614   5.012   2.993   2.605 -0.2186 -1.1958  0.9209
  103MOL    H1120615   5.095   3.304   2.429  0.6436 -0.5630 -1.8667
  103MOL    C1220616   5.276   3.305   2.671  0.2476  0.0824 -0.0153
  103MOL    C1320617   5.256   3.458   2.635 -0.2204  0.3091  0.3839
  103MOL    O1420618   5.141   3.505   2.706 -0.4766 -0.3047  0.0045
  103MOL    C1520619   5.044   3.584   2.635  0.2458 -0.1115 -0.9534
  103MOL    H1620620   5.378   3.271   2.651  0.0887 -0.8023  0.6386
  103MOL    H1720621   5.267   3.303   2.780 -2.0233  0.9215 -0.1650
  103MOL    H1820622   5.249   3.455   2.527  3.5295 -0.4417  0.1201
  103MOL    H1920623   4.971   3.600   2.714  0.3073  0.9708 -1.1110
  103MOL    H2020624   5.096   3.675   2.603  1.7403 -0.5780  0.0756
  103MOL    H2120625   5.012   3.538   2.542 -2.9949 -0.4796  0.3015
  103MOL    C2220626   5.371   3.556   2.672  0.1564  0.0647 -0.5370
  103MOL    C2320627   5.506   3.510   2.618 -0.7386 -0.0132  0.7996
  103MOL    O2420628   5.480   3.490   2.473  0.2000  0.5138  0.2283
  103MOL    C2520629   5.565   3.395   2.404 -0.2405  0.0675  0.1766
  103MOL    H2620630   5.382   3.556   2.781  0.3801 -0.1212 -0.5594
  103MOL    H2720631   5.341   3.656   2.641 -0.1697  0.4561  0.9598
  103MOL    H2820632   5.534   3.415   2.663  3.2436  1.2097  1.1092
  103MOL    H2920633   5.570   3.303   2.462 -1.5930 -1.2010 -1.6939
  103MOL    H3020634   5.528   3.372   2.304  0.2101  1.1504 -0.2399
  103MOL    H3120635   5.669   3.425   2.394  1.0522 -4.2168 -0.1621
  103MOL    C3220636   5.629   3.601   2.645 -1.6757 -0.4150 -0.5520
  103MOL    C3320637   5.645   3.634   2.798  0.7527  0.2491  0.7717
  103MOL    O3420638   5.652   3.510   2.867 -0.3782 -0.2301  0.2556
  103MOL    C3520639   5.600   3.517   2.998 -0.1577  0.0685  0.5106
  103MOL    H3620640   5.621   3.694   2.589  0.9132 -0.4362 -1.0236
  103MOL    H3720641   5.727   3.557   2.622 -0.8836  1.2410 -0.3909
  103MOL    H3820642   5.567   3.697   2.839  0.4625  0.0813  0.4772
  103MOL    H3920643   5.649   3.587   3.065 -0.0120  0.5731 -0.1180
  103MOL    H4020644   5.497   3.551   2.991 -0.2622 -0.3183  0.1129
  103MOL    H4120645   5.610   3.420   3.047  0.5426 -1.4007 -2.3876
  103MOL    C4220646   5.783   3.717   2.819  0.5755 -0.6699 -0.6724
  103MOL    C4320647   5.780   3.859   2.758 -0.3868 -0.9833 -0.5415
  103MOL    O4420648   5.769   3.956   2.864  0.4896  0.2044 -0.2403
  103MOL    C4520649   5.643   3.957   2.930  0.1249  0.0191  0.1175
  103MOL    H4620650   5.860   3.659   2.769  0.2302 -0.6976 -1.1677
  103MOL    H4720651   5.816   3.716   2.923  0.6232 -1.5545 -0.6940
  103MOL    H4820652   5.696   3.885   2.694 -0.4055 -0.5162 -0.3287
  103MOL    H4920653   5.618   3.864   2.980  0.4352  0.9712  2.0983
  103MOL    H5020654   5.644   4.030   3.011  0.2122  0.2238 -0.0650
  103MOL    H5120655   5.567   4.000   2.865  0.6454 -0.7382 -1.0245
  103MOL    C5220656   5.916   3.901   2.693 -0.9842 -0.1151  0.7046
  103MOL    C5320657   5.967   3.820   2.568  0.2860  0.4966 -0.1917
  103MOL    O5420658   5.851   3.777   2.493  0.7832  0.2715 -0.4704
  103MOL    C5520659   5.871   3.680   2.392  0.2327  0.0201 -0.9271
  103MOL    H5620660   5.985   3.909   2.777  2.0665 -0.0758 -1.7240
  103MOL    H5720661   5.916   4.006   2.666  1.3242  0.2870  2.0693
  103MOL    H5820662   6.025   3.731   2.590  0.0928  0.9116  2.1590
  103MOL    H5920663   5.774   3.636   2.369 -0.1962  2.0413 -3.1741
  103MOL    H6020664   5.921   3.720   2.303 -0.9641 -0.1230 -1.6758
  103MOL    H6120665   5.938   3.605   2.433 -1.6596 -0.3788  1.5312
  103MOL    C6220666   6.059   3.910   2.479  1.0850 -0.1212  0.8332
  103MOL    C6320667   6.190   3.958   2.536  0.3201 -1.1825 -0.4779
  103MOL    O6420668   6.248   3.835   2.576 -0.0291  0.5077  0.1544
  103MOL    C6520669   6.337   3.854   2.687 -0.9231 -0.1062 -0.5443
  103MOL    H6620670   6.007   4.001   2.447 -0.0097  0.2322  3.4932
  103MOL    H6720671   6.071   3.853   2.387 -1.4781  0.6914 -0.0624
  103MOL    H6820672   6.173   4.029   2.617  3.3095  0.2536 -1.0198
  103MOL    H6920673   6.295   3.895   2.778 -0.2197  1.0694 -0.7293
  103MOL    H7020674   6.380   3.758   2.716  1.6068  1.1580  0.0251
  103MOL    H7120675   6.424   3.918   2.667  0.1784 -1.6362 -0.7305
  103MOL    C7220676   6.278   4.028   2.434 -0.7092 -0.7265  0.2681
  103MOL    C7320677   6.291   4.184   2.440 -0.6118 -0.2142  0.0755
  103MOL    O7420678   6.336   4.214   2.572  0.5801 -0.5122 -0.0871
  103MOL    C7520679   6.318   4.350   2.617 -0.3846  0.7896 -0.3882
  103MOL    H7620680   6.245   3.994   2.336  0.5990 -0.3207 -0.3396
  103MOL    H7720681   6.379   3.989   2.449 -1.1600 -0.7903  3.4373
  103MOL    H7820682   6.185   4.209   2.432 -1.2138 -3.0006 -1.3102
  103MOL    H7920683   6.345   4.358   2.722  0.2157  1.2444 -0.5738
  103MOL    H8020684   6.393   4.411   2.566 -0.4544  0.7289 -0.5642
  103MOL    H8120685   6.215   4.374   2.590 -1.2658 -0.4206  1.7986
  103MOL    C8220686   6.379   4.244   2.328  0.7676 -0.2543  0.7639
  103MOL    C8320687   6.334   4.237   2.183  0.1397  0.4192 -0.0352
  103MOL    O8420688   6.235   4.341   2.175  0.2547 -0.1849 -0.0322
  103MOL    C8520689   6.158   4.339   2.057  0.0926  0.1143  0.0226
  103MOL    H8620690   6.469   4.184   2.343  1.5970  1.3354  2.2182
  103MOL    H8720691   6.402   4.346   2.359 -3.0840  1.5932 -2.0617
  103MOL    H8820692   6.292   4.142   2.150  1.6624 -1.0283  1.9962
  103MOL    H8920693   6.065   4.395   2.053  0.2755  0.5415  1.5184
  103MOL    H9020694   6.207   4.356   1.961 -0.5549 -0.8400 -0.4818
  103MOL    H9120695   6.131   4.234   2.057 -0.8157  0.3476 -0.2899
  103MOL    C9220696   6.450   4.275   2.096  0.5210 -0.5481 -0.4668
  103MOL    C9320697   6.495   4.180   1.985  0.2099 -0.8117  0.0823
  103MOL    O9420698   6.382   4.185   1.894 -1.0280  0.3613  0.1455
  103MOL    C9520699   6.350   4.058   1.836  0.5614  0.2245  0.5409
  103MOL    H9620700   6.527   4.295   2.171 -1.5785  0.4026  1.4770
  103MOL    H9720701   6.426   4.372   2.054 -1.3895 -0.7152  0.1882
  103MOL    H9820702   6.502   4.083   2.033  0.5161 -0.6420  0.3824
  103MOL    H9920703   6.424   4.022   1.764  0.1705  0.7671 -0.1396
  103MOL   H10020704   6.335   3.978   1.908 -1.8574  0.6093  0.4850
  103MOL   H10120705   6.258   4.060   1.778  1.6622  1.9984 -1.2146
  103MOL   C10220706   6.625   4.219   1.914  0.3252  0.3754  0.1478
  103MOL   C10320707   6.748   4.141   1.956  0.3525  0.0085 -0.1240
  103MOL   O10420708   6.749   4.167   2.098 -0.3847 -0.3025 -0.1417
  103MOL   C10520709   6.884   4.150   2.157  0.0669 -0.6673  0.4346
  103MOL   H10620710   6.628   4.328   1.920 -1.4447  0.5289 -1.4142
  103MOL   H10720711   6.604   4.203   1.808 -0.0329  1.0302  0.1112
  103MOL   H10820712   6.834   4.186   1.906 -0.1946  1.0932 -0.0969
  103MOL   H10920713   6.894   4.042   2.161  1.6156 -0.6534 -2.2412
  103MOL   H11020714   6.969   4.194   2.105 -0.4074 -1.2591 -0.8645
  103MOL   H11120715   6.882   4.195   2.256 -2.3440 -0.2138  0.2131
  103MOL   C11220716   6.748   3.991   1.932 -0.0037  0.5467 -0.1894
  103MOL   C11320717   6.720   3.941   1.786 -0.0584 -0.6682  0.6950
  103MOL   O11420718   6.845   3.963   1.723 -0.6535 -0.1784  0.3302
  103MOL   C11520719   6.847   4.018   1.585  0.2911  0.2342 -0.5615
  103MOL   H11620720   6.667   3.948   1.991  0.5187 -1.9120 -1.2052
  103MOL   H11720721   6.841   3.951   1.973 -1.3324 -2.6165 -0.0956
  103MOL   H11820722   6.637   3.998   1.744  0.4779 -0.2966  0.1248
  103MOL   H11920723   6.846   3.943   1.506  0.8458 -0.1942 -0.1648
  103MOL   H12020724   6.777   4.100   1.568 -1.4692 -1.2772 -0.8379
  103MOL   H12120725   6.949   4.053   1.575  0.3191  0.2021 -0.3907
  103MOL   C12220726   6.694   3.790   1.783  0.2170 -0.1640  0.0770
  103MOL   C12320727   6.641   3.739   1.650 -0.5630 -0.5155  0.3662
  103MOL   O12420728   6.710   3.627   1.600 -0.3215 -0.9375 -0.0883
  103MOL   C12520729   6.851   3.643   1.574 -0.1172  0.7598  0.0510
  103MOL   H12620730   6.622   3.758   1.859  2.9074 -0.3842  2.6378
  103MOL   H12720731   6.780   3.733   1.820 -0.0838 -1.1204 -0.6570
  103MOL   H12820732   6.646   3.813   1.570 -2.1607 -1.2177 -0.4133
  103MOL   H12920733   6.894   3.544   1.588  1.3632  1.4863  0.8002
  103MOL   H13020734   6.879   3.670   1.472  0.9727 -2.0286 -0.4371
  103MOL   H13120735   6.896   3.713   1.645 -0.8881  1.1143  0.1865
  103MOL   C13220736   6.491   3.697   1.669  0.1126 -0.8227  0.0662
  103MOL   C13320737   6.412   3.646   1.549  0.6554 -0.7000 -0.0482
  103MOL   O13420738   6.311   3.559   1.594 -0.5936  0.1204 -0.0800
  103MOL   C13520739   6.356   3.424   1.604  0.3841 -0.2290 -0.3534
  103MOL   H13620740   6.441   3.785   1.712 -0.9525 -0.5725 -1.6419
  103MOL   H13720741   6.476   3.623   1.747 -1.0341 -0.6263  0.0508
  103MOL   H13820742   6.483   3.595   1.485  1.3819  0.8022 -0.4540
  103MOL   H13920743   6.457   3.404   1.640  0.6236  1.9278  0.2417
  103MOL   H14020744   6.281   3.377   1.669 -2.5967  1.1104 -2.7161
  103MOL   H14120745   6.352   3.377   1.506 -0.8396 -0.2938 -0.2817
  103MOL   C14220746   6.338   3.757   1.472  0.2041  0.3269 -0.1943
  103MOL   C14320747   6.414   3.844   1.371  0.4930 -0.1242 -0.0867
  103MOL   O14420748   6.488   3.943   1.439 -0.0148 -0.2680  0.0439
  103MOL   C14520749   6.416   4.062   1.463 -0.1572 -0.5348  0.5089
  103MOL   H14620750   6.300   3.831   1.542  0.0507  0.3297 -0.2810
  103MOL   H14720751   6.256   3.713   1.416 -0.1159 -0.3359  0.7852
  103MOL   H14820752   6.342   3.899   1.310 -0.4821  1.4358  2.3712
  103MOL   H14920753   6.316   4.050   1.504  0.2744  1.4394  2.1948
  103MOL   H15020754   6.468   4.120   1.538  0.5931 -2.2361  1.3253
  103MOL   H15120755   6.424   4.118   1.370  0.2556 -2.4464 -0.6460
  103MOL   C15220756   6.512   3.765   1.287 -0.3968 -0.4584  0.5785
  103MOL   C15320757   6.456   3.650   1.204 -0.7124 -0.0895  0.2068
  103MOL   O15420758   6.353   3.706   1.122 -0.3558 -0.1578  0.1390
  103MOL   C15520759   6.241   3.617   1.095  0.0861  0.3228  0.0364
  103MOL   H15620760   6.601   3.730   1.339 -0.3433 -0.6399  0.3633
  103MOL   H15720761   6.549   3.842   1.219 -1.3039 -0.5209  0.0088
  103MOL   H15820762   6.418   3.580   1.278  0.1766 -1.5046 -0.6390
  103MOL   H15920763   6.206   3.580   1.191  1.8402  0.4429  0.7471
  103MOL   H16020764   6.161   3.668   1.041 -0.0512 -0.5588 -0.6083
  103MOL   H16120765   6.277   3.523   1.052 -2.6161 -0.8842  0.3377
  103MOL   C16220766   6.562   3.603   1.114  0.1381 -0.1466 -0.2045
  103MOL   C16320767   6.663   3.501   1.165 -0.3602 -0.4555  0.7049
  103MOL   O16420768   6.598   3.396   1.219 -0.0609 -0.2667 -0.6252
  103MOL   C16520769   6.674   3.316   1.316 -0.3915 -0.3641  0.7068
  103MOL   H16620770   6.619   3.691   1.083 -1.4340  0.8954 -0.1442
  103MOL   H16720771   6.520   3.578   1.017 -1.8233 -0.7314  0.7731
  103MOL   H16820772   6.720   3.540   1.249  0.2631  0.3842 -0.0999
  103MOL   H16920773   6.603   3.238   1.345 -1.0230  0.1964  0.6847
  103MOL   H17020774   6.757   3.261   1.271  0.6308  0.9315  0.9989
  103MOL   H17120775   6.698   3.375   1.404 -1.0865 -0.8605  1.2370
  103MOL   C17220776   6.761   3.450   1.055  0.0296  0.2927 -0.3753
  103MOL   C17320777   6.868   3.549   1.013 -0.1131 -0.4696  0.5664
  103MOL   O17420778   6.943   3.590   1.130  0.2281 -0.9284  0.3119
  103MOL   C17520779   6.927   3.728   1.169  0.5975  0.8905  0.0250
  103MOL   H17620780   6.696   3.409   0.978 -0.7772 -1.8173  1.3866
  103MOL   H17720781   6.810   3.360   1.091 -1.7097  0.3540  2.2897
  103MOL   H17820782   6.830   3.641   0.967  2.3273 -0.9109 -2.4654
  103MOL   H17920783   6.965   3.800   1.096  1.5057 -1.3911 -1.8044
  103MOL   H18020784   6.822   3.747   1.189 -0.6418 -2.0642 -3.1174
  103MOL   H18120785   6.976   3.736   1.266  2.5537  2.0418 -1.0189
  103MOL   C18220786   6.954   3.471   0.916 -0.2891 -0.3312  0.6444
  103MOL   C18320787   7.040   3.561   0.828  0.1051  0.3298 -0.8271
  103MOL   O18420788   7.146   3.479   0.778 -0.1152 -0.0616  0.1607
  103MOL   C18520789   7.261   3.494   0.859  0.6398  0.2574 -0.2512
  103MOL   H18620790   6.903   3.400   0.851  1.9420 -0.6034 -0.8757
  103MOL   H18720791   7.014   3.402   0.976 -0.7317  0.8077  2.4108
  103MOL   H18820792   7.075   3.650   0.881  0.0770  0.0617 -0.3519
  103MOL   H18920793   7.240   3.500   0.966  1.2094  0.1244 -0.1309
  103MOL   H19020794   7.315   3.404   0.831  0.7251 -0.2712  1.5617
  103MOL   H19120795   7.327   3.577   0.834  1.1502 -0.0475  0.0789
  103MOL   C19220796   6.957   3.618   0.712 -0.3183 -0.0862  0.0612
  103MOL   C19320797   7.024   3.736   0.649 -1.0032  0.0699  0.3424
  103MOL   O19420798   6.953   3.780   0.530 -0.2583  0.2295  0.7342
  103MOL   C19520799   7.002   3.905   0.477 -0.6518 -0.2468 -0.5905
  103MOL   H19620800   6.859   3.656   0.741 -0.5632  0.7252 -1.7380
  103MOL   H19720801   6.950   3.536   0.640 -0.7905 -0.6004  0.6852
  103MOL   H19820802   7.126   3.708   0.624 -1.4568  0.8362 -2.6774
  103MOL   H19920803   7.108   3.907   0.449  0.2856 -1.8931  2.5230
  103MOL   H20020804   6.937   3.931   0.394 -1.5971 -2.0714 -0.4412
  103MOL   H20120805   6.982   3.983   0.550  0.7594  0.6554 -1.1328
  103MOL   H20220806   7.032   3.819   0.720  1.4651 -0.6154  0.9019
  104MOL     C120807   6.385   1.845   1.846  0.7601  0.0724 -0.1119
  104MOL     C220808   6.305   1.703   1.852  0.5640 -0.3175 -0.0517
  104MOL     O320809   6.409   1.598   1.849 -0.0479 -0.3195  0.7011
  104MOL     C420810   6.377   1.471   1.817 -0.2567 -0.0710  0.0670
  104MOL     H520811   6.453   1.853   1.761 -0.0789  0.6281 -0.7351
  104MOL     H620812   6.322   1.934   1.843  1.8604  0.8708  0.1183
  104MOL     H720813   6.252   1.691   1.757 -0.6485 -1.0398  0.7121
  104MOL     H820814   6.464   1.405   1.825 -0.7383 -0.6900  0.2619
  104MOL     H920815   6.296   1.414   1.863  0.9322 -1.6184  0.3039
  104MOL    H1020816   6.360   1.462   1.710  0.5202 -0.0393 -0.0626
  104MOL    H1120817   6.444   1.852   1.937  1.4665 -0.4714 -0.5250
  104MOL    C1220818   6.206   1.694   1.967 -0.8653  0.2974 -0.7571
  104MOL    C1320819   6.086   1.780   1.941 -0.3186 -0.4404 -0.6697
  104MOL    O1420820   5.967   1.713   1.918  0.5473 -0.8236  0.8008
  104MOL    C1520821   5.947   1.685   1.783  0.5932 -0.3013  0.3074
  104MOL    H1620822   6.261   1.724   2.056  0.0558  1.5752 -1.7387
  104MOL    H1720823   6.184   1.588   1.981  0.6041 -0.1289 -1.5853
  104MOL    H1820824   6.110   1.852   1.863  1.0653  1.4794  1.4606
  104MOL    H1920825   5.839   1.671   1.770  0.9196 -4.2682  1.0056
  104MOL    H2020826   5.967   1.760   1.706 -0.8558 -0.5255 -0.3244
  104MOL    H2120827   5.983   1.589   1.746 -1.4868 -1.1689  0.4322
  104MOL    C2220828   6.047   1.858   2.072 -0.0346 -0.2558 -0.2915
  104MOL    C2320829   5.928   1.959   2.059  0.2596 -0.5760  0.1998
  104MOL    O2420830   5.834   1.924   2.164  0.2225  0.4486 -0.4746
  104MOL    C2520831   5.729   1.835   2.121 -0.2907  0.7663  0.3873
  104MOL    H2620832   6.133   1.915   2.108  0.5760 -1.7333  0.6359
  104MOL    H2720833   6.024   1.794   2.156  1.4753 -2.4234 -1.4883
  104MOL    H2820834   5.879   1.955   1.962 -1.2228 -0.9026  0.9418
  104MOL    H2920835   5.680   1.799   2.211  0.6130 -1.7823 -0.0848
  104MOL    H3020836   5.657   1.896   2.067 -1.2465 -0.3902  0.3471
  104MOL    H3120837   5.762   1.747   2.067 -1.9072 -1.0343  2.2392
  104MOL    C3220838   5.964   2.104   2.083 -0.0288 -0.8802 -0.3942
  104MOL    C3320839   6.026   2.179   1.954 -0.6825 -0.1645  0.0177
  104MOL    O3420840   6.156   2.134   1.923 -0.0915  1.0985 -0.4583
  104MOL    C3520841   6.255   2.179   2.017  0.2750  0.3189  0.4865
  104MOL    H3620842   6.030   2.121   2.168 -1.5706 -0.1505  0.6763
  104MOL    H3720843   5.875   2.158   2.115  0.1635 -0.0321 -1.2430
  104MOL    H3820844   6.042   2.285   1.976 -0.7999 -0.0279 -0.5460
  104MOL    H3920845   6.351   2.145   1.978  0.7870  1.1963  0.9723
  104MOL    H4020846   6.262   2.287   2.010  1.3963  0.2062 -0.4271
  104MOL    H4120847   6.247   2.139   2.118 -0.7053 -2.0966 -0.4957
  104MOL    C4220848   5.947   2.167   1.829 -0.2917  0.1260  0.4594
  104MOL    C4320849   5.791   2.203   1.846  0.3485 -0.4617 -0.6091
  104MOL    O4420850   5.804   2.326   1.911  0.2143 -0.0110 -0.0185
  104MOL    C4520851   5.683   2.389   1.947 -0.8645  0.2165  0.3086
  104MOL    H4620852   5.951   2.066   1.787  1.8001  0.2629  0.2697
  104MOL    H4720853   5.997   2.231   1.756 -0.5046  0.2644  0.4378
  104MOL    H4820854   5.747   2.127   1.911  1.2447 -0.7355 -0.3188
  104MOL    H4920855   5.614   2.316   1.990  0.2436 -0.6591  0.6169
  104MOL    H5020856   5.686   2.478   2.009 -0.7729  2.3660 -2.6558
  104MOL    H5120857   5.636   2.434   1.859 -0.6044  0.2322  0.1778
  104MOL    C5220858   5.709   2.219   1.708 -0.5297  0.4161 -0.0890
  104MOL    C5320859   5.709   2.095   1.620  0.4546 -0.3555  0.5816
  104MOL    O5420860   5.839   2.091   1.561 -0.1829  0.4878  0.0214
  104MOL    C5520861   5.840   2.027   1.430 -0.0412 -0.4803 -0.0785
  104MOL    H5620862   5.751   2.305   1.657  0.7570  1.0256  1.9549
  104MOL    H5720863   5.608   2.254   1.730  0.0546  1.7111  0.5691
  104MOL    H5820864   5.638   2.127   1.544  0.9129  2.1692  1.1496
  104MOL    H5920865   5.943   2.013   1.399 -0.0707 -2.1294  0.5119
  104MOL    H6020866   5.809   1.923   1.440 -2.0048 -0.0252 -1.1477
  104MOL    H6120867   5.799   2.090   1.351  2.4437  0.5584 -0.5735
  104MOL    C6220868   5.660   1.960   1.691  0.5727  0.3947 -0.2824
  104MOL    C6320869   5.509   1.957   1.717  0.2231  0.0621  0.2083
  104MOL    O6420870   5.446   1.928   1.588  0.2199  0.0287 -0.3367
  104MOL    C6520871   5.355   2.025   1.551 -0.3034 -0.2693  0.6136
  104MOL    H6620872   5.730   1.940   1.772 -0.1125  0.0870  0.2366
  104MOL    H6720873   5.679   1.882   1.617  2.3521  0.3909  0.1713
  104MOL    H6820874   5.483   2.053   1.762 -2.4179 -0.4057 -0.3005
  104MOL    H6920875   5.407   2.120   1.537 -0.1045 -0.6403 -1.2542
  104MOL    H7020876   5.310   2.006   1.454 -0.6832  1.0815  0.5237
  104MOL    H7120877   5.279   2.026   1.629 -0.1054 -2.7236  0.8815
  104MOL    C7220878   5.458   1.843   1.816 -0.1110  0.1797 -0.6053
  104MOL    C7320879   5.311   1.827   1.843  0.1138 -1.0566  0.9000
  104MOL    O7420880   5.241   1.760   1.740 -0.8094 -0.3628 -0.2496
  104MOL    C7520881   5.105   1.788   1.733  1.2137  0.2176  0.1091
  104MOL    H7620882   5.502   1.860   1.914  0.1571  1.5080 -0.9403
  104MOL    H7720883   5.497   1.744   1.791  0.3181 -0.6922  3.2966
  104MOL    H7820884   5.265   1.924   1.823  0.2632 -1.0511  0.5671
  104MOL    H7920885   5.065   1.724   1.655  2.6115  0.7031 -1.0179
  104MOL    H8020886   5.055   1.771   1.829  0.4449  1.0571 -0.1288
  104MOL    H8120887   5.091   1.887   1.689 -2.2361 -1.2358 -2.2309
  104MOL    C8220888   5.285   1.775   1.988 -0.0614  0.5240  0.0677
  104MOL    C8320889   5.353   1.637   2.039 -0.4673  0.4531 -0.8749
  104MOL    O8420890   5.302   1.602   2.163  0.9043 -0.2543  0.4360
  104MOL    C8520891   5.365   1.659   2.276  0.8773  0.0112 -0.3658
  104MOL    H8620892   5.179   1.766   2.012  0.6157  0.3348  3.1968
  104MOL    H8720893   5.292   1.853   2.064 -2.0839  0.9774 -0.1975
  104MOL    H8820894   5.461   1.654   2.046  0.1426 -2.9178 -1.4006
  104MOL    H8920895   5.289   1.686   2.350  1.6081 -0.6702  0.6447
  104MOL    H9020896   5.429   1.579   2.313 -0.5780 -1.5584 -1.1008
  104MOL    H9120897   5.414   1.753   2.251 -0.8658  1.2660  0.8141
  104MOL    C9220898   5.329   1.518   1.943 -0.9651  0.8988 -0.0093
  104MOL    C9320899   5.432   1.407   1.948  0.4469 -0.5146  0.5714
  104MOL    O9420900   5.358   1.294   1.889 -0.3894  0.2518  0.1437
  104MOL    C9520901   5.293   1.218   1.993  0.4743 -0.1656 -0.1541
  104MOL    H9620902   5.323   1.546   1.837  0.0378  1.0739 -0.0222
  104MOL    H9720903   5.229   1.477   1.957 -0.6553 -0.7069 -2.2537
  104MOL    H9820904   5.464   1.392   2.051 -0.7350  0.4099  1.0794
  104MOL    H9920905   5.369   1.169   2.053 -0.9814 -3.8971 -1.2404
  104MOL   H10020906   5.240   1.285   2.060  0.1921 -0.7603  0.2135
  104MOL   H10120907   5.221   1.148   1.952 -0.3759 -1.5965  3.6086
  104MOL   C10220908   5.547   1.450   1.843 -0.2795  0.7617 -0.0983
  104MOL   C10320909   5.668   1.364   1.812  0.1970  0.1497 -0.2849
  104MOL   O10420910   5.755   1.443   1.730  0.3123  0.2485  0.7353
  104MOL   C10520911   5.746   1.408   1.590  0.0567 -0.1316 -0.3600
  104MOL   H10620912   5.582   1.550   1.868 -0.4065  0.3542  1.7416
  104MOL   H10720913   5.507   1.479   1.745 -0.2601  1.7350  0.1785
  104MOL   H10820914   5.641   1.279   1.750  0.0820 -2.2187  2.8605
  104MOL   H10920915   5.794   1.315   1.560 -0.2761 -0.7507  1.0176
  104MOL   H11020916   5.642   1.408   1.555  0.2544 -0.2258 -0.9560
  104MOL   H11120917   5.792   1.492   1.537 -0.4120 -1.7333 -3.4102
  104MOL   C11220918   5.766   1.334   1.924  0.5340  0.3512 -0.4894
  104MOL   C11320919   5.853   1.214   1.894  0.5265  0.1966  0.3572
  104MOL   O11420920   5.958   1.198   1.989  0.1792 -0.1893  0.1745
  104MOL   C11520921   6.077   1.273   1.971  0.6765 -0.4130  0.2299
  104MOL   H11620922   5.699   1.319   2.009 -0.7270  0.8012 -1.3896
  104MOL   H11720923   5.839   1.410   1.949  0.8280 -0.5776  1.5588
  104MOL   H11820924   5.902   1.235   1.799 -1.1355  0.3754 -0.4944
  104MOL   H11920925   6.145   1.278   2.055  2.0884  1.2077 -0.9676
  104MOL   H12020926   6.130   1.243   1.880 -2.0552  1.7241 -2.1916
  104MOL   H12120927   6.061   1.381   1.963  1.5555 -0.2584  0.4763
  104MOL   C12220928   5.784   1.076   1.890 -0.2541 -0.5542 -0.3742
  104MOL   C12320929   5.865   0.955   1.847  0.1018 -0.1684 -0.8938
  104MOL   O12420930   5.792   0.838   1.879 -0.3033  0.0927  0.3369
  104MOL   C12520931   5.845   0.757   1.978  0.1787 -0.8657  0.2908
  104MOL   H12620932   5.704   1.075   1.815 -0.7183  2.9347 -0.0258
  104MOL   H12720933   5.726   1.059   1.981 -0.9923 -2.0132 -1.0917
  104MOL   H12820934   5.961   0.951   1.900 -1.0848  0.8581  1.4117
  104MOL   H12920935   5.922   0.689   1.943  1.4587  0.2084  0.9552
  104MOL   H13020936   5.872   0.818   2.065 -1.9411  1.9150 -0.9117
  104MOL   H13120937   5.773   0.684   2.014 -2.2940  1.6115  0.5733
  104MOL   C13220938   5.899   0.963   1.695 -0.0852 -0.2021 -0.2474
  104MOL   C13320939   5.992   0.848   1.651  0.3580 -0.3403  0.2301
  104MOL   O13420940   5.933   0.779   1.545  0.1077 -0.3566  0.0227
  104MOL   C13520941   5.824   0.698   1.602  0.6951  0.0542  0.6977
  104MOL   H13620942   5.946   1.058   1.668  0.0769 -0.6086 -1.4368
  104MOL   H13720943   5.808   0.952   1.636 -0.6682 -1.6793  0.8998
  104MOL   H13820944   6.013   0.775   1.729 -0.3634 -0.6966  0.0935
  104MOL   H13920945   5.744   0.753   1.651 -1.8353 -2.4159 -0.5161
  104MOL   H14020946   5.772   0.642   1.524  0.9034  2.0488 -0.9021
  104MOL   H14120947   5.864   0.627   1.674  0.5601 -2.2303 -1.4084
  104MOL   C14220948   6.131   0.894   1.613 -0.6042  0.3046 -0.1159
  104MOL   C14320949   6.214   0.947   1.735 -0.2487 -0.1121 -0.8413
  104MOL   O14420950   6.259   0.831   1.802 -0.0593 -0.0688 -0.2364
  104MOL   C14520951   6.259   0.831   1.947 -0.6278  0.8373  0.2054
  104MOL   H14620952   6.114   0.969   1.535 -1.7300  1.3376  1.0989
  104MOL   H14720953   6.185   0.813   1.564 -2.6603 -1.2773  0.1887
  104MOL   H14820954   6.145   1.001   1.801 -0.3575  0.1205 -1.1454
  104MOL   H14920955   6.159   0.835   1.988 -0.8953  1.0171 -0.4578
  104MOL   H15020956   6.302   0.734   1.972  0.7921  1.6132  0.8510
  104MOL   H15120957   6.318   0.905   2.000  0.9311 -0.7646  0.7750
  104MOL   C15220958   6.342   1.019   1.691  0.2889 -0.1722  0.4561
  104MOL   C15320959   6.314   1.137   1.603  0.2932  0.2115 -0.4740
  104MOL   O15420960   6.228   1.229   1.675 -0.2022  0.4776 -0.2415
  104MOL   C15520961   6.137   1.292   1.591 -0.1005 -0.1202  0.0889
  104MOL   H15620962   6.409   0.943   1.651  0.2184 -0.6715  1.2741
  104MOL   H15720963   6.388   1.047   1.786  0.7218  0.2949  0.1099
  104MOL   H15820964   6.260   1.112   1.512 -0.2831  0.4117 -0.1903
  104MOL   H15920965   6.184   1.359   1.518  1.0585  0.6991  1.5543
  104MOL   H16020966   6.062   1.225   1.549 -0.2448  0.0959  0.0013
  104MOL   H16120967   6.084   1.368   1.648  1.8607  2.3598 -1.2807
  104MOL   C16220968   6.442   1.208   1.556  0.2705  0.7584 -0.0618
  104MOL   C16320969   6.528   1.140   1.444  0.5770  0.0071  0.5074
  104MOL   O16420970   6.437   1.126   1.328  0.0497  0.0502 -0.0689
  104MOL   C16520971   6.422   0.995   1.268  0.2493  0.2809  0.0853
  104MOL   H16620972   6.496   1.229   1.648 -0.1805 -0.9242  0.5836
  104MOL   H16720973   6.409   1.302   1.510  0.9639  0.6407 -0.8132
  104MOL   H16820974   6.542   1.036   1.471  0.8479  0.1897  1.0571
  104MOL   H16920975   6.363   0.930   1.332  0.8172  2.2549  2.6846
  104MOL   H17020976   6.365   1.002   1.175  1.4514 -2.1542 -0.8723
  104MOL   H17120977   6.515   0.947   1.238  0.2809 -0.8886  1.9809
  104MOL   C17220978   6.659   1.220   1.405  0.3528  0.2732 -0.1520
  104MOL   C17320979   6.778   1.168   1.495  0.0495 -0.0006  0.0799
  104MOL   O17420980   6.809   1.037   1.447 -0.3872  0.2043 -0.7140
  104MOL   C17520981   6.862   0.955   1.550  0.4117 -0.7936  0.0662
  104MOL   H17620982   6.630   1.322   1.427  0.4484 -0.1167  1.9302
  104MOL   H17720983   6.677   1.212   1.298 -0.9012 -0.9997 -0.2837
  104MOL   H17820984   6.738   1.158   1.596 -0.4346 -0.7384 -0.1768
  104MOL   H17920985   6.941   1.006   1.606  0.1669 -0.6773  0.3061
  104MOL   H18020986   6.789   0.922   1.624  1.2870  1.8012  2.1413
  104MOL   H18120987   6.907   0.862   1.514 -0.5049 -1.4435  0.5678
  104MOL   C18220988   6.902   1.262   1.492  0.1142 -0.2352  0.2029
  104MOL   C18320989   6.891   1.412   1.538 -0.7304 -0.2345  0.6179
  104MOL   O18420990   6.858   1.415   1.677 -0.2183  0.2401  0.1392
  104MOL   C18520991   6.763   1.513   1.709 -0.6035  0.0156  0.8643
  104MOL   H18620992   6.950   1.255   1.394 -1.2114  1.1170 -0.5591
  104MOL   H18720993   6.980   1.226   1.558  0.9009  2.4299  0.7810
  104MOL   H18820994   6.814   1.451   1.471  2.1377  4.1120 -0.2904
  104MOL   H18920995   6.723   1.485   1.807 -1.8080  0.0405  0.3855
  104MOL   H19020996   6.791   1.617   1.727  1.0704  0.4745 -3.7232
  104MOL   H19120997   6.680   1.522   1.640  2.0355 -0.0213 -2.4095
  104MOL   C19220998   7.016   1.494   1.515 -0.2983 -1.2864  0.3093
  104MOL   C19320999   7.061   1.499   1.373  0.0047 -0.1538  0.4940
  104MOL   O19421000   7.163   1.609   1.372 -0.4247  0.3264 -0.1013
  104MOL   C19521001   7.206   1.632   1.240  0.0895 -0.1288  0.1269
  104MOL   H19621002   7.103   1.468   1.575  0.4986 -0.4778 -0.4783
  104MOL   H19721003   6.989   1.597   1.536 -1.5910 -1.5317 -0.1264
  104MOL   H19821004   6.980   1.533   1.307  0.0454  0.3840  0.7163
  104MOL   H19921005   7.287   1.705   1.248  1.1028 -1.0802 -1.2503
  104MOL   H20021006   7.266   1.548   1.204 -0.8830 -0.6848 -0.1887
  104MOL   H20121007   7.133   1.666   1.167 -0.8501 -2.5244 -0.0755
  104MOL   H20221008   7.109   1.408   1.337  0.5782  0.1772  0.4187
  105MOL     C121009   1.814   2.554   4.790 -1.2007  0.5812 -0.2103
  105MOL     C221010   1.935   2.458   4.787 -0.0344 -0.5361 -0.2747
  105MOL     O321011   2.058   2.516   4.831 -0.0049  1.0703 -0.6579
  105MOL     C421012   2.138   2.573   4.735 -0.0954  0.3062 -0.3889
  105MOL     H521013   1.853   2.643   4.742 -0.1408  0.3814  0.2428
  105MOL     H621014   1.749   2.501   4.722 -0.1365  1.5586 -2.0265
  105MOL     H721015   1.947   2.427   4.683 -1.4510  1.7897 -1.1626
  105MOL     H821016   2.186   2.490   4.683  0.2004  1.6268 -2.2437
  105MOL     H921017   2.082   2.629   4.661  0.8793  1.7127 -0.0786
  105MOL    H1021018   2.200   2.640   4.794  0.8612  1.7148 -2.9463
  105MOL    H1121019   1.767   2.573   4.887 -0.4659  2.6825 -0.2555
  105MOL    C1221020   1.906   2.332   4.858 -0.1998 -0.0604  0.5077
  105MOL    C1321021   2.024   2.233   4.839 -0.1976  0.0459 -0.0791
  105MOL    O1421022   1.984   2.117   4.909  0.2239 -0.0647  0.1027
  105MOL    C1521023   2.097   2.046   4.953  0.0815 -0.4471  0.0445
  105MOL    H1621024   1.816   2.282   4.820 -0.1875 -1.5060  2.3588
  105MOL    H1721025   1.887   2.359   4.962 -0.3269  0.8472  0.2574
  105MOL    H1821026   2.114   2.279   4.883 -1.2685  0.7907  1.3915
  105MOL    H1921027   2.137   2.072   5.051 -0.5735  0.3707  0.0982
  105MOL    H2021028   2.070   1.943   4.976 -1.8167 -0.2897 -1.3054
  105MOL    H2121029   2.180   2.045   4.883  1.3037  1.6475  1.4066
  105MOL    C2221030   2.062   2.186   4.691 -0.3265 -0.2350  0.1071
  105MOL    C2321031   1.944   2.126   4.605  0.6964  0.5147  0.1656
  105MOL    O2421032   1.843   2.222   4.578  0.1732 -0.4848  0.1071
  105MOL    C2521033   1.718   2.165   4.548  0.0628  0.3574  0.3809
  105MOL    H2621034   2.147   2.118   4.690  0.9189  1.2610  1.4773
  105MOL    H2721035   2.104   2.273   4.641  0.9909  0.7783  2.8800
  105MOL    H2821036   1.900   2.038   4.649 -2.0137  1.9944  0.4857
  105MOL    H2921037   1.703   2.098   4.464  0.6994  0.3999  0.2323
  105MOL    H3021038   1.678   2.110   4.633  0.3577  1.1350  1.0318
  105MOL    H3121039   1.658   2.256   4.538  1.7070  1.4554  0.1700
  105MOL    C3221040   2.007   2.108   4.460  0.4563  0.3820 -0.0422
  105MOL    C3321041   2.102   1.993   4.454  0.1394 -0.2368  0.0734
  105MOL    O3421042   2.057   1.922   4.336  0.5760  0.0567 -0.3566
  105MOL    C3521043   1.982   1.804   4.352 -0.4018 -0.2448 -0.1351
  105MOL    H3621044   2.052   2.197   4.415 -0.5024 -0.2878 -2.4572
  105MOL    H3721045   1.923   2.103   4.390  0.3990  2.5804 -0.1639
  105MOL    H3821046   2.081   1.931   4.541  0.6285 -0.7526 -0.1762
  105MOL    H3921047   1.974   1.747   4.260  1.6579 -1.0000  0.1369
  105MOL    H4021048   2.039   1.731   4.409 -0.5692  0.4070  0.8764
  105MOL    H4121049   1.885   1.818   4.401 -0.7240 -1.0833 -0.5267
  105MOL    C4221050   2.254   2.029   4.445 -0.0078  1.1420  0.0211
  105MOL    C4321051   2.348   1.904   4.442 -0.0395 -0.5399  0.0478
  105MOL    O4421052   2.421   1.892   4.319  0.5574 -0.0193 -0.4496
  105MOL    C4521053   2.339   1.865   4.204  0.7799 -0.3227 -0.4449
  105MOL    H4621054   2.278   2.094   4.529  1.3146  0.1119  0.4732
  105MOL    H4721055   2.280   2.089   4.358  1.8612 -1.1286 -1.0320
  105MOL    H4821056   2.293   1.810   4.456  0.6711 -1.1069 -0.8643
  105MOL    H4921057   2.277   1.777   4.219  1.2128 -0.0874  3.0835
  105MOL    H5021058   2.268   1.945   4.181 -0.2720 -1.4280 -1.0940
  105MOL    H5121059   2.410   1.857   4.121 -0.2317  0.2188 -1.3767
  105MOL    C5221060   2.467   1.930   4.550  0.7078  0.3861 -0.5320
  105MOL    C5321061   2.419   1.902   4.700  0.9105  0.2871 -0.1020
  105MOL    O5421062   2.361   1.775   4.702 -0.1860  0.0703 -0.4165
  105MOL    C5521063   2.259   1.745   4.799  0.1319  0.2523 -0.0367
  105MOL    H5621064   2.505   2.031   4.546  0.0134  0.8813  3.7347
  105MOL    H5721065   2.547   1.860   4.526  0.9972  0.9535 -1.2449
  105MOL    H5821066   2.352   1.978   4.741  0.8738 -0.5385  1.4198
  105MOL    H5921067   2.229   1.640   4.795  0.6929  0.0783  0.3844
  105MOL    H6021068   2.286   1.765   4.902 -2.1847  0.5961  0.5308
  105MOL    H6121069   2.176   1.814   4.779 -0.5549 -0.9964 -1.6610
  105MOL    C6221070   2.541   1.905   4.789  0.3574 -0.0266  0.1515
  105MOL    C6321071   2.586   2.046   4.835  0.3000 -0.2614  0.8576
  105MOL    O6421072   2.482   2.098   4.912  0.0678 -0.2573  0.3053
  105MOL    C6521073   2.466   2.238   4.876  0.0314 -1.1684 -0.5425
  105MOL    H6621074   2.628   1.855   4.747  0.5646  1.4650 -1.2183
  105MOL    H6721075   2.521   1.847   4.880 -0.9190  1.7687  1.0463
  105MOL    H6821076   2.599   2.108   4.746 -0.7987 -1.2164  0.0184
  105MOL    H6921077   2.427   2.239   4.774 -0.6970 -2.3375 -0.2917
  105MOL    H7021078   2.393   2.288   4.941  1.0913  1.2286 -1.1360
  105MOL    H7121079   2.555   2.298   4.892 -1.6304  1.7771 -1.9364
  105MOL    C7221080   2.710   2.039   4.922 -0.3235 -0.0358 -0.0421
  105MOL    C7321081   2.833   1.996   4.845  0.0638  0.0655  0.1263
  105MOL    O7421082   2.838   2.047   4.715  0.0982  0.1736  0.7605
  105MOL    C7521083   2.875   1.945   4.616 -0.7499 -0.6196 -0.3595
  105MOL    H7621084   2.692   1.954   4.989  1.5621  0.6765  1.3982
  105MOL    H7721085   2.723   2.131   4.979  3.2665 -0.5316  0.0690
  105MOL    H7821086   2.824   1.888   4.841  0.1908  0.0517  0.2268
  105MOL    H7921087   2.973   1.901   4.636 -1.3189 -1.7225  0.0686
  105MOL    H8021088   2.801   1.865   4.608  0.8470 -2.2861  1.0642
  105MOL    H8121089   2.887   1.990   4.518  0.6977 -2.8393 -1.2452
  105MOL    C8221090   2.970   2.019   4.919 -0.9300 -0.2518 -0.4452
  105MOL    C8321091   2.976   1.925   5.038 -0.2346  0.5598 -0.1780
  105MOL    O8421092   3.016   1.801   4.984 -0.3823 -0.0589 -0.0509
  105MOL    C8521093   2.994   1.683   5.068  0.4081  0.1346  0.1986
  105MOL    H8621094   2.970   2.120   4.960  0.1993 -0.7732  0.8828
  105MOL    H8721095   3.055   2.015   4.850 -0.0512  0.1542  0.6051
  105MOL    H8821096   2.882   1.934   5.091 -1.0224  0.9679 -1.6166
  105MOL    H8921097   2.895   1.673   5.114  0.3152  2.3267  0.5029
  105MOL    H9021098   2.983   1.591   5.011 -2.6094 -1.0881  2.5701
  105MOL    H9121099   3.085   1.660   5.123  0.8827 -2.0411 -1.4278
  105MOL    C9221100   3.092   1.966   5.129 -0.3426  0.3267  0.2070
  105MOL    C9321101   3.038   2.061   5.235 -0.3759  0.1655  0.2818
  105MOL    O9421102   2.959   1.984   5.332 -0.2618 -0.2007 -0.2283
  105MOL    C9521103   2.869   2.062   5.410  0.2065 -0.0184  0.7832
  105MOL    H9621104   3.180   2.017   5.092  0.6693 -0.9593  0.7999
  105MOL    H9721105   3.130   1.875   5.177  2.1238  0.2685 -1.7386
  105MOL    H9821106   2.979   2.139   5.185  1.8056  1.6252 -0.0986
  105MOL    H9921107   2.938   2.119   5.474  0.4958 -0.1930  0.6295
  105MOL   H10021108   2.806   2.130   5.353  1.3061 -0.4433 -0.9846
  105MOL   H10121109   2.807   1.993   5.467  0.1522 -1.0296 -0.5040
  105MOL   C10221110   3.150   2.140   5.313 -0.0669  0.0482  0.0046
  105MOL   C10321111   3.221   2.256   5.240  0.1108  0.1023 -0.1879
  105MOL   O10421112   3.121   2.364   5.230  0.6788  0.2285 -0.3310
  105MOL   C10521113   3.101   2.417   5.092  0.5026  0.7087  0.3836
  105MOL   H10621114   3.217   2.067   5.358  0.5233 -0.7670 -2.0984
  105MOL   H10721115   3.104   2.192   5.396 -0.1701 -0.8475  0.5153
  105MOL   H10821116   3.244   2.222   5.139  0.3767  0.4487 -0.2415
  105MOL   H10921117   3.189   2.472   5.058 -0.5863  1.9960 -0.4094
  105MOL   H11021118   3.091   2.328   5.030  0.2042  0.2617  1.0670
  105MOL   H11121119   3.019   2.489   5.082  1.1445  1.2106 -1.3977
  105MOL   C11221120   3.333   2.322   5.313  0.1023 -0.6096 -0.0315
  105MOL   C11321121   3.462   2.237   5.301  0.4764 -0.7212 -0.2574
  105MOL   O11421122   3.483   2.214   5.163  0.3136 -0.4182  0.2088
  105MOL   C11521123   3.510   2.082   5.135  0.5989  0.6428  0.0684
  105MOL   H11621124   3.309   2.339   5.418  1.2330 -1.7985  0.4367
  105MOL   H11721125   3.358   2.423   5.283 -1.3774 -0.1255  0.3456
  105MOL   H11821126   3.436   2.148   5.358 -2.8042 -0.3221 -1.0430
  105MOL   H11921127   3.580   2.043   5.209  2.1648  0.5988 -1.3984
  105MOL   H12021128   3.420   2.027   5.111  1.4398 -1.0885  0.7839
  105MOL   H12121129   3.576   2.097   5.050  0.2741  0.1364 -0.2716
  105MOL   C12221130   3.595   2.307   5.361 -0.2427 -0.1905  0.6133
  105MOL   C12321131   3.577   2.342   5.503  0.2042  0.2672  0.4409
  105MOL   O12421132   3.544   2.224   5.574 -0.5331  0.4983  0.1668
  105MOL   C12521133   3.462   2.252   5.693  0.4097 -0.4740  0.2448
  105MOL   H12621134   3.639   2.391   5.308 -0.4612 -0.3587  0.1707
  105MOL   H12721135   3.672   2.229   5.353 -2.1516 -1.9140 -1.3700
  105MOL   H12821136   3.497   2.416   5.504  0.8744  1.0107  2.3285
  105MOL   H12921137   3.423   2.153   5.717  0.2643 -1.4046 -3.4527
  105MOL   H13021138   3.523   2.279   5.779 -0.0915  2.4822 -0.2549
  105MOL   H13121139   3.387   2.329   5.672  0.2596 -1.0464 -1.4229
  105MOL   C13221140   3.710   2.399   5.560  0.8748 -0.5141  0.1851
  105MOL   C13321141   3.826   2.308   5.588 -0.3819  0.1533 -0.2611
  105MOL   O13421142   3.934   2.392   5.615 -0.1813 -0.5502 -0.2768
  105MOL   C13521143   4.014   2.430   5.502 -0.3335  0.0156  0.9088
  105MOL   H13621144   3.686   2.465   5.644 -0.8731 -1.3598  0.3657
  105MOL   H13721145   3.739   2.467   5.479  0.1423 -0.3059  0.0897
  105MOL   H13821146   3.852   2.248   5.501  0.4791  1.3557 -0.8335
  105MOL   H13921147   3.955   2.499   5.441 -0.0542  0.0489  0.6775
  105MOL   H14021148   4.101   2.479   5.544  0.1928  0.0056 -0.1546
  105MOL   H14121149   4.056   2.351   5.439 -1.3085  0.3526 -0.1738
  105MOL   C14221150   3.806   2.217   5.714 -0.2405 -0.0214 -0.5711
  105MOL   C14321151   3.923   2.128   5.750  0.2872 -0.6460  0.5265
  105MOL   O14421152   3.889   2.046   5.862 -0.0851 -0.3906  0.0840
  105MOL   C14521153   3.995   2.045   5.964 -0.1936  0.0455 -0.0828
  105MOL   H14621154   3.721   2.149   5.700  0.0822 -0.4519 -0.4265
  105MOL   H14721155   3.775   2.290   5.789  1.4739  0.3276 -0.1996
  105MOL   H14821156   4.003   2.198   5.772 -0.4505  0.3037  0.2162
  105MOL   H14921157   4.024   2.146   5.996 -2.5330  1.0564 -1.0633
  105MOL   H15021158   3.963   1.997   6.057 -0.8025  1.9791  0.7343
  105MOL   H15121159   4.085   1.991   5.935  0.5788  0.9813  0.5054
  105MOL   C15221160   3.970   2.040   5.637  0.0954 -0.5706  0.2550
  105MOL   C15321161   3.862   1.941   5.575  0.1637  0.1868  0.1745
  105MOL   O15421162   3.921   1.883   5.463  0.1038  0.5874 -0.2247
  105MOL   C15521163   3.911   1.955   5.344 -0.0393  0.1509  0.0444
  105MOL   H15621164   4.046   1.976   5.681  0.3382  0.4061  1.2781
  105MOL   H15721165   4.020   2.108   5.568 -1.6529  0.6629  0.1763
  105MOL   H15821166   3.778   2.005   5.546  0.8138  1.7072  1.5575
  105MOL   H15921167   3.973   1.918   5.262  0.7713 -0.1698  0.7876
  105MOL   H16021168   3.806   1.950   5.314  0.5614  2.1734 -2.6306
  105MOL   H16121169   3.943   2.058   5.353  0.6353 -0.1032  0.5775
  105MOL   C16221170   3.813   1.824   5.674  0.0187  0.1489 -0.2320
  105MOL   C16321171   3.692   1.735   5.623  0.7114 -0.5590 -0.1242
  105MOL   O16421172   3.673   1.630   5.725 -0.0381 -0.9161 -0.2229
  105MOL   C16521173   3.769   1.525   5.716  0.2275  0.1457  0.3274
  105MOL   H16621174   3.785   1.858   5.773  0.6801  0.7817 -0.2516
  105MOL   H16721175   3.904   1.773   5.705 -0.8878 -1.0158  0.5405
  105MOL   H16821176   3.719   1.694   5.526  1.6212 -1.8015  0.6384
  105MOL   H16921177   3.873   1.552   5.698 -0.1799  0.5094 -1.5023
  105MOL   H17021178   3.779   1.461   5.804  1.1892 -1.6183 -1.0298
  105MOL   H17121179   3.737   1.453   5.641 -0.3890 -1.0169  1.6673
  105MOL   C17221180   3.564   1.820   5.616  0.2850  0.3187 -0.7605
  105MOL   C17321181   3.445   1.740   5.558  0.3169  0.0488  0.2085
  105MOL   O17421182   3.349   1.838   5.518  0.1205  0.1579 -0.0778
  105MOL   C17521183   3.247   1.868   5.617 -0.8503  0.9202  0.8231
  105MOL   H17621184   3.587   1.901   5.548  2.6636  1.2647  1.0870
  105MOL   H17721185   3.535   1.869   5.709  1.2416  2.8419 -1.7414
  105MOL   H17821186   3.402   1.679   5.638 -0.8451 -2.5820 -2.3267
  105MOL   H17921187   3.283   1.904   5.713  0.1333 -1.2945  1.3130
  105MOL   H18021188   3.187   1.951   5.580  1.9600  2.3196 -0.7896
  105MOL   H18121189   3.183   1.783   5.640  2.5251 -1.9874 -0.1102
  105MOL   C18221190   3.486   1.654   5.435 -0.3729  0.0459 -0.5764
  105MOL   C18321191   3.366   1.593   5.353  0.4875 -0.4020 -0.3370
  105MOL   O18421192   3.409   1.536   5.233  0.5087 -0.6007  0.4311
  105MOL   C18521193   3.411   1.627   5.131 -0.0680 -0.5845 -0.5639
  105MOL   H18621194   3.557   1.577   5.466 -0.3861  0.2875  0.0677
  105MOL   H18721195   3.547   1.720   5.375 -0.2780  0.8128  0.3556
  105MOL   H18821196   3.293   1.674   5.346  0.9299  0.1331  0.9990
  105MOL   H18921197   3.463   1.715   5.168 -1.3875  0.0496 -0.1919
  105MOL   H19021198   3.478   1.581   5.058 -0.5720 -1.0923 -0.7103
  105MOL   H19121199   3.311   1.652   5.097  0.5090  1.2031 -0.9600
  105MOL   C19221200   3.290   1.480   5.431 -0.2298 -0.1285  0.4620
  105MOL   C19321201   3.172   1.425   5.362  0.4743  0.4021 -0.4290
  105MOL   O19421202   3.118   1.318   5.434 -0.0624 -0.2286 -0.3537
  105MOL   C19521203   3.023   1.236   5.366 -0.1947  0.1282 -0.3611
  105MOL   H19621204   3.265   1.529   5.526  0.8695 -1.4323  1.4451
  105MOL   H19721205   3.353   1.404   5.477 -0.6207 -0.5385  0.3217
  105MOL   H19821206   3.202   1.395   5.261  0.9215 -0.2212 -0.1133
  105MOL   H19921207   2.958   1.303   5.310 -0.8216 -1.3173 -1.3889
  105MOL   H20021208   3.081   1.169   5.303  0.6543 -0.6143  1.1715
  105MOL   H20121209   2.961   1.190   5.444 -1.8229  2.4385 -0.2344
  105MOL   H20221210   3.101   1.506   5.347  1.0164  0.8758 -0.4446
  106MOL     C121211   7.437   5.327   0.058 -1.0956 -0.0489  0.7538
  106MOL     C221212   7.370   5.288   7.743 -0.2208  0.7140  0.6125
  106MOL     O321213   7.304   5.164   7.776 -0.0739 -0.1830 -0.1929
  106MOL     C421214   7.365   5.056   7.703 -0.4995  0.5960  0.2826
  106MOL     H521215   7.499   5.243   0.089  0.7518  0.0984 -2.3118
  106MOL     H621216   7.517   5.395   0.028  0.7808 -2.6630 -0.3513
  106MOL     H721217   7.444   5.267   7.666 -0.1726 -0.3303  0.9446
  106MOL     H821218   7.471   5.061   7.729 -0.0893  0.2447 -1.2573
  106MOL     H921219   7.315   4.965   7.736  3.3226 -1.5083  0.5449
  106MOL    H1021220   7.348   5.069   7.596  1.3162 -1.0253 -0.2247
  106MOL    H1121221   7.376   5.350   0.146 -0.7412  0.6487  0.8216
  106MOL    C1221222   7.263   5.390   7.696 -0.0802 -0.7397  0.1469
  106MOL    C1321223   7.323   5.510   7.623  0.3756 -0.1953 -0.6775
  106MOL    O1421224   7.222   5.564   7.541 -0.8484 -0.1181 -0.1709
  106MOL    C1521225   7.206   5.504   7.417 -0.5052  0.1467  0.0269
  106MOL    H1621226   7.196   5.427   7.774  2.1818  1.6404  1.0261
  106MOL    H1721227   7.190   5.338   7.634 -1.0115  2.6976 -1.7767
  106MOL    H1821228   7.409   5.466   7.573  1.5853  0.2963  0.9190
  106MOL    H1921229   7.297   5.501   7.358  0.0655 -2.1208  0.9570
  106MOL    H2021230   7.158   5.406   7.416  0.2533 -0.3302  3.6289
  106MOL    H2121231   7.143   5.573   7.361  0.4100 -0.8318 -2.2793
  106MOL    C2221232   7.372   5.627   7.713 -0.0740  0.2790  0.6431
  106MOL    C2321233   7.458   5.730   7.637  0.3506  0.1546 -0.8505
  106MOL    O2421234   7.470   5.854   7.709  0.1877  0.1264 -0.0086
  106MOL    C2521235   7.358   5.945   7.665 -0.1997  0.4143 -0.8808
  106MOL    H2621236   7.432   5.589   7.796  1.8431  1.1431 -0.3154
  106MOL    H2721237   7.285   5.675   7.756 -1.2448 -1.6449  0.4480
  106MOL    H2821238   7.411   5.742   7.540  0.3415  1.2491 -0.7250
  106MOL    H2921239   7.371   5.980   7.563  0.7157 -0.4230 -1.0615
  106MOL    H3021240   7.257   5.904   7.664  0.0384 -0.1995 -0.2102
  106MOL    H3121241   7.364   6.027   7.735 -1.8259  1.6485 -2.1370
  106MOL    C3221242   7.599   5.676   7.608  0.2010 -0.0776 -0.2568
  106MOL    C3321243   7.697   5.755   7.514  0.1108  0.0299  0.2628
  106MOL    O3421244   7.800   5.666   7.497 -0.3076  0.3150 -0.9308
  106MOL    C3521245   0.099   5.670   7.584 -0.0528 -0.0663 -0.3340
  106MOL    H3621246   7.611   5.574   7.570  0.8246  0.5387 -1.7248
  106MOL    H3721247   7.644   5.682   7.707 -1.2860  0.1012  0.4282
  106MOL    H3821248   7.732   5.843   7.567 -1.9290  1.3399 -0.5028
  106MOL    H3921249   0.059   5.667   7.686  0.6772  1.8866  0.0338
  106MOL    H4021250   0.170   5.588   7.575  0.7760  0.5948  0.1594
  106MOL    H4121251   0.153   5.763   7.570  0.2461  0.0338  1.3052
  106MOL    C4221252   7.640   5.789   7.376 -0.2208  0.0533 -0.7281
  106MOL    C4321253   7.724   5.881   7.286 -0.6005  0.1416  0.5358
  106MOL    O4421254   7.647   5.922   7.178  0.0848 -0.2278 -0.5767
  106MOL    C4521255   7.630   5.827   7.076 -0.0973  0.2810  0.0151
  106MOL    H4621256   7.544   5.839   7.385  1.9063  4.1607  0.3396
  106MOL    H4721257   7.621   5.693   7.328  0.2684 -1.5600  2.2118
  106MOL    H4821258   0.009   5.837   7.258 -1.2268  1.2764 -3.6040
  106MOL    H4921259   7.700   5.843   6.994 -0.3370  0.6478 -0.1180
  106MOL    H5021260   7.649   5.723   7.104 -0.0440  0.6015  1.1853
  106MOL    H5121261   7.526   5.834   7.042 -0.3072  2.2221  0.9736
  106MOL    C5221262   7.755   6.017   7.353  1.1370  0.2001 -0.9095
  106MOL    C5321263   0.084   6.048   7.420 -0.6149  0.2969  0.5788
  106MOL    O5421264   0.180   6.030   7.309  0.1874 -0.1091  0.0915
  106MOL    C5521265   0.301   5.975   7.357 -0.2503 -1.0953  0.5012
  106MOL    H5621266   7.675   6.047   7.421  0.8023 -0.6666 -0.9171
  106MOL    H5721267   7.738   6.099   7.284  0.6250  0.6630 -0.2403
  106MOL    H5821268   0.117   5.985   7.502  0.9695 -0.1032 -0.3496
  106MOL    H5921269   0.287   5.884   7.415 -3.1899  0.0395  1.6699
  106MOL    H6021270   0.358   5.961   7.265 -0.4425  1.4057 -0.0530
  106MOL    H6121271   0.351   6.049   7.420 -0.7402  0.2659 -0.6707
  106MOL    C6221272   0.105   6.187   7.464  0.0190 -0.5672 -0.3073
  106MOL    C6321273   0.001   6.226   7.568 -0.6965  0.2441  0.3098
  106MOL    O6421274   0.008   6.132   7.672 -0.4321  0.2716 -0.8221
  106MOL    C6521275   7.698   6.107   7.741  0.1628  1.0128 -1.2026
  106MOL    H6621276   0.104   6.260   7.383  0.9801  0.6833  0.7914
  106MOL    H6721277   0.204   6.195   7.507  1.4513 -0.2826 -3.5570
  106MOL    H6821278   7.713   6.229   7.522 -0.9872 -2.5494  0.6977
  106MOL    H6921279   7.713   6.046   0.020  0.7641  0.6506 -1.5499
  106MOL    H7021280   7.631   6.191   7.759 -1.4264 -0.7749  1.8078
  106MOL    H7121281   7.632   6.054   7.672  1.0806 -0.1377 -1.2239
  106MOL    C7221282   0.028   6.372   7.621 -0.3667 -0.5107 -0.2640
  106MOL    C7321283   7.809   6.484   7.524  0.8931  0.5092  0.9732
  106MOL    O7421284   7.669   6.469   7.497  0.0458  0.7340  0.4120
  106MOL    C7521285   7.627   6.480   7.367 -0.7229 -0.0636  0.1721
  106MOL    H7621286   0.131   6.390   7.648  0.1568 -0.7388 -2.0568
  106MOL    H7721287   7.788   6.383   7.717 -2.4903  0.0107 -1.4019
  106MOL    H7821288   0.051   6.471   7.429 -0.8055  2.1593 -0.2487
  106MOL    H7921289   7.519   6.486   7.373 -0.6814 -0.5847  1.7330
  106MOL    H8021290   7.656   6.564   7.303  1.8000 -0.8274  0.2661
  106MOL    H8121291   7.640   6.385   7.316 -0.7810 -0.4086  0.7917
  106MOL    C8221292   0.008   6.630   7.573  0.0869  0.1840  0.0915
  106MOL    C8321293   0.149   6.657   7.639 -0.0882  0.6905  0.2607
  106MOL    O8421294   0.247   6.632   7.535 -0.3274 -0.4717  0.0897
  106MOL    C8521295   0.376   6.588   7.579 -0.0136 -0.3768  0.8037
  106MOL    H8621296   7.746   6.642   7.654  1.3429 -0.5189  1.3307
  106MOL    H8721297   7.789   6.707   7.501 -0.4495  2.2931  2.4736
  106MOL    H8821298   0.160   6.577   7.713 -2.2370  0.8428  0.7590
  106MOL    H8921299   0.431   6.669   7.627  1.7643 -1.8047  1.2440
  106MOL    H9021300   0.372   6.509   7.654 -1.3450 -0.9513  0.1414
  106MOL    H9121301   0.437   6.544   7.501 -2.1421  0.6700 -1.5178
  106MOL    C9221302   0.157   6.807   7.686  0.0756  1.4320 -0.6646
  106MOL    C9321303   0.178   6.911   7.564 -0.1387  0.4731 -0.4004
  106MOL    O9421304   0.103   7.026   7.589  0.3279  0.6561  0.4334
  106MOL    C9521305   7.778   7.018   7.549  0.3726 -0.1463  0.4576
  106MOL    H9621306   0.230   6.826   7.764 -0.0075  0.5342 -0.3729
  106MOL    H9721307   0.067   6.830   7.743 -1.0991 -2.6204 -0.7540
  106MOL    H9821308   0.151   6.866   7.468 -1.1614  1.4749 -0.5912
  106MOL    H9921309   7.712   7.077   7.612 -0.8136 -1.2745  0.2981
  106MOL   H10021310   7.776   7.059   7.448  1.9042 -2.8751 -0.7643
  106MOL   H10121311   7.743   6.915   7.549  2.0607 -0.7873 -2.6130
  106MOL   C10221312   0.321   6.946   7.549  0.2764  0.4119  0.4392
  106MOL   C10321313   0.356   7.026   7.421 -0.2171 -0.6982  0.6797
  106MOL   O10421314   0.479   7.097   7.453  0.3504 -0.2302 -1.1823
  106MOL   C10521315   0.463   7.233   7.485 -0.1442  0.1164  0.0945
  106MOL   H10621316   0.374   6.851   7.550  0.3163  0.4159 -1.1733
  106MOL   H10721317   0.343   7.007   7.637 -0.5927  2.6480 -0.8598
  106MOL   H10821318   0.276   7.096   7.397  0.1474  0.1094  1.7833
  106MOL   H10921319   0.557   7.283   7.510  0.4139 -0.6255 -0.4988
  106MOL   H11021320   0.418   7.274   7.395 -0.1714  2.4943  1.1411
  106MOL   H11121321   0.386   7.237   7.562  0.0245  0.6434  0.2377
  106MOL   C11221322   0.383   6.933   7.296 -0.4066  0.2857 -0.0594
  106MOL   C11321323   0.389   7.012   7.165 -0.1296 -1.3220  0.1083
  106MOL   O11421324   0.441   6.940   7.048 -0.0477 -0.1191 -0.6825
  106MOL   C11521325   0.588   6.937   7.045  0.5640 -0.4415 -0.8868
  106MOL   H11621326   0.316   6.847   7.286  0.7468 -0.6550  0.1961
  106MOL   H11721327   0.475   6.882   7.324 -1.1935 -1.3560 -0.3946
  106MOL   H11821328   0.461   7.094   7.179 -1.2575  0.1668 -2.4261
  106MOL   H11921329   0.623   6.866   6.970  0.7461  0.0991 -1.3129
  106MOL   H12021330   0.632   7.036   7.035  2.0497 -1.2895 -3.4405
  106MOL   H12121331   0.617   6.881   7.135 -1.1713  0.3371  0.1821
  106MOL   C12221332   0.253   7.072   7.126 -0.1868  1.1226 -0.2942
  106MOL   C12321333   0.243   7.196   7.032  0.3085 -0.2816  0.4408
  106MOL   O12421334   0.319   7.301   7.095  0.1660 -0.1944 -0.4509
  106MOL   C12521335   0.288   7.421   7.040  0.0956  0.1967  0.0273
  106MOL   H12621336   0.192   7.103   7.211  1.2450  2.0354  0.4205
  106MOL   H12721337   0.187   6.994   7.086 -0.7175  1.2966  0.2163
  106MOL   H12821338   0.145   7.238   7.012  1.5181  2.3573 -0.1182
  106MOL   H12921339   0.183   7.433   7.010  0.3003  0.9599 -0.4082
  106MOL   H13021340   0.296   7.506   7.109 -0.6274 -0.5691  1.0723
  106MOL   H13121341   0.350   7.443   6.953  1.6411  0.2087  1.1237
  106MOL   C13221342   0.292   7.182   6.886 -0.5062 -0.2442 -0.9723
  106MOL   C13321343   0.236   7.064   6.799 -0.2795 -0.1233  0.0393
  106MOL   O13421344   0.095   7.078   6.765 -0.3878 -0.3834 -0.5804
  106MOL   C13521345   0.004   7.015   6.857  0.9342  0.2884 -0.2518
  106MOL   H13621346   0.399   7.162   6.894 -0.9345 -1.7822  1.3901
  106MOL   H13721347   0.292   7.273   6.826  2.0932  0.1590 -0.4093
  106MOL   H13821348   0.255   6.971   6.852  0.2515 -0.7679 -1.2519
  106MOL   H13921349   0.028   6.911   6.880 -1.0090  0.5198  3.2341
  106MOL   H14021350   7.807   7.072   6.950 -1.6885  0.4083 -0.4750
  106MOL   H14121351   7.714   7.011   6.814  0.4230 -2.1458  1.0490
  106MOL   C14221352   0.308   7.074   6.663 -0.5842 -0.7074  0.4343
  106MOL   C14321353   0.315   6.955   6.578  0.2332  0.0091  0.5759
  106MOL   O14421354   0.378   7.006   6.462 -0.0179  0.0440 -0.5794
  106MOL   C14521355   0.370   6.936   6.342 -0.6805 -1.3027 -0.3184
  106MOL   H14621356   0.411   7.103   6.687 -1.0295  0.7902  0.5633
  106MOL   H14721357   0.254   7.151   6.608 -0.4030 -0.7383  0.2111
  106MOL   H14821358   0.212   6.929   6.553 -0.4547  3.6927 -0.7318
  106MOL   H14921359   0.425   6.988   6.262 -2.0614  0.0973 -0.3874
  106MOL   H15021360   0.411   6.835   6.345 -0.9231 -1.4174 -0.7782
  106MOL   H15121361   0.266   6.946   6.313 -0.7793 -1.1319  0.0910
  106MOL   C15221362   0.404   6.843   6.647 -0.4176  0.3745  0.2044
  106MOL   C15321363   0.331   6.721   6.708 -0.9815 -0.2779  0.3614
  106MOL   O15421364   0.257   6.665   6.605  0.1587  0.2821 -0.4642
  106MOL   C15521365   0.121   6.640   6.624  0.7765  0.6666 -0.1767
  106MOL   H15621366   0.486   6.878   6.710  0.6003 -0.2507 -0.7583
  106MOL   H15721367   0.467   6.802   6.568 -0.0537  2.0247 -0.3869
  106MOL   H15821368   0.272   6.745   6.796  0.1771 -2.2665  1.7215
  106MOL   H15921369   0.105   6.577   6.711 -2.0270  0.7327 -0.5834
  106MOL   H16021370   0.062   6.731   6.636 -2.2316 -1.0426 -1.3570
  106MOL   H16121371   0.075   6.574   6.550 -1.0640  1.9654 -0.2363
  106MOL   C16221372   0.436   6.622   6.751 -0.6506 -0.1533  0.0057
  106MOL   C16321373   0.382   6.486   6.796 -0.7306  0.3239  0.1224
  106MOL   O16421374   0.484   6.394   6.786  0.1305  0.3335  0.2836
  106MOL   C16521375   0.478   6.306   6.680  0.3145  0.3611  0.8310
  106MOL   H16621376   0.512   6.656   6.821  1.5902 -0.6398 -2.1056
  106MOL   H16721377   0.499   6.606   6.663  1.5779 -0.9116  1.6900
  106MOL   H16821378   0.302   6.456   6.728  0.8758  0.6139 -1.9400
  106MOL   H16921379   0.576   6.257   6.676  0.1926  0.1276  0.6719
  106MOL   H17021380   0.414   6.219   6.696  2.9500 -1.9301 -0.5547
  106MOL   H17121381   0.454   6.352   6.584  2.4111  2.9908  1.5088
  106MOL   C17221382   0.328   6.502   6.939 -0.5964 -0.2245  0.5035
  106MOL   C17321383   0.250   6.378   6.991  0.0104  0.3210 -0.5479
  106MOL   O17421384   0.207   6.429   7.122 -0.0569 -0.2406  0.5025
  106MOL   C17521385   0.293   6.398   7.235 -0.0118  0.5377  0.5230
  106MOL   H17621386   0.260   6.586   6.951  0.3061  0.5602  0.1250
  106MOL   H17721387   0.413   6.525   7.004  0.9630 -0.7139 -1.3241
  106MOL   H17821388   0.307   6.287   7.007  2.5228  1.9973  0.2832
  106MOL   H17921389   0.385   6.453   7.221 -0.1588  0.8115  0.6257
  106MOL   H18021390   0.237   6.416   7.327  1.5265  1.6040  1.2702
  106MOL   H18121391   0.308   6.290   7.237  0.1553  0.5613  0.5443
  106MOL   C18221392   0.120   6.357   6.904  0.0089 -0.5464 -0.3384
  106MOL   C18321393   0.029   6.249   6.968 -0.0384  0.0791  0.2562
  106MOL   O18421394   7.715   6.269   6.899 -0.2612  0.2468  0.4767
  106MOL   C18521395   7.603   6.225   6.977  0.6791  0.0056 -0.4668
  106MOL   H18621396   0.144   6.337   6.800  1.5000  2.1876 -0.5778
  106MOL   H18721397   0.073   6.455   6.903  1.9243  0.3946 -1.9864
  106MOL   H18821398   0.018   6.272   7.074 -0.7434  2.7595 -0.3513
  106MOL   H18921399   7.514   6.207   6.917  0.6653  1.0143 -0.7538
  106MOL   H19021400   7.633   6.132   7.026  3.9949  2.3671  2.2420
  106MOL   H19121401   7.577   6.303   7.048 -1.5665 -0.2756 -0.9334
  106MOL   C19221402   0.079   6.103   6.959 -0.3994  0.4357  0.1862
  106MOL   C19321403   0.076   6.057   6.808  0.4568  0.4084  0.1464
  106MOL   O19421404   0.143   5.930   6.799  0.3945 -0.0675 -0.3817
  106MOL   C19521405   0.140   5.879   6.670 -1.3363 -0.1733 -0.2929
  106MOL   H19621406   0.023   6.023   7.008 -1.5648  0.2920 -1.3642
  106MOL   H19721407   0.181   6.095   6.996  0.0479  0.2442 -1.0824
  106MOL   H19821408   0.120   6.133   6.744 -0.4877 -0.4989 -1.6165
  106MOL   H19921409   0.201   5.936   6.600 -2.2802  1.1227 -0.0761
  106MOL   H20021410   0.198   5.787   6.669  0.1558  0.7307  0.2745
  106MOL   H20121411   0.036   5.874   6.639 -1.3716  0.6129 -0.3066
  106MOL   H20221412   7.780   6.055   6.784 -0.0838 -0.7185  2.5006
  107MOL     C121413   6.209   7.335   3.866  0.1499  0.2497  0.8038
  107MOL     C221414   6.119   7.458   3.902 -0.5184  0.4209  0.7791
  107MOL     O321415   6.188   7.581   3.924  0.0256 -0.1394 -0.2097
  107MOL     C421416   6.294   7.609   3.841 -0.5758 -0.5810  0.8384
  107MOL     H521417   6.148   7.255   3.823  0.6818  0.6513 -0.7035
  107MOL     H621418   6.274   7.360   3.782 -0.8508 -1.0384 -0.3815
  107MOL     H721419   6.063   7.433   3.992  1.0683 -2.5272  0.9887
  107MOL     H821420   6.371   7.544   3.883 -0.0989 -0.7881 -0.3445
  107MOL     H921421   6.280   7.598   3.733  0.7231  2.2136  0.3325
  107MOL    H1021422   6.327   7.711   3.859  0.7465 -0.6476 -1.0901
  107MOL    H1121423   6.270   7.295   3.947 -2.5110 -1.4189  2.0781
  107MOL    C1221424   6.010   7.479   3.792 -0.1119  0.4307  0.4250
  107MOL    C1321425   5.920   7.600   3.791 -0.0791 -0.6695  0.0858
  107MOL    O1421426   5.835   7.582   3.678 -0.1697  0.4359 -0.2819
  107MOL    C1521427   5.891   7.612   3.551 -0.0679 -0.2218 -0.1364
  107MOL    H1621428   5.943   7.394   3.781 -0.3163  0.6937 -0.4260
  107MOL    H1721429   6.057   7.477   3.694  0.6658 -3.2593  0.7757
  107MOL    H1821430   5.957   7.702   3.782 -0.5954 -0.6242 -1.5452
  107MOL    H1921431   5.813   7.627   3.476  1.8297 -0.1286 -2.1480
  107MOL    H2021432   5.947   7.706   3.552  0.5211 -0.5739  2.6866
  107MOL    H2121433   5.953   7.530   3.515 -0.3104 -0.3134 -0.3461
  107MOL    C2221434   5.836   7.596   3.921 -0.5220 -0.2220 -0.1439
  107MOL    C2321435   5.739   7.717   3.953 -0.1263 -0.2154 -0.5736
  107MOL    O2421436   5.790   0.037   3.907  0.2918  0.4154 -0.0826
  107MOL    C2521437   5.886   0.089   4.002 -0.6237  0.0508 -0.3548
  107MOL    H2621438   5.908   7.587   4.002 -0.4096 -1.9775 -0.4345
  107MOL    H2721439   5.777   7.505   3.930  0.1293 -0.4826  1.6933
  107MOL    H2821440   5.724   7.716   4.061 -0.7445  1.1223 -0.6314
  107MOL    H2921441   5.980   0.034   3.999  0.2338  1.5257 -1.8938
  107MOL    H3021442   5.906   0.191   3.968  1.3874 -0.0688  0.3757
  107MOL    H3121443   5.858   0.113   4.104 -2.6553 -0.0228 -0.8714
  107MOL    C3221444   5.609   7.701   3.882  0.3411 -0.5347  0.1343
  107MOL    C3321445   5.480   7.739   3.959  0.0676 -0.7086  0.3243
  107MOL    O3421446   5.459   7.640   4.061 -0.2401  0.2707 -0.0240
  107MOL    C3521447   5.400   7.519   4.014 -1.0367 -0.5599  0.2014
  107MOL    H3621448   5.605   7.597   3.850  1.5366 -1.3488  2.5213
  107MOL    H3721449   5.613   7.757   3.788 -1.3156 -1.3055 -0.4011
  107MOL    H3821450   5.394   7.742   3.892  0.1563 -1.3519  0.1732
  107MOL    H3921451   5.311   7.535   3.953  0.2611 -0.3258 -1.6650
  107MOL    H4021452   5.474   7.475   3.949 -2.2298 -1.1602 -0.7599
  107MOL    H4121453   5.371   7.443   4.087 -1.0572 -0.5594  0.1923
  107MOL    C4221454   5.491   0.062   4.032  0.2904  0.7128 -0.2211
  107MOL    C4321455   5.358   0.140   4.032 -0.4981  0.0397 -0.1106
  107MOL    O4421456   5.354   0.213   4.155  0.0917  0.1125  0.6883
  107MOL    C4521457   5.327   0.135   4.271 -0.2828 -0.7806  0.1388
  107MOL    H4621458   5.565   0.133   3.996 -0.8113  1.2283 -1.5158
  107MOL    H4721459   5.530   0.038   4.131  0.9773  0.9495 -0.4264
  107MOL    H4821460   5.266   0.082   4.042  0.4006 -1.6791 -1.5790
  107MOL    H4921461   5.228   0.091   4.264 -0.3097 -0.7871  0.5568
  107MOL    H5021462   5.395   0.050   4.283  0.5514 -0.0223  0.7635
  107MOL    H5121463   5.331   0.207   4.352 -0.6736 -0.4077 -0.1729
  107MOL    C5221464   5.328   0.236   3.912  0.4485 -0.0942 -0.0563
  107MOL    C5321465   5.176   0.266   3.882 -0.7464  0.3618 -0.5567
  107MOL    O5421466   5.159   0.399   3.826 -0.5027  0.3057  0.2704
  107MOL    C5521467   5.153   0.494   3.931  0.2662 -0.0417 -0.4548
  107MOL    H5621468   5.374   0.200   3.820  1.9004  0.1541  0.5455
  107MOL    H5721469   5.378   0.329   3.940 -2.7800  2.0696 -1.1765
  107MOL    H5821470   5.122   0.249   3.975 -2.9907 -0.3940 -1.9436
  107MOL    H5921471   5.092   0.460   4.015  1.0903 -1.8168 -0.5471
  107MOL    H6021472   5.255   0.504   3.966  0.2750 -2.1881  0.2400
  107MOL    H6121473   5.125   0.589   3.885  1.3569  1.4117  1.8210
  107MOL    C6221474   5.127   0.165   3.779 -0.5821 -0.6180  0.7743
  107MOL    C6321475   4.974   0.145   3.785  0.1525  0.6749  0.2241
  107MOL    O6421476   4.939   0.061   3.675 -0.2233 -0.4741 -0.8260
  107MOL    C6521477   4.894   0.120   3.561  0.9453 -0.7162  0.5288
  107MOL    H6621478   5.175   0.070   3.802  0.4202 -0.4344 -0.5336
  107MOL    H6721479   5.155   0.201   3.681 -2.1489 -3.8809 -0.9727
  107MOL    H6821480   4.928   0.243   3.771  1.3035  0.9204 -1.9273
  107MOL    H6921481   4.866   0.038   3.495  0.5347  0.5403 -0.8768
  107MOL    H7021482   4.807   0.184   3.574 -0.4017 -2.1037 -1.2789
  107MOL    H7121483   4.967   0.181   3.509 -0.6392  1.7483  1.0990
  107MOL    C7221484   4.927   0.057   3.904 -0.2297  0.2876 -0.0249
  107MOL    C7321485   4.773   0.050   3.932  0.0434  0.6149 -0.2300
  107MOL    O7421486   4.747   7.779   4.049  0.4476  0.5584  0.2732
  107MOL    C7521487   4.738   7.639   4.015  0.2830  0.0692  0.4512
  107MOL    H7621488   4.962   0.095   4.000  1.6763 -2.5454  0.4811
  107MOL    H7721489   4.967   7.767   3.891 -0.7852 -0.0966  1.1828
  107MOL    H7821490   4.725   0.005   3.845  0.5517 -0.1700 -0.1128
  107MOL    H7921491   4.820   7.608   3.950  1.6216  0.6259  1.8440
  107MOL    H8021492   4.728   7.589   4.111 -1.8017 -1.3406 -0.4509
  107MOL    H8121493   4.641   7.625   3.968  1.0252 -0.3477 -0.9722
  107MOL    C8221494   4.706   0.183   3.973 -0.6902 -0.0062  0.2855
  107MOL    C8321495   4.767   0.282   4.076 -0.5413  0.4277 -0.4958
  107MOL    O8421496   4.703   0.409   4.058 -0.9545 -0.2435 -0.3538
  107MOL    C8521497   4.751   0.488   3.946 -0.7775  0.3767  0.0926
  107MOL    H8621498   4.603   0.155   3.993 -0.2986 -1.5483  0.1755
  107MOL    H8721499   4.707   0.236   3.878 -1.2712  1.3211  1.0060
  107MOL    H8821500   4.871   0.284   4.043 -0.8168  0.7750 -1.3634
  107MOL    H8921501   4.765   0.447   3.846  0.8376  1.0755  0.0172
  107MOL    H9021502   4.696   0.582   3.939  1.4429  1.5840 -2.7258
  107MOL    H9121503   4.843   0.528   3.989 -0.8775  0.9463 -0.2166
  107MOL    C9221504   4.755   0.219   4.221 -0.5809  0.2802  0.3057
  107MOL    C9321505   4.880   0.153   4.285 -0.6095 -0.4340  0.5035
  107MOL    O9421506   5.002   0.236   4.277  0.3062 -0.4282  0.6130
  107MOL    C9521507   4.995   0.376   4.292  0.3255  0.8500 -0.6633
  107MOL    H9621508   4.670   0.151   4.228 -0.8544  0.5058 -0.7621
  107MOL    H9721509   4.742   0.308   4.282 -2.5163 -0.6199  1.2560
  107MOL    H9821510   4.908   0.058   4.239  2.0466  0.8717 -0.7105
  107MOL    H9921511   4.929   0.410   4.372  1.8177  0.9473  0.5445
  107MOL   H10021512   5.095   0.409   4.321  0.7877  0.3729 -1.7026
  107MOL   H10121513   4.964   0.427   4.201 -0.3782  1.3478 -0.1460
  107MOL   C10221514   4.850   0.121   4.433  0.5103 -0.2953 -0.1477
  107MOL   C10321515   4.946   0.025   4.510 -0.3781  0.0868 -0.4560
  107MOL   O10421516   4.932   0.047   4.643  0.3838 -0.5618 -0.9910
  107MOL   C10521517   5.009   0.153   4.695 -0.1946 -0.5969  0.1894
  107MOL   H10621518   4.751   0.076   4.447 -0.1965  1.6816  1.5329
  107MOL   H10721519   4.834   0.218   4.480  1.2231 -0.3328  0.1730
  107MOL   H10821520   5.051   0.040   4.485 -0.1622 -0.7186 -0.0469
  107MOL   H10921521   4.983   0.249   4.650 -1.2689 -1.0943 -0.2756
  107MOL   H11021522   5.011   0.152   4.804  0.3751 -0.3450  0.1823
  107MOL   H11121523   5.114   0.133   4.674  0.0946 -0.3491  1.3774
  107MOL   C11221524   4.901   7.685   4.470 -0.3021 -0.5470  0.0981
  107MOL   C11321525   4.948   7.576   4.581  0.1995 -0.5828  0.1351
  107MOL   O11421526   4.897   7.461   4.529  0.5505 -0.0092 -0.2455
  107MOL   C11521527   4.789   7.405   4.598 -0.0527  0.0026  0.2492
  107MOL   H11621528   4.944   7.666   4.372  0.6637  0.7884  0.2541
  107MOL   H11721529   4.794   7.665   4.463  0.0961 -2.2137 -1.9514
  107MOL   H11821530   4.898   7.599   4.675  0.8745 -1.4289  0.7135
  107MOL   H11921531   4.775   7.301   4.569 -1.4926 -0.3992  2.3663
  107MOL   H12021532   4.804   7.412   4.705 -3.5452  0.3565  0.7624
  107MOL   H12121533   4.689   7.446   4.582 -0.1284 -1.1909 -2.6349
  107MOL   C12221534   5.099   7.548   4.604  0.0100  0.3164 -0.3240
  107MOL   C12321535   5.150   7.470   4.729  0.3443  0.2845  0.2834
  107MOL   O12421536   5.160   7.550   4.847  0.3305  0.1725  0.4684
  107MOL   C12521537   5.043   7.612   4.891 -0.2315  0.2817 -0.8403
  107MOL   H12621538   5.161   7.637   4.599  0.0128  0.5360  2.6986
  107MOL   H12721539   5.124   7.499   4.510  3.2976  1.2922 -0.0107
  107MOL   H12821540   5.250   7.439   4.697  0.2457 -0.5021  0.7169
  107MOL   H12921541   5.019   7.699   4.829  0.4678  1.5462  0.6366
  107MOL   H13021542   4.958   7.546   4.908  1.8053 -1.6901  2.1820
  107MOL   H13121543   5.072   7.641   4.992 -0.1306 -1.2521 -0.4167
  107MOL   C13221544   5.092   7.328   4.763  0.2615  0.1877  0.7235
  107MOL   C13321545   5.178   7.253   4.865 -0.3141  0.7394 -0.1494
  107MOL   O13421546   5.082   7.157   4.918  0.3863 -0.2517 -0.4616
  107MOL   C13521547   5.118   7.080   5.032 -0.1334  0.2769  0.1819
  107MOL   H13621548   5.093   7.270   4.670 -0.3358 -0.5824  1.1870
  107MOL   H13721549   4.988   7.323   4.795 -0.0808 -2.7089 -0.5850
  107MOL   H13821550   5.218   7.310   4.949 -1.6864 -1.1677  1.8467
  107MOL   H13921551   5.181   6.993   5.013  1.1487  1.1765  0.2415
  107MOL   H14021552   5.155   7.138   5.116 -1.9006  0.7030  0.6916
  107MOL   H14121553   5.017   7.049   5.058 -0.8741  2.5179  0.0874
  107MOL   C14221554   5.305   7.178   4.806  0.5715 -0.3888 -0.0779
  107MOL   C14321555   5.441   7.257   4.808 -0.0922  1.0201 -0.2874
  107MOL   O14421556   5.488   7.278   4.945  0.2067 -0.0990  0.2377
  107MOL   C14521557   5.480   7.417   4.986  0.0677 -0.2514  0.2953
  107MOL   H14621558   5.293   7.160   4.699  1.8371 -0.8291 -0.1509
  107MOL   H14721559   5.302   7.080   4.855  0.9520 -0.8396 -0.9438
  107MOL   H14821560   5.423   7.354   4.761 -1.5204  0.2351 -1.3544
  107MOL   H14921561   5.396   7.474   4.945  0.0972  0.7370  1.5572
  107MOL   H15021562   5.455   7.410   5.092 -1.0708 -1.6743 -0.0567
  107MOL   H15121563   5.572   7.475   4.977 -0.7020  0.9479  0.0108
  107MOL   C15221564   5.561   7.185   4.730 -0.3024  0.1416  0.1163
  107MOL   C15321565   5.642   7.282   4.641  0.0958 -0.4115 -0.3628
  107MOL   O15421566   5.556   7.375   4.581 -0.2434 -0.3942 -0.1783
  107MOL   C15521567   5.469   7.328   4.477 -0.5168 -0.4377 -0.4878
  107MOL   H15621568   5.522   7.099   4.675  0.6835 -2.2030  2.9422
  107MOL   H15721569   5.642   7.150   4.794  0.9896  1.9545 -0.4794
  107MOL   H15821570   5.692   7.218   4.568 -1.2129 -1.5383 -0.2967
  107MOL   H15921571   5.397   7.256   4.516  0.4795 -0.0465  2.2630
  107MOL   H16021572   5.421   7.410   4.425  0.9216  1.2143  0.7364
  107MOL   H16121573   5.533   7.292   4.397  0.2255  0.3776 -0.2733
  107MOL   C16221574   5.745   7.362   4.726 -0.1589  0.2843 -0.3811
  107MOL   C16321575   5.870   7.292   4.779  0.2118  0.1160 -0.4499
  107MOL   O16421576   5.924   7.198   4.679 -0.1034 -0.4722 -0.1543
  107MOL   C16521577   5.986   7.081   4.738  0.6343  0.0413  0.2788
  107MOL   H16621578   5.692   7.411   4.808  1.3617  0.2281  0.6403
  107MOL   H16721579   5.777   7.446   4.665  1.1148 -0.3925 -0.6773
  107MOL   H16821580   5.839   7.238   4.868 -1.6826  3.3245  0.9303
  107MOL   H16921581   6.063   7.115   4.808  2.9146 -1.8548 -1.2230
  107MOL   H17021582   5.906   7.019   4.776 -0.7233  1.3331 -0.4116
  107MOL   H17121583   6.043   7.012   4.676  1.6258  0.9108  0.2009
  107MOL   C17221584   5.986   7.392   4.805 -0.1666 -0.7283 -0.4832
  107MOL   C17321585   5.969   7.483   4.933 -0.1500  0.8452 -1.3008
  107MOL   O17421586   5.980   7.388   5.043  0.7869 -0.2833  0.1125
  107MOL   C17521587   5.890   7.396   5.155  0.1186  0.3647 -0.3977
  107MOL   H17621588   6.000   7.453   4.715  1.9478  0.9510  0.9251
  107MOL   H17721589   6.082   7.341   4.811 -0.6758 -1.4823  1.7538
  107MOL   H17821590   5.872   7.532   4.940 -1.1479 -0.7871 -3.1657
  107MOL   H17921591   5.787   7.391   5.119  0.2023 -0.4867 -0.5284
  107MOL   H18021592   5.906   7.306   5.214 -0.4564 -0.2959 -1.2376
  107MOL   H18121593   5.902   7.486   5.215 -2.2365  0.6634 -0.3107
  107MOL   C18221594   6.075   7.587   4.958 -0.8314  1.3231 -0.2192
  107MOL   C18321595   6.073   7.701   4.853 -0.3889 -0.3236  0.1577
  107MOL   O18421596   5.950   7.769   4.868  0.3279  0.6290  0.2037
  107MOL   C18521597   5.889   7.810   4.747  0.0108 -0.7968  0.5989
  107MOL   H18621598   6.173   7.539   4.954 -0.3989  2.1225  0.6938
  107MOL   H18721599   6.061   7.628   5.058 -1.1618 -0.2791  0.4030
  107MOL   H18821600   6.081   7.654   4.755  0.1545  0.4352 -0.1629
  107MOL   H18921601   5.855   7.723   4.691  2.0389 -0.0787 -1.8557
  107MOL   H19021602   5.801   0.058   4.771  0.7173 -0.3658  2.2424
  107MOL   H19121603   5.955   0.055   4.680 -1.3009  0.7627  0.5890
  107MOL   C19221604   6.192   7.797   4.883  0.0259  0.6004 -0.1561
  107MOL   C19321605   6.317   7.745   4.815 -0.0324  0.2280  0.7118
  107MOL   O19421606   6.417   0.029   4.851  0.4975 -0.0945  0.3232
  107MOL   C19521607   6.527   0.038   4.756 -0.3312 -0.7691 -0.0767
  107MOL   H19621608   6.195   7.800   4.992  1.9984 -1.9372 -0.0762
  107MOL   H19721609   6.156   0.087   4.865 -0.5192  0.7364  1.6165
  107MOL   H19821610   6.303   7.731   4.708 -1.5059 -1.7716  1.1365
  107MOL   H19921611   6.479   0.074   4.665 -1.5811 -1.5756  0.2504
  107MOL   H20021612   6.585   0.117   4.804 -0.4479 -0.5893 -0.2308
  107MOL   H20121613   6.580   7.755   4.737 -0.9498 -1.0305 -0.5165
  107MOL   H20221614   6.348   7.646   4.848 -0.6831  0.1185  1.0121
  108MOL     C121615   3.841   0.791   4.691 -0.3091 -0.6382  0.5501
  108MOL     C221616   3.779   0.800   4.835 -0.0034  0.6477 -0.0648
  108MOL     O321617   3.640   0.813   4.834  0.3019 -0.0852  0.1152
  108MOL     C421618   3.588   0.945   4.820  0.3027 -0.2400  0.6454
  108MOL     H521619   3.802   0.869   4.626  1.2431 -0.4198 -0.1363
  108MOL     H621620   3.949   0.794   4.691 -0.2932 -0.7299 -1.0283
  108MOL     H721621   3.818   0.888   4.886  3.0080 -1.0102  0.6197
  108MOL     H821622   3.480   0.942   4.803  0.5985  0.3733 -1.5215
  108MOL     H921623   3.604   1.010   4.906  1.1540  2.1983 -1.2877
  108MOL    H1021624   3.633   0.990   4.731 -1.0082 -1.6322 -0.7712
  108MOL    H1121625   3.809   0.692   4.658  1.0603 -0.1932 -2.1896
  108MOL    C1221626   3.800   0.676   4.923 -0.0590 -0.1069  0.9569
  108MOL    C1321627   3.947   0.637   4.964 -0.3062 -0.3402  0.3954
  108MOL    O1421628   3.991   0.734   5.059  1.0180 -0.8937 -0.1250
  108MOL    C1521629   4.097   0.813   5.000 -0.1296 -0.0249 -0.2059
  108MOL    H1621630   3.763   0.606   4.848  0.7254  0.9440 -0.4253
  108MOL    H1721631   3.737   0.688   5.012 -0.0676  2.4913  0.6543
  108MOL    H1821632   4.013   0.640   4.877 -0.7489 -2.0168 -0.0201
  108MOL    H1921633   4.173   0.758   4.945 -2.5263 -2.6068 -1.1067
  108MOL    H2021634   4.062   0.886   4.927  1.5016  2.6447  1.5870
  108MOL    H2121635   4.134   0.865   5.088 -0.2879 -1.7029  0.8722
  108MOL    C2221636   3.955   0.497   5.025 -0.2678  0.0776 -0.6886
  108MOL    C2321637   4.102   0.440   5.041 -0.3279 -0.0538  0.2531
  108MOL    O2421638   4.087   0.328   5.135 -0.7247 -0.0009 -0.0374
  108MOL    C2521639   4.168   0.348   5.248 -0.2929 -0.2160 -0.0134
  108MOL    H2621640   3.901   0.427   4.961 -2.1302  0.9141 -0.0573
  108MOL    H2721641   3.911   0.490   5.124 -2.8565 -1.7515 -1.8910
  108MOL    H2821642   4.169   0.516   5.081 -1.5878  1.6142 -0.7325
  108MOL    H2921643   4.273   0.366   5.226 -0.7641 -0.4324 -2.7038
  108MOL    H3021644   4.130   0.432   5.305  1.3408  0.3957  0.1886
  108MOL    H3121645   4.155   0.266   5.318  0.5564  0.3126  0.7563
  108MOL    C3221646   4.162   0.384   4.911  0.6948 -0.4952  0.1503
  108MOL    C3321647   4.318   0.378   4.907  1.0557  0.5011  0.2017
  108MOL    O3421648   4.368   0.248   4.887  0.6782  0.2670 -0.0044
  108MOL    C3521649   4.353   0.147   4.991  0.5459  0.2272  0.5408
  108MOL    H3621650   4.116   0.438   4.828  1.9259  1.0026  0.4142
  108MOL    H3721651   4.119   0.284   4.909 -1.3391  0.3664 -1.1738
  108MOL    H3821652   4.364   0.408   5.001  1.8678  0.7654 -0.2813
  108MOL    H3921653   4.390   0.192   5.084 -0.0241 -0.8790  1.3017
  108MOL    H4021654   4.249   0.121   5.008  0.6582 -0.1264  0.6931
  108MOL    H4121655   4.413   0.058   4.977 -1.4368 -0.8077 -1.6155
  108MOL    C4221656   4.377   0.459   4.791  0.2017  0.1515 -0.0977
  108MOL    C4321657   4.529   0.501   4.811 -0.1573  1.0108  0.2138
  108MOL    O4421658   4.581   0.547   4.689 -0.1169 -0.2739 -0.0047
  108MOL    C4521659   4.634   0.446   4.599 -0.0722  0.5507  0.4793
  108MOL    H4621660   4.314   0.548   4.786 -0.7860 -0.5567 -0.3251
  108MOL    H4721661   4.361   0.407   4.697 -0.3008 -0.9076  0.5688
  108MOL    H4821662   4.588   0.420   4.854  1.4575  1.9062 -0.2851
  108MOL    H4921663   4.686   0.369   4.655 -0.0177 -0.4516 -0.9245
  108MOL    H5021664   4.553   0.392   4.549 -0.4351  1.7838 -0.3012
  108MOL    H5121665   4.704   0.486   4.526 -1.5272  0.0423 -1.2169
  108MOL    C5221666   4.538   0.623   4.899 -0.6269 -0.0283  0.1799
  108MOL    C5321667   4.677   0.668   4.921 -1.0473  0.2369  0.2844
  108MOL    O5421668   4.690   0.803   4.974  0.3271  0.1831 -0.1343
  108MOL    C5521669   4.820   0.870   4.975 -0.1165 -0.3926 -0.1915
  108MOL    H5621670   4.481   0.622   4.992 -0.8100 -3.2882  0.1018
  108MOL    H5721671   4.490   0.696   4.834 -0.7524 -0.1593  0.1233
  108MOL    H5821672   4.720   0.677   4.821 -1.0746 -0.3554  0.2206
  108MOL    H5921673   4.885   0.806   5.035  1.3468  0.4599 -0.8298
  108MOL    H6021674   4.876   0.895   4.885  2.4689  1.0117  1.7068
  108MOL    H6121675   4.814   0.957   5.040  1.5425  0.9297 -1.7633
  108MOL    C6221676   4.757   0.573   5.013 -0.1688  0.2652 -0.0240
  108MOL    C6321677   4.883   0.499   4.954  0.5596 -0.4305  0.6218
  108MOL    O6421678   4.980   0.598   4.931  0.6448  0.4686 -0.0830
  108MOL    C6521679   5.066   0.568   4.819 -0.4868 -0.3770  0.3145
  108MOL    H6621680   4.685   0.504   5.058  0.3832 -0.6479 -0.5312
  108MOL    H6721681   4.789   0.623   5.104  0.2759  1.7862 -0.9818
  108MOL    H6821682   4.848   0.470   4.855 -0.8071  1.5496  0.4787
  108MOL    H6921683   5.103   0.466   4.818  2.5325  0.6837 -0.9857
  108MOL    H7021684   5.024   0.584   4.719 -0.1655  1.4332  0.4509
  108MOL    H7121685   5.151   0.635   4.831  1.1489 -2.8501  3.0123
  108MOL    C7221686   4.957   0.393   5.037 -0.0008 -0.0335 -0.5203
  108MOL    C7321687   4.855   0.273   5.077  0.4664 -0.5374 -0.5449
  108MOL    O7421688   4.783   0.257   4.953  0.8415  0.3326  0.0703
  108MOL    C7521689   4.661   0.188   4.973  0.5411 -0.2139  0.1763
  108MOL    H7621690   4.990   0.448   5.125 -0.1066  0.9124 -1.0639
  108MOL    H7721691   5.044   0.357   4.983  0.1184  1.5044 -1.3886
  108MOL    H7821692   4.791   0.303   5.160  1.4741  1.9642 -0.6468
  108MOL    H7921693   4.610   0.168   4.878  1.2411  2.0708 -0.7283
  108MOL    H8021694   4.671   0.088   5.015  2.1392 -0.9967 -1.9595
  108MOL    H8121695   4.596   0.258   5.025  0.9159  0.7268 -0.6043
  108MOL    C8221696   4.930   0.146   5.110  0.0064 -0.6192 -0.5906
  108MOL    C8321697   4.990   0.140   5.255  0.3812  0.4375  0.0125
  108MOL    O8421698   4.879   0.105   5.339 -0.1480 -0.6437  0.2562
  108MOL    C8521699   4.902   0.139   5.479 -0.2400 -0.2771 -0.1873
  108MOL    H8621700   5.010   0.147   5.036 -2.2405  0.6271 -3.0674
  108MOL    H8721701   4.867   0.061   5.088 -1.6445  0.9178 -1.9315
  108MOL    H8821702   5.022   0.238   5.290 -2.0457  1.6544 -1.0575
  108MOL    H8921703   4.865   0.239   5.501  0.5706 -0.5390  2.5933
  108MOL    H9021704   4.843   0.084   5.553 -1.0077  1.2818  0.4076
  108MOL    H9121705   5.003   0.124   5.516 -0.2182  1.7600  0.6748
  108MOL    C9221706   5.107   0.040   5.267 -0.2640  0.3386  0.7188
  108MOL    C9321707   5.241   0.090   5.209 -0.4940 -0.6768  0.5395
  108MOL    O9421708   5.289   0.168   5.321 -0.2581  0.3141 -0.3316
  108MOL    C9521709   5.405   0.239   5.308 -0.4002  0.1660 -0.5539
  108MOL    H9621710   5.073   7.762   5.213 -1.0345  0.6250  0.7335
  108MOL    H9721711   5.122   0.003   5.369  1.0847 -1.3675 -0.0587
  108MOL    H9821712   5.237   0.160   5.126  1.1455 -1.2744 -0.0434
  108MOL    H9921713   5.489   0.171   5.319  0.2062  1.3828  2.8306
  108MOL   H10021714   5.411   0.292   5.213  3.5426  2.1558  0.7413
  108MOL   H10121715   5.409   0.305   5.395  0.4839 -1.6960  0.8500
  108MOL   C10221716   5.340   7.788   5.162  0.3722 -0.0391  0.3454
  108MOL   C10321717   5.423   0.023   5.049 -0.5323 -0.3747 -0.8815
  108MOL   O10421718   5.528   7.737   5.045  0.2831  0.5929 -0.0543
  108MOL   C10521719   5.648   7.772   5.113 -0.0077  0.0185 -0.0731
  108MOL   H10621720   5.294   7.690   5.156  0.9092 -0.1961 -1.1873
  108MOL   H10721721   5.407   7.772   5.246  1.8669 -1.2252 -1.0508
  108MOL   H10821722   5.460   0.124   5.062 -0.2631 -0.9102  3.1383
  108MOL   H10921723   5.718   0.027   5.061  0.7886  0.6378  1.7250
  108MOL   H11021724   5.614   0.010   5.204 -0.2371 -0.5493  0.1449
  108MOL   H11121725   5.703   7.680   5.133  1.4866  0.4696 -1.9315
  108MOL   C11221726   5.341   0.012   4.914 -0.2422  0.7084 -0.9077
  108MOL   C11321727   5.402   0.092   4.790 -0.4535  0.4905 -1.0615
  108MOL   O11421728   5.359   0.031   4.666 -0.4445 -0.1377 -0.9347
  108MOL   C11521729   5.455   7.764   4.606 -0.0546  0.0818 -0.3984
  108MOL   H11621730   5.233   0.026   4.924 -0.0779  0.4352  1.6295
  108MOL   H11721731   5.359   7.717   4.896  1.4304  0.2833  2.6624
  108MOL   H11821732   5.511   0.088   4.790 -0.4591 -0.4957  1.2599
  108MOL   H11921733   5.396   7.700   4.541  0.3094  0.7461 -1.4130
  108MOL   H12021734   5.520   0.002   4.532 -2.2527 -0.2194 -2.6045
  108MOL   H12121735   5.518   7.701   4.668 -1.4320 -0.5063  0.4103
  108MOL   C12221736   5.357   0.237   4.797 -0.1368 -0.1683 -0.6655
  108MOL   C12321737   5.377   0.303   4.660  0.4886  0.1918 -0.0746
  108MOL   O12421738   5.327   0.441   4.662 -0.0424  0.4483  0.9162
  108MOL   C12521739   5.259   0.492   4.551  0.2006 -0.2979 -0.4069
  108MOL   H12621740   5.415   0.294   4.870 -1.2309  0.3527 -0.1966
  108MOL   H12721741   5.250   0.250   4.813 -0.3022  0.0255 -1.8420
  108MOL   H12821742   5.319   0.251   4.583 -0.0246  0.8974 -0.1599
  108MOL   H12921743   5.247   0.598   4.571 -0.2581 -0.4937  0.3635
  108MOL   H13021744   5.322   0.487   4.462 -0.7205  0.8778 -1.1450
  108MOL   H13121745   5.163   0.442   4.532  1.2223 -1.8804 -1.5743
  108MOL   C13221746   5.523   0.309   4.604 -0.1850  1.1171 -0.7901
  108MOL   C13321747   5.620   0.395   4.692 -0.3697 -0.3116  0.4344
  108MOL   O13421748   5.685   0.301   4.769 -0.2180  0.0287  0.5206
  108MOL   C13521749   5.702   0.338   4.902  0.6373 -0.1113  0.1913
  108MOL   H13621750   5.520   0.358   4.507  0.8206  2.7943  0.0042
  108MOL   H13721751   5.574   0.218   4.574  0.6244  2.1662 -2.6748
  108MOL   H13821752   5.554   0.455   4.755  2.2298  0.8953  2.1177
  108MOL   H13921753   5.751   0.259   4.958  0.0565 -0.6442 -0.0491
  108MOL   H14021754   5.774   0.420   4.898 -0.5146  0.9159  0.3153
  108MOL   H14121755   5.616   0.380   4.954  0.8654 -0.3104  0.7323
  108MOL   C14221756   5.713   0.495   4.617 -0.2631  0.6498 -0.3536
  108MOL   C14321757   5.828   0.428   4.535 -0.0088 -0.3400  0.1716
  108MOL   O14421758   5.763   0.358   4.429 -0.0964  0.5672  0.1444
  108MOL   C14521759   5.815   0.226   4.394 -0.1772  0.3874  0.7122
  108MOL   H14621760   5.760   0.562   4.689 -1.4319 -0.3857  1.3948
  108MOL   H14721761   5.659   0.566   4.555  1.6792  2.1031 -0.4431
  108MOL   H14821762   5.863   0.347   4.600  1.8136  0.9932  0.8633
  108MOL   H14921763   5.908   0.238   4.337 -1.5758  2.1200 -1.2808
  108MOL   H15021764   5.832   0.154   4.475  0.3222  1.0203  1.1831
  108MOL   H15121765   5.736   0.186   4.332  0.4082  1.9188 -1.0741
  108MOL   C15221766   5.947   0.520   4.505 -0.3964  0.7908 -0.6974
  108MOL   C15321767   6.066   0.523   4.611  0.2319  0.0481 -0.3734
  108MOL   O15421768   6.118   0.396   4.610 -0.5680 -0.2071 -0.1583
  108MOL   C15521769   6.144   0.352   4.742  0.6701  0.0737 -0.6254
  108MOL   H15621770   5.912   0.620   4.481 -0.6706  0.3111 -2.3481
  108MOL   H15721771   5.992   0.489   4.411  1.8870 -1.8966  1.2125
  108MOL   H15821772   6.028   0.554   4.708 -0.4706  0.6194 -0.8284
  108MOL   H15921773   6.205   0.261   4.743 -0.0850 -0.5171  3.4860
  108MOL   H16021774   6.206   0.426   4.792  0.8343 -0.0798 -0.5968
  108MOL   H16121775   6.065   0.339   4.816 -0.2750 -0.5529 -1.7199
  108MOL   C16221776   6.179   0.625   4.564 -0.2936  0.3865 -0.0821
  108MOL   C16321777   6.286   0.571   4.485 -0.4413  0.0195 -0.1083
  108MOL   O16421778   6.339   0.683   4.417 -0.1321 -0.1749  0.1619
  108MOL   C16521779   6.341   0.670   4.271  0.6431 -0.4256 -0.2464
  108MOL   H16621780   6.223   0.672   4.652  0.0526 -2.0115  1.0492
  108MOL   H16721781   6.141   0.710   4.508  0.9968  0.5240 -0.7748
  108MOL   H16821782   6.249   0.497   4.414 -1.6641 -0.1925  0.7375
  108MOL   H16921783   6.242   0.649   4.231  1.0538 -0.2510 -1.3971
  108MOL   H17021784   6.368   0.760   4.215 -0.2221  0.9645  1.5188
  108MOL   H17121785   6.413   0.593   4.244  0.3787 -0.4096 -1.0187
  108MOL   C17221786   6.408   0.517   4.567 -0.2081 -0.2919 -0.1745
  108MOL   C17321787   6.532   0.466   4.490  0.5954  0.7021  0.4539
  108MOL   O17421788   6.633   0.421   4.580 -0.0167  0.0426  0.4106
  108MOL   C17521789   6.726   0.517   4.620 -0.3499 -0.5756  0.3708
  108MOL   H17621790   6.376   0.432   4.627  0.6503  0.9543  2.1304
  108MOL   H17721791   6.442   0.589   4.642 -0.7682 -0.2659  0.0505
  108MOL   H17821792   6.575   0.548   4.432  2.7080  0.2511  1.3504
  108MOL   H17921793   6.783   0.552   4.534 -0.8571  2.9957  1.4248
  108MOL   H18021794   6.664   0.601   4.651 -1.0215 -0.0958 -2.1195
  108MOL   H18121795   6.782   0.485   4.708  1.4421 -0.3774 -0.6758
  108MOL   C18221796   6.494   0.343   4.397  0.4436 -0.1964 -0.6212
  108MOL   C18321797   6.589   0.318   4.278  0.3560 -0.8229 -0.2640
  108MOL   O18421798   6.717   0.275   4.327 -0.4495  0.0809 -0.1409
  108MOL   C18521799   6.827   0.338   4.265 -0.2123 -0.9376 -0.0672
  108MOL   H18621800   6.390   0.348   4.367  0.6197  0.6266 -1.1344
  108MOL   H18721801   6.497   0.258   4.465 -0.1099 -0.7027 -1.2342
  108MOL   H18821802   6.592   0.408   4.217  3.3090  0.1898  1.2636
  108MOL   H18921803   6.920   0.296   4.306 -0.0438  1.1858  1.8369
  108MOL   H19021804   6.834   0.312   4.159 -0.0196 -0.5138 -0.1573
  108MOL   H19121805   6.829   0.445   4.281  3.1902 -1.2490  2.1795
  108MOL   C19221806   6.529   0.207   4.187  0.3721 -0.3799 -0.5423
  108MOL   C19321807   6.613   0.168   4.070  0.4592 -0.2234 -0.3588
  108MOL   O19421808   6.556   0.060   4.011 -0.2904  0.0889 -0.1212
  108MOL   C19521809   6.654   0.006   3.922  0.8646  0.1778 -0.4309
  108MOL   H19621810   6.434   0.238   4.143  0.4816  1.3236  0.3495
  108MOL   H19721811   6.517   0.120   4.252  0.4892 -0.7843 -1.0635
  108MOL   H19821812   6.707   0.136   4.115  0.0294  0.5078  1.1124
  108MOL   H19921813   6.700   0.075   3.851  2.1727 -0.0770  0.1572
  108MOL   H20021814   6.738   7.775   3.978  0.0885 -1.8285 -0.6999
  108MOL   H20121815   6.598   7.749   3.857  0.4379  0.5047 -0.3998
  108MOL   H20221816   6.630   0.256   4.008  2.3309 -2.2466 -2.8075
  109MOL     C121817   3.225   3.328   5.515  0.4082 -0.1686  1.1435
  109MOL     C221818   3.248   3.318   5.366  0.6203 -0.6190  0.1893
  109MOL     O321819   3.366   3.244   5.352 -0.0814  0.8084  0.3955
  109MOL     C421820   3.458   3.327   5.286  0.2239  0.5256  0.4531
  109MOL     H521821   3.210   3.231   5.562  1.7100 -0.6609  0.5715
  109MOL     H621822   3.311   3.374   5.562  1.0185 -1.4401  1.2917
  109MOL     H721823   3.250   3.412   5.311 -0.0650 -1.3243 -1.0722
  109MOL     H821824   3.426   3.356   5.186  0.9185  0.8797  0.3339
  109MOL     H921825   3.468   3.417   5.347 -1.0931  1.2070 -0.3038
  109MOL    H1021826   3.553   3.278   5.266 -0.3037 -0.1239 -0.4991
  109MOL    H1121827   3.133   3.385   5.530 -0.8760 -1.8145 -0.2298
  109MOL    C1221828   3.147   3.225   5.298 -0.2331 -0.1500 -0.0622
  109MOL    C1321829   3.005   3.276   5.296 -0.0465  0.2170 -0.3555
  109MOL    O1421830   2.988   3.387   5.215 -0.2195 -0.5630  0.2387
  109MOL    C1521831   2.935   3.502   5.280  0.2214  0.1247  0.2222
  109MOL    H1621832   3.149   3.127   5.346 -1.7176 -0.9327 -1.5612
  109MOL    H1721833   3.186   3.189   5.203  2.5927  0.4986  0.7993
  109MOL    H1821834   2.974   3.297   5.399 -2.7161 -1.4086 -0.7695
  109MOL    H1921835   2.841   3.481   5.331  0.3278  0.6564  0.6448
  109MOL    H2021836   2.993   3.553   5.357 -0.3438  1.4888 -0.2426
  109MOL    H2121837   2.910   3.575   5.203  3.0639  0.7318 -0.1658
  109MOL    C2221838   2.900   3.180   5.236  0.0339  0.0367 -0.0332
  109MOL    C2321839   2.896   3.039   5.305  1.2310 -0.4891  0.5517
  109MOL    O2421840   2.861   3.036   5.443 -0.3980 -0.4233 -0.2059
  109MOL    C2521841   2.942   2.953   5.521  0.1104 -0.1343 -0.2054
  109MOL    H2621842   2.933   3.170   5.133  1.2087  0.4115  0.2917
  109MOL    H2721843   2.808   3.238   5.242  0.8704  1.2796  1.1259
  109MOL    H2821844   2.990   2.988   5.285  1.5503 -0.2246  1.4052
  109MOL    H2921845   2.889   2.962   5.616 -0.3254 -0.9256 -0.3694
  109MOL    H3021846   2.931   2.852   5.482 -1.3562  0.0799 -0.3822
  109MOL    H3121847   3.042   2.997   5.524  0.3757 -0.7463 -0.0683
  109MOL    C3221848   2.786   2.945   5.248  0.2993 -0.1150  0.0441
  109MOL    C3321849   2.807   2.892   5.109 -0.5122  0.0124  0.1855
  109MOL    O3421850   2.929   2.818   5.113  0.0988  1.1105 -0.2194
  109MOL    C3521851   2.997   2.784   5.000  0.0765  0.4457  0.5791
  109MOL    H3621852   2.694   3.004   5.246  1.8877  2.3990 -1.3536
  109MOL    H3721853   2.763   2.864   5.317  0.7203  1.6565  2.3385
  109MOL    H3821854   2.832   2.976   5.044  0.7190 -1.6802 -1.5498
  109MOL    H3921855   3.006   2.872   4.936  0.2080  0.6854  0.9222
  109MOL    H4021856   3.097   2.751   5.030 -0.7847 -1.7395  1.1679
  109MOL    H4121857   2.949   2.708   4.939  2.6971 -0.4475 -0.4285
  109MOL    C4221858   2.693   2.801   5.049  0.5073 -0.2825 -0.4806
  109MOL    C4321859   2.669   2.807   4.901  0.0354 -0.2023  0.1537
  109MOL    O4421860   2.610   2.681   4.874  0.5982 -0.0607 -0.8337
  109MOL    C4521861   2.615   2.650   4.740 -0.5209 -0.5028  0.2379
  109MOL    H4621862   2.596   2.828   5.091  0.6530  1.2825 -1.1235
  109MOL    H4721863   2.712   2.700   5.086  0.9202 -0.4490 -1.1442
  109MOL    H4821864   2.762   2.818   4.845 -0.8836 -0.3992 -1.4135
  109MOL    H4921865   2.528   2.685   4.685  1.0892 -0.0451 -2.1003
  109MOL    H5021866   2.705   2.683   4.687 -0.1964  1.1347  1.7542
  109MOL    H5121867   2.621   2.541   4.737 -1.8062 -0.5700  0.1533
  109MOL    C5221868   2.573   2.915   4.847  0.2260  0.0168  0.7580
  109MOL    C5321869   2.624   3.059   4.849 -0.5740  0.7328 -0.1118
  109MOL    O5421870   2.736   3.058   4.761  0.3027  0.8709 -0.1279
  109MOL    C5521871   2.821   3.169   4.780 -0.0709  0.1026  0.2398
  109MOL    H5621872   2.481   2.906   4.905  1.3229 -1.0755  2.3756
  109MOL    H5721873   2.553   2.899   4.741  2.5000  0.5071  0.2200
  109MOL    H5821874   2.656   3.088   4.949  0.3925 -0.4858 -0.0541
  109MOL    H5921875   2.770   3.265   4.786  0.7380  0.6261 -1.0209
  109MOL    H6021876   2.875   3.160   4.874 -1.7492 -2.0545  1.0383
  109MOL    H6121877   2.889   3.179   4.696 -1.6218 -0.2020 -1.0837
  109MOL    C6221878   2.517   3.157   4.807 -0.4907  0.4422 -0.6292
  109MOL    C6321879   2.417   3.192   4.918  0.1037  0.0937 -1.3170
  109MOL    O6421880   2.486   3.278   5.010  0.5292  0.3605  0.5144
  109MOL    C6521881   2.447   3.266   5.139  0.5629 -0.8211 -0.2660
  109MOL    H6621882   2.461   3.114   4.724  1.1021 -3.0707  0.0117
  109MOL    H6721883   2.557   3.251   4.768  0.0320  0.2170 -0.6490
  109MOL    H6821884   2.395   3.098   4.969 -2.7046  0.4209 -1.8379
  109MOL    H6921885   2.513   3.337   5.189  0.2475  1.0205 -2.3638
  109MOL    H7021886   2.342   3.277   5.165  1.2712 -1.9804  3.2626
  109MOL    H7121887   2.462   3.170   5.188 -0.0082 -0.4104  0.7149
  109MOL    C7221888   2.279   3.249   4.879  0.9496  1.0084 -0.5830
  109MOL    C7321889   2.188   3.180   4.769  0.2288  0.8444 -0.3836
  109MOL    O7421890   2.118   3.076   4.842 -0.5967 -0.0569  0.2436
  109MOL    C7521891   2.126   2.949   4.788  0.2698  0.4068 -0.1276
  109MOL    H7621892   2.306   3.348   4.844 -0.3342  1.3731 -0.5725
  109MOL    H7721893   2.212   3.278   4.960  0.3187 -1.5173 -0.1474
  109MOL    H7821894   2.248   3.137   4.689  0.3636  1.7415 -0.7623
  109MOL    H7921895   2.231   2.922   4.775 -0.1358 -0.5784 -1.5125
  109MOL    H8021896   2.080   2.878   4.856  0.9929 -1.9117 -1.9716
  109MOL    H8121897   2.077   2.927   4.693 -2.1076 -0.6676  1.3053
  109MOL    C8221898   2.076   3.266   4.706  0.1406 -0.7848 -0.0274
  109MOL    C8321899   2.122   3.382   4.613 -0.1241  0.1042  0.2298
  109MOL    O8421900   2.196   3.316   4.512 -0.8312 -0.7011 -0.3999
  109MOL    C8521901   2.315   3.388   4.475  0.4391  0.2124 -1.4025
  109MOL    H8621902   2.017   3.312   4.785  0.1324  0.3293 -0.6720
  109MOL    H8721903   2.003   3.200   4.658 -0.8420 -0.1154  0.5329
  109MOL    H8821904   2.190   3.451   4.663  0.5887 -0.9837  0.7658
  109MOL    H8921905   2.380   3.398   4.562  1.6920 -1.9907 -2.0450
  109MOL    H9021906   2.370   3.335   4.397  1.3452 -1.5307  0.3868
  109MOL    H9121907   2.286   3.487   4.441 -0.8751  0.4878  0.4412
  109MOL    C9221908   2.001   3.460   4.552 -0.4726  0.2082 -0.3757
  109MOL    C9321909   1.936   3.574   4.629 -0.1996  0.1096  0.5857
  109MOL    O9421910   1.863   3.527   4.746 -0.3840 -0.9844  0.0682
  109MOL    C9521911   1.730   3.474   4.723 -0.6191  0.4599 -0.2625
  109MOL    H9621912   1.933   3.391   4.502 -1.5167  1.2522 -0.4154
  109MOL    H9721913   2.049   3.510   4.467  1.0659  0.2941  0.5196
  109MOL    H9821914   1.862   3.615   4.560 -0.9118  0.5615  1.6160
  109MOL    H9921915   1.692   3.430   4.815 -0.3341 -1.2114 -0.9267
  109MOL   H10021916   1.667   3.556   4.689  2.7672  3.5680  0.6605
  109MOL   H10121917   1.724   3.391   4.652 -0.2874 -0.6055  0.9321
  109MOL   C10221918   2.041   3.671   4.671 -0.2319  0.5615  0.2805
  109MOL   C10321919   1.994   3.802   4.741  0.3091  0.2982 -0.0014
  109MOL   O10421920   2.115   3.861   4.783  0.2446 -0.3877  0.0246
  109MOL   C10521921   2.139   3.861   4.921  0.3065 -0.2381 -0.1991
  109MOL   H10621922   2.096   3.691   4.580  0.4370 -2.5965 -0.0752
  109MOL   H10721923   2.115   3.623   4.735 -2.1545  0.1175  2.2591
  109MOL   H10821924   1.934   3.778   4.828 -0.3534  2.0502  0.0547
  109MOL   H10921925   2.232   3.911   4.947  0.3464  0.4368 -1.6161
  109MOL   H11021926   2.061   3.924   4.965  1.0833  1.6931 -1.5237
  109MOL   H11121927   2.129   3.764   4.969 -0.2664 -0.4711 -0.7798
  109MOL   C11221928   1.916   3.897   4.648 -0.1944 -0.3164 -0.0871
  109MOL   C11321929   1.862   4.035   4.718 -0.4710  0.3416  0.3800
  109MOL   O11421930   1.802   4.106   4.613 -0.3337  0.2156  0.8468
  109MOL   C11521931   1.890   4.190   4.534  0.2674 -0.7062  0.0552
  109MOL   H11621932   1.828   3.845   4.610 -0.7889  1.1855 -0.8147
  109MOL   H11721933   1.978   3.931   4.565 -0.7570  2.3380  0.5629
  109MOL   H11821934   1.948   4.082   4.765 -0.3282  0.7442 -0.2703
  109MOL   H11921935   1.841   4.250   4.457  2.3550  1.4732  0.3702
  109MOL   H12021936   1.924   4.271   4.599  1.1016  0.6356 -1.9903
  109MOL   H12121937   1.970   4.135   4.485 -0.3124 -1.7138  0.2386
  109MOL   C12221938   1.748   4.017   4.817 -0.3552 -0.7940  0.1768
  109MOL   C12321939   1.719   4.148   4.891  0.5991  0.3556 -0.9705
  109MOL   O12421940   1.582   4.129   4.934  0.1237 -0.1448 -0.4640
  109MOL   C12521941   1.475   4.163   4.849  0.7128  0.0993 -0.0763
  109MOL   H12621942   1.782   3.947   4.894  0.5922  1.3528  1.7537
  109MOL   H12721943   1.661   3.970   4.772 -0.7021  0.0091 -0.0001
  109MOL   H12821944   1.726   4.234   4.824 -0.7407  2.1745  1.1315
  109MOL   H12921945   1.496   4.100   4.762  0.8867  1.4563 -1.0182
  109MOL   H13021946   1.382   4.130   4.894  1.5453 -0.2865  1.4183
  109MOL   H13121947   1.475   4.268   4.822  3.0453  0.3296  0.7008
  109MOL   C13221948   1.809   4.174   5.011 -0.2717  0.3165  0.0145
  109MOL   C13321949   1.813   4.320   5.060  0.3472  0.0389 -0.0070
  109MOL   O13421950   1.856   4.413   4.956 -0.3839 -0.6933  0.4322
  109MOL   C13521951   1.995   4.425   4.955  0.4537  0.0378  0.4338
  109MOL   H13621952   1.906   4.140   4.977 -0.5131 -1.8073  1.3158
  109MOL   H13721953   1.783   4.111   5.097 -0.5747 -0.5492 -0.7042
  109MOL   H13821954   1.879   4.310   5.146  3.1410 -1.5564 -2.2520
  109MOL   H13921955   2.029   4.482   4.868 -0.7404 -1.9050 -1.3316
  109MOL   H14021956   2.020   4.478   5.047 -1.5567 -0.2647  1.1713
  109MOL   H14121957   2.058   4.336   4.949  1.7239  0.9837 -0.8170
  109MOL   C14221958   1.672   4.368   5.104 -0.4894 -0.0243 -0.3644
  109MOL   C14321959   1.612   4.286   5.219  0.2982 -0.1012  0.2493
  109MOL   O14421960   1.709   4.279   5.327 -0.1215 -1.0033 -0.0625
  109MOL   C14521961   1.683   4.168   5.409 -0.8694  0.1338  0.1385
  109MOL   H14621962   1.606   4.379   5.018  0.6002 -1.8053 -1.4619
  109MOL   H14721963   1.685   4.470   5.138 -0.6192 -0.5624  1.3729
  109MOL   H14821964   1.587   4.183   5.194  1.4079 -0.1315 -0.7879
  109MOL   H14921965   1.779   4.143   5.454  0.1046 -0.0145 -1.9680
  109MOL   H15021966   1.604   4.197   5.478 -1.6241 -0.1911 -0.5899
  109MOL   H15121967   1.648   4.078   5.358  0.2093  1.1867 -2.5429
  109MOL   C15221968   1.494   4.366   5.282  0.2657 -0.4493  0.2027
  109MOL   C15321969   1.377   4.283   5.324 -0.6008 -0.4048  0.6666
  109MOL   O15421970   1.287   4.370   5.373 -0.3142  0.1700  0.1160
  109MOL   C15521971   1.266   4.358   5.512  0.3789  0.1224 -0.4532
  109MOL   H15621972   1.454   4.433   5.206  0.9452  0.4719  0.6520
  109MOL   H15721973   1.531   4.426   5.365 -0.4080  0.2126  0.0391
  109MOL   H15821974   1.416   4.211   5.395  0.6375 -0.1564  0.2643
  109MOL   H15921975   1.175   4.415   5.533  0.4955  0.2355 -0.2528
  109MOL   H16021976   1.252   4.258   5.554  1.6298  0.3522  0.5341
  109MOL   H16121977   1.354   4.412   5.547  1.3145  0.1717 -2.7999
  109MOL   C16221978   1.306   4.207   5.209  0.2336 -0.4903 -0.9077
  109MOL   C16321979   1.183   4.121   5.263  0.2143  0.1944 -0.3247
  109MOL   O16421980   1.109   4.078   5.150  0.6686 -0.1420 -0.0915
  109MOL   C16521981   0.989   4.144   5.138  0.8656 -0.1657 -0.1663
  109MOL   H16621982   1.361   4.140   5.143  0.8546  0.7565 -1.6712
  109MOL   H16721983   1.277   4.274   5.128  1.2820  0.3690 -0.5831
  109MOL   H16821984   1.127   4.175   5.339 -0.1294  0.6362 -0.8897
  109MOL   H16921985   1.004   4.220   5.061  1.4200 -1.1751 -1.0790
  109MOL   H17021986   0.924   4.066   5.099  1.8983 -1.2886  0.3243
  109MOL   H17121987   0.954   4.180   5.234 -0.4463  1.6021 -1.2828
  109MOL   C17221988   1.243   3.989   5.312  0.4224  0.1482 -0.3298
  109MOL   C17321989   1.139   3.900   5.384  0.5838  0.7051 -0.2834
  109MOL   O17421990   1.214   3.792   5.431  0.5048  0.0300 -0.2273
  109MOL   C17521991   1.237   3.676   5.346 -0.5322  0.0287 -0.6704
  109MOL   H17621992   1.324   4.009   5.382  0.3190  4.4842 -1.3389
  109MOL   H17721993   1.299   3.938   5.233 -0.6272 -0.5752 -0.6109
  109MOL   H17821994   1.066   3.859   5.313  2.2132 -2.2534 -0.3475
  109MOL   H17921995   1.173   3.594   5.379  1.9265 -1.4130  0.7230
  109MOL   H18021996   1.235   3.684   5.237  2.7083  1.7493 -0.6692
  109MOL   H18121997   1.332   3.631   5.375 -0.6747  0.6053  0.7109
  109MOL   C18221998   1.078   3.965   5.513  0.2677 -0.0004 -0.4541
  109MOL   C18321999   1.007   3.877   5.621 -0.3621  0.1704 -0.0366
  109MOL   O18422000   0.962   3.972   5.719  0.1739 -0.0296 -0.6003
  109MOL   C18522001   1.033   3.961   5.839  0.1758 -0.3656  0.2359
  109MOL   H18622002   1.005   4.032   5.466 -0.3502 -0.2976  0.0792
  109MOL   H18722003   1.149   4.023   5.571 -1.2321 -0.4427  1.9062
  109MOL   H18822004   1.096   3.826   5.657  0.0097  2.4174  2.3836
  109MOL   H18922005   1.128   4.011   5.852 -0.7925  1.5189  0.2084
  109MOL   H19022006   0.980   4.006   5.923 -1.8792  4.3548 -3.3416
  109MOL   H19122007   1.057   3.858   5.866  3.5436  0.4196  0.3541
  109MOL   C19222008   0.897   3.795   5.564  0.7251 -0.2549 -0.1713
  109MOL   C19322009   0.839   3.694   5.665 -0.1438 -0.6859 -0.2559
  109MOL   O19422010   0.715   3.653   5.614 -0.4191  0.6205  0.2879
  109MOL   C19522011   0.658   3.548   5.691 -0.0616 -0.0875  0.4062
  109MOL   H19622012   0.935   3.737   5.480 -0.9592 -1.5709 -0.0528
  109MOL   H19722013   0.824   3.867   5.527 -0.9485 -1.4187  0.7965
  109MOL   H19822014   0.810   3.741   5.759  3.6771 -1.5233  1.4325
  109MOL   H19922015   0.560   3.521   5.651  0.3492 -1.0046  0.0057
  109MOL   H20022016   0.712   3.453   5.701 -0.3314 -0.1775  1.0540
  109MOL   H20122017   0.636   3.585   5.791  0.8065 -0.9415  0.9278
  109MOL   H20222018   0.904   3.612   5.696 -0.8094 -0.4502  1.8548
  110MOL     C122019   5.477   3.268   4.851 -0.1540  0.1839  0.2011
  110MOL     C222020   5.370   3.384   4.835 -0.2248  0.3350 -0.1009
  110MOL     O322021   5.264   3.330   4.753 -0.5508  0.2477  0.2145
  110MOL     C422022   5.186   3.412   4.680 -0.0548  0.6792 -0.4841
  110MOL     H522023   5.428   3.171   4.857  0.1096 -0.0766 -1.4027
  110MOL     H622024   5.535   3.256   4.759 -0.4382 -0.3543  0.0885
  110MOL     H722025   5.420   3.470   4.790 -0.3163  1.8786  2.6395
  110MOL     H822026   5.120   3.348   4.621 -0.9605 -0.9204  2.1665
  110MOL     H922027   5.131   3.483   4.740  0.6970 -0.2295  1.3092
  110MOL    H1022028   5.245   3.470   4.608  1.3288  1.2584  1.0907
  110MOL    H1122029   5.554   3.282   4.927 -1.6968 -0.6439  1.9495
  110MOL    C1222030   5.317   3.428   4.971 -0.0322 -0.0805 -0.0950
  110MOL    C1322031   5.410   3.480   5.082  0.4103  0.4687 -0.3462
  110MOL    O1422032   5.443   3.608   5.033 -0.2116  0.2073 -0.4088
  110MOL    C1522033   5.568   3.655   5.073 -0.7077 -0.7318  0.5100
  110MOL    H1622034   5.277   3.335   5.010 -0.9389 -0.0202 -0.8729
  110MOL    H1722035   5.237   3.502   4.972  1.8913  2.0803  1.3437
  110MOL    H1822036   5.501   3.423   5.100  0.8628  1.1935 -0.3184
  110MOL    H1922037   5.646   3.641   4.998  0.0812 -0.3009  1.2311
  110MOL    H2022038   5.550   3.762   5.085  0.3124 -0.5440  0.4776
  110MOL    H2122039   5.600   3.608   5.166  0.5419 -0.2335  0.3420
  110MOL    C2222040   5.342   3.505   5.215 -0.1862  0.4456  0.2686
  110MOL    C2322041   5.316   3.377   5.298  0.4501 -0.1032 -0.9684
  110MOL    O2422042   5.447   3.331   5.330 -0.6280  0.1969  0.2713
  110MOL    C2522043   5.467   3.205   5.279  0.4156  0.0189 -0.3394
  110MOL    H2622044   5.252   3.563   5.197  0.0031  0.8147  0.5208
  110MOL    H2722045   5.408   3.578   5.262 -0.1437 -0.3171  1.4335
  110MOL    H2822046   5.249   3.308   5.246  1.9650 -1.4150 -1.2148
  110MOL    H2922047   5.425   3.196   5.179 -0.1989 -0.0518 -0.0787
  110MOL    H3022048   5.574   3.186   5.276  0.7503  1.7218  0.1307
  110MOL    H3122049   5.410   3.140   5.345 -0.7839  0.4053 -0.9835
  110MOL    C3222050   5.262   3.415   5.446  0.3196  0.6665  0.3077
  110MOL    C3322051   5.216   3.290   5.527  0.1996 -0.2281  0.4075
  110MOL    O3422052   5.176   3.332   5.661  0.2272  0.0660 -0.3493
  110MOL    C3522053   5.287   3.361   5.748  0.5090 -0.6019 -0.0717
  110MOL    H3622054   5.194   3.500   5.433  0.9346  0.7351 -3.0050
  110MOL    H3722055   5.344   3.467   5.495 -0.6416  0.8358  1.7646
  110MOL    H3822056   5.304   3.226   5.531  0.1977 -0.4057 -1.9231
  110MOL    H3922057   5.264   3.351   5.854  0.6335  0.8092  0.0869
  110MOL    H4022058   5.364   3.283   5.741  0.4128 -1.1697  4.0131
  110MOL    H4122059   5.337   3.456   5.732 -0.6496 -0.2955 -2.0837
  110MOL    C4222060   5.089   3.229   5.469  0.0153  0.5359 -0.2439
  110MOL    C4322061   5.037   3.103   5.545 -0.2382 -0.1217  0.0133
  110MOL    O4422062   4.912   3.052   5.497  0.0464 -0.5156  0.1259
  110MOL    C4522063   4.798   3.125   5.538  0.6034 -0.3214  0.0855
  110MOL    H4622064   5.104   3.199   5.365 -1.5954  2.6036 -1.0958
  110MOL    H4722065   5.010   3.303   5.455 -1.8688 -1.4525 -0.3878
  110MOL    H4822066   5.036   3.124   5.651 -3.1563  0.1089 -0.0106
  110MOL    H4922067   4.709   3.065   5.520  0.0848  0.5763 -0.3987
  110MOL    H5022068   4.804   3.171   5.637 -2.1189  0.7733 -0.2290
  110MOL    H5122069   4.785   3.210   5.471  0.5729 -1.8938 -1.9302
  110MOL    C5222070   5.126   2.985   5.531 -0.7128 -0.0678 -0.2426
  110MOL    C5322071   5.111   2.888   5.648 -0.7793 -0.6822 -0.5462
  110MOL    O5422072   5.118   2.753   5.605  0.0960 -0.7219 -0.0896
  110MOL    C5522073   5.007   2.703   5.537 -0.0679  0.3659 -0.2885
  110MOL    H5622074   5.225   3.029   5.529  0.5991 -2.9125 -2.8374
  110MOL    H5722075   5.107   2.945   5.431  0.7997  0.6531 -0.8217
  110MOL    H5822076   5.015   2.888   5.698  0.5949  0.4492  2.2177
  110MOL    H5922077   4.997   2.594   5.536  2.0313  0.1614 -1.2067
  110MOL    H6022078   4.914   2.719   5.592 -1.0748 -3.0357 -0.8928
  110MOL    H6122079   4.997   2.744   5.437 -1.2971  0.9964  0.0810
  110MOL    C6222080   5.237   2.891   5.749 -1.0452 -0.1191 -0.2681
  110MOL    C6322081   5.246   2.996   5.864  0.6604 -0.1386  0.5983
  110MOL    O6422082   5.126   2.978   5.936  0.2392 -0.1213 -0.4709
  110MOL    C6522083   5.090   3.083   6.016 -0.4885  0.2638  0.0497
  110MOL    H6622084   5.327   2.907   5.689 -0.8500  0.6747  0.2250
  110MOL    H6722085   5.260   2.795   5.796  0.0656  0.9011  1.3030
  110MOL    H6822086   5.247   3.090   5.808 -0.2699 -1.6160 -2.0273
  110MOL    H6922087   5.161   3.116   6.091  0.9847 -0.9563 -0.7860
  110MOL    H7022088   5.049   3.163   5.954  1.5021  2.6508  1.7222
  110MOL    H7122089   5.003   3.047   6.070 -0.3292  0.1775  0.2493
  110MOL    C7222090   5.368   2.972   5.962 -0.1134 -0.2517  0.3860
  110MOL    C7322091   5.506   2.963   5.895 -0.1097  0.3870  0.0536
  110MOL    O7422092   5.533   3.092   5.837 -0.3640  0.5029  0.3176
  110MOL    C7522093   5.575   3.086   5.703 -0.5921 -0.4680 -0.5571
  110MOL    H7622094   5.355   2.880   6.019 -0.2914 -1.7891 -2.0708
  110MOL    H7722095   5.366   3.052   6.036 -1.7502  1.3406 -1.3246
  110MOL    H7822096   5.507   2.883   5.821  2.6556 -0.0761  0.5379
  110MOL    H7922097   5.497   3.071   5.628 -2.3768  2.0663  0.7407
  110MOL    H8022098   5.628   3.176   5.671 -0.9795 -0.7959 -2.1729
  110MOL    H8122099   5.649   3.011   5.674 -0.7748 -1.1761  0.7756
  110MOL    C8222100   5.599   2.911   6.005  0.4497  0.0960  0.2731
  110MOL    C8322101   5.747   2.892   5.969 -0.1122  0.0149  0.1207
  110MOL    O8422102   5.812   2.851   6.091  0.2227  0.8645 -0.1616
  110MOL    C8522103   5.843   2.957   6.183 -0.1668 -0.1288 -0.5059
  110MOL    H8622104   5.565   2.822   6.058 -0.7590  1.2734  1.5225
  110MOL    H8722105   5.592   2.983   6.086 -0.8423  0.7618 -0.4099
  110MOL    H8822106   5.790   2.986   5.932  2.1169 -1.7805 -2.0626
  110MOL    H8922107   5.761   3.028   6.195  0.1286  0.5595 -2.4665
  110MOL    H9022108   5.886   2.929   6.279  1.7322  0.7418 -1.0899
  110MOL    H9122109   5.926   3.012   6.140  0.2459 -0.1501  0.2444
  110MOL    C9222110   5.766   2.777   5.869 -0.4401  0.2323  0.8699
  110MOL    C9322111   5.915   2.729   5.835  0.3295 -0.1225  0.0019
  110MOL    O9422112   5.891   2.612   5.756  0.3439 -0.1851  0.0513
  110MOL    C9522113   5.986   2.508   5.772 -0.6073 -0.2483 -0.5373
  110MOL    H9622114   5.703   2.790   5.781 -0.0367  0.6670  0.6480
  110MOL    H9722115   5.725   2.687   5.916  0.5201  0.4374  2.1097
  110MOL    H9822116   5.957   2.697   5.929 -0.1360 -0.6417  0.0377
  110MOL    H9922117   5.962   2.416   5.719 -1.1792 -1.5328  1.8941
  110MOL   H10022118   6.082   2.545   5.735 -0.6835  0.8227  0.3109
  110MOL   H10122119   6.000   2.480   5.876  0.1964 -2.0636 -1.1244
  110MOL   C10222120   6.007   2.843   5.785 -0.3112 -0.0401 -0.7674
  110MOL   C10322121   5.950   2.915   5.662  0.1714 -0.5320 -0.6044
  110MOL   O10422122   6.013   3.044   5.646 -0.3292  0.0138  0.0326
  110MOL   C10522123   5.968   3.145   5.732 -0.7821  0.4997 -0.0583
  110MOL   H10622124   6.107   2.807   5.760 -0.6539 -1.5559 -0.0506
  110MOL   H10722125   6.010   2.909   5.871 -2.6904 -1.7080  0.6653
  110MOL   H10822126   5.841   2.927   5.664  0.0541 -1.6586  0.9447
  110MOL   H10922127   5.867   3.179   5.708 -0.7982 -0.1477 -0.9302
  110MOL   H11022128   5.970   3.118   5.838 -0.6879 -2.0043 -0.6718
  110MOL   H11122129   6.033   3.227   5.701  0.0951 -0.2671 -0.2449
  110MOL   C11222130   5.986   2.824   5.545 -0.2204 -0.6836 -0.4540
  110MOL   C11322131   5.967   2.885   5.411  0.0475 -0.0667  0.0329
  110MOL   O11422132   6.009   2.807   5.304 -0.6700  0.2508 -0.5745
  110MOL   C11522133   6.148   2.779   5.279  0.3988 -0.1507 -0.1539
  110MOL   H11622134   5.920   2.739   5.559  0.9553 -1.5499 -0.1259
  110MOL   H11722135   6.081   2.771   5.542 -0.8372 -1.7370 -3.5785
  110MOL   H11822136   6.025   2.977   5.416  0.9317 -0.5691 -0.7664
  110MOL   H11922137   6.152   2.674   5.308 -0.3926  0.5228  2.5499
  110MOL   H12022138   6.172   2.793   5.173 -0.1998 -0.0599 -0.2781
  110MOL   H12122139   6.217   2.847   5.330  1.1401 -0.8090 -0.2736
  110MOL   C12222140   5.822   2.920   5.365 -0.2966 -0.4829 -0.4613
  110MOL   C12322141   5.724   2.807   5.347  0.8350  0.5738 -0.5437
  110MOL   O12422142   5.639   2.813   5.462 -0.3299  0.2479 -0.2950
  110MOL   C12522143   5.589   2.691   5.508  0.3334  0.0802 -0.2105
  110MOL   H12622144   5.828   2.977   5.272  2.5624 -0.2988 -0.1978
  110MOL   H12722145   5.775   2.986   5.437 -1.5950 -2.2953  0.3993
  110MOL   H12822146   5.781   2.714   5.342 -1.6001 -0.9106 -1.2109
  110MOL   H12922147   5.659   2.629   5.564 -1.2630 -3.1541 -1.6410
  110MOL   H13022148   5.511   2.708   5.582  0.8680 -1.8673  0.8463
  110MOL   H13122149   5.550   2.630   5.427  2.2912 -1.1450 -0.2531
  110MOL   C13222150   5.641   2.834   5.218  0.4444 -0.3979 -0.1221
  110MOL   C13322151   5.714   2.812   5.088  0.5211 -0.4600  0.9918
  110MOL   O13422152   5.723   2.674   5.052  0.3693 -0.2281  0.2743
  110MOL   C13522153   5.854   2.609   5.052 -0.3669 -0.0574  0.6759
  110MOL   H13622154   5.605   2.935   5.237  0.7689 -0.2490 -0.2955
  110MOL   H13722155   5.549   2.776   5.211 -0.9646  1.5694  1.6074
  110MOL   H13822156   5.816   2.849   5.097  0.3097  0.3584  0.0695
  110MOL   H13922157   5.848   2.500   5.057  2.4229 -0.3428 -0.9117
  110MOL   H14022158   5.907   2.640   4.962 -2.1012 -3.9203 -1.8400
  110MOL   H14122159   5.912   2.629   5.142  1.4847 -0.7791 -0.3148
  110MOL   C14222160   5.643   2.887   4.976 -0.5510  0.2193  0.6316
  110MOL   C14322161   5.499   2.844   4.945  0.9355 -0.0269 -0.0842
  110MOL   O14422162   5.412   2.933   5.011  0.5283 -0.0030 -0.2444
  110MOL   C14522163   5.281   2.885   5.030  0.9168  0.2615  0.0465
  110MOL   H14622164   5.695   2.878   4.881  1.6579  0.7584  1.7460
  110MOL   H14722165   5.646   2.994   4.997 -3.1196  0.5261 -0.3670
  110MOL   H14822166   5.487   2.749   4.998  2.7266 -1.1951 -1.7294
  110MOL   H14922167   5.276   2.801   5.099 -0.3670  1.4207  1.4127
  110MOL   H15022168   5.226   2.963   5.082 -0.3907  0.1878 -1.1967
  110MOL   H15122169   5.208   2.853   4.956  0.5800 -0.9654  0.8863
  110MOL   C15222170   5.464   2.835   4.796 -0.1853 -0.2366 -0.1879
  110MOL   C15322171   5.532   2.721   4.718 -0.5687  0.7171  0.1697
  110MOL   O15422172   5.459   2.597   4.730 -0.1092  1.0188  0.0914
  110MOL   C15522173   5.519   2.500   4.813 -0.0507  0.3423 -0.0913
  110MOL   H15622174   5.488   2.934   4.755 -1.3107 -0.9981 -2.8069
  110MOL   H15722175   5.357   2.819   4.785 -0.3636  0.7125  0.1200
  110MOL   H15822176   5.631   2.709   4.763  0.0852  1.1149 -1.1227
  110MOL   H15922177   5.620   2.478   4.778  0.2848  2.9211 -0.8188
  110MOL   H16022178   5.525   2.536   4.915  0.7488  2.2326 -0.7880
  110MOL   H16122179   5.457   2.411   4.800  0.4163  0.0205 -0.1593
  110MOL   C16222180   5.534   2.731   4.568 -0.5021 -1.2459 -0.0047
  110MOL   C16322181   5.662   2.657   4.516  0.2425 -0.0228 -0.1062
  110MOL   O16422182   5.636   2.631   4.384  0.3412 -0.5255  0.5616
  110MOL   C16522183   5.559   2.515   4.347 -0.6718 -0.9135  0.0036
  110MOL   H16622184   5.538   2.837   4.546  1.2051 -1.5365 -1.1466
  110MOL   H16722185   5.444   2.690   4.521 -0.6891  1.0653 -1.7001
  110MOL   H16822186   5.669   2.560   4.565  1.6445 -0.4303 -1.1209
  110MOL   H16922187   5.525   2.507   4.244  1.0428 -2.8590 -0.4343
  110MOL   H17022188   5.611   2.424   4.376 -1.9783 -2.0991 -1.2766
  110MOL   H17122189   5.463   2.511   4.400 -1.1561 -0.9639 -0.8641
  110MOL   C17222190   5.794   2.738   4.527  0.2771  0.0342  0.2180
  110MOL   C17322191   5.917   2.645   4.525  0.2917 -1.2743 -0.1048
  110MOL   O17422192   6.025   2.714   4.459 -0.4475 -0.0045  0.3869
  110MOL   C17522193   6.033   2.691   4.323  0.0848  0.0361  0.0927
  110MOL   H17622194   5.802   2.795   4.619 -1.8214  2.3039 -0.9385
  110MOL   H17722195   5.808   2.808   4.445  0.2549  0.1561  0.3179
  110MOL   H17822196   5.887   2.556   4.469  0.2103 -1.9692  1.0237
  110MOL   H17922197   5.938   2.719   4.279 -0.4157 -0.2960  0.9547
  110MOL   H18022198   6.116   2.746   4.278 -0.7826 -0.4286 -2.1241
  110MOL   H18122199   6.063   2.587   4.304  0.3053 -0.0127  0.6950
  110MOL   C18222200   5.960   2.601   4.666  0.5111  0.0972 -0.1987
  110MOL   C18322201   6.099   2.523   4.671 -0.0533 -0.6453 -0.1419
  110MOL   O18422202   6.135   2.501   4.811  1.1249 -0.2623 -0.0109
  110MOL   C18522203   6.193   2.618   4.872 -0.1505  1.0293 -0.2862
  110MOL   H18622204   5.873   2.548   4.703 -2.7050  2.6602 -3.6715
  110MOL   H18722205   5.974   2.691   4.726  2.5840  1.2286 -2.2965
  110MOL   H18822206   6.169   2.583   4.614 -0.3087 -2.6141 -2.6228
  110MOL   H18922207   6.301   2.623   4.858 -0.1625  2.2913  0.0145
  110MOL   H19022208   6.144   2.711   4.844  0.0002  0.6671 -1.8069
  110MOL   H19122209   6.179   2.597   4.978 -1.8526  1.6962 -0.3626
  110MOL   C19222210   6.102   2.385   4.602 -0.9005 -0.1347  0.4760
  110MOL   C19322211   6.000   2.282   4.654 -0.3596  0.5113 -0.2486
  110MOL   O19422212   6.041   2.153   4.618  0.4630 -0.0424 -0.1968
  110MOL   C19522213   5.946   2.047   4.613  0.1734  0.1001  0.0725
  110MOL   H19622214   6.197   2.334   4.617 -0.3870  0.1840 -1.5050
  110MOL   H19722215   6.099   2.392   4.493  1.7014 -2.2442  0.2288
  110MOL   H19822216   5.901   2.293   4.608 -0.2109 -2.4715 -1.3905
  110MOL   H19922217   5.919   2.007   4.711  1.2585  1.9748  1.1714
  110MOL   H20022218   5.848   2.074   4.573  0.0201  0.8499  0.9179
  110MOL   H20122219   5.975   1.952   4.568 -0.0036 -0.3652  0.9226
  110MOL   H20222220   5.994   2.291   4.763 -0.5416 -1.7487 -0.0614
  111MOL     C122221   4.037   1.958   4.680 -0.2610  0.2202 -0.1163
  111MOL     C222222   4.152   1.952   4.581 -0.0072  0.2828  0.3609
  111MOL     O322223   4.197   2.081   4.537 -0.8259  0.1077 -0.6959
  111MOL     C422224   4.133   2.142   4.426  0.3115  0.2848 -0.0172
  111MOL     H522225   4.027   1.864   4.735 -3.6278  0.7486  0.2761
  111MOL     H622226   4.056   2.039   4.750 -0.6733  0.4411 -0.2592
  111MOL     H722227   4.128   1.883   4.499  2.0020 -0.6060  0.5072
  111MOL     H822228   4.025   2.154   4.435  0.2135 -0.2095 -0.4715
  111MOL     H922229   4.171   2.241   4.401 -2.8637  1.6650  0.4859
  111MOL    H1022230   4.154   2.079   4.339 -0.0464  0.7664 -0.4552
  111MOL    H1122231   3.940   1.967   4.630 -0.3133  1.2786  0.1721
  111MOL    C1222232   4.276   1.882   4.646 -0.5029  0.3893 -0.5589
  111MOL    C1322233   4.396   1.853   4.538 -0.5589  0.5138 -0.2176
  111MOL    O1422234   4.497   1.780   4.608  0.0788 -0.0882 -0.3921
  111MOL    C1522235   4.571   1.864   4.692  0.3680  0.1677  0.1949
  111MOL    H1622236   4.240   1.783   4.676 -0.1387 -0.0566 -1.5957
  111MOL    H1722237   4.318   1.942   4.727 -0.4351 -0.7722  0.2787
  111MOL    H1822238   4.441   1.945   4.500  0.2625  0.1530 -0.1321
  111MOL    H1922239   4.526   1.897   4.786 -2.0251  1.8087 -1.4641
  111MOL    H2022240   4.651   1.801   4.731 -0.5829 -1.0020  0.2791
  111MOL    H2122241   4.612   1.953   4.645 -1.3097  0.5057 -0.6932
  111MOL    C2222242   4.362   1.773   4.412 -0.5404  0.6587  0.2355
  111MOL    C2322243   4.474   1.761   4.310 -0.4782 -0.4945  0.3191
  111MOL    O2422244   4.412   1.691   4.202 -0.0944  0.1487  0.1712
  111MOL    C2522245   4.457   1.560   4.182 -0.3312 -0.6421 -0.7716
  111MOL    H2622246   4.276   1.821   4.365  0.9192  3.5807  0.4095
  111MOL    H2722247   4.328   1.671   4.429 -0.6233  0.2827 -2.0336
  111MOL    H2822248   4.560   1.709   4.353 -0.1999 -0.4637 -0.1937
  111MOL    H2922249   4.453   1.495   4.269 -0.0799 -0.8177 -0.8911
  111MOL    H3022250   4.412   1.513   4.094 -3.4935  0.0946  0.3856
  111MOL    H3122251   4.564   1.553   4.166 -0.2298  0.7053 -0.7747
  111MOL    C3222252   4.514   1.904   4.242  0.3033  0.5336 -0.5812
  111MOL    C3322253   4.626   1.996   4.309 -0.4785 -0.2079 -0.1212
  111MOL    O3422254   4.744   1.938   4.266 -0.1475 -0.7664 -0.4541
  111MOL    C3522255   4.841   1.946   4.366 -0.2553 -0.9999  0.9291
  111MOL    H3622256   4.420   1.954   4.217  0.1219 -0.1660 -1.3446
  111MOL    H3722257   4.549   1.885   4.140  1.4393  5.3342 -1.1743
  111MOL    H3822258   4.623   1.998   4.418 -0.0151  0.1150 -0.1150
  111MOL    H3922259   4.848   2.038   4.424 -2.5341 -0.3317  0.2225
  111MOL    H4022260   4.823   1.867   4.440  1.5049 -1.8445  0.4852
  111MOL    H4122261   4.936   1.919   4.320 -1.7598  1.5012 -3.9018
  111MOL    C4222262   4.625   2.145   4.250 -0.4839  0.3833 -0.6992
  111MOL    C4322263   4.535   2.234   4.337  1.0379  0.9314 -0.3065
  111MOL    O4422264   4.600   2.247   4.466 -0.7540 -0.0968  0.6434
  111MOL    C4522265   4.510   2.266   4.575  0.0433  0.0684 -0.8573
  111MOL    H4622266   4.609   2.154   4.143 -0.1217  1.9411 -0.6322
  111MOL    H4722267   4.723   2.191   4.262 -1.2208  1.7890  0.0870
  111MOL    H4822268   4.431   2.202   4.340  0.5787  2.2863 -1.0132
  111MOL    H4922269   4.561   2.310   4.661 -1.7859  3.0679 -1.2199
  111MOL    H5022270   4.428   2.335   4.552 -0.4078 -0.9725 -2.4710
  111MOL    H5122271   4.456   2.177   4.607  2.7375 -0.5517  2.3486
  111MOL    C5222272   4.542   2.379   4.278  0.1106 -0.3403  0.0875
  111MOL    C5322273   4.455   2.412   4.150 -0.0312  0.2133 -0.5986
  111MOL    O5422274   4.503   2.329   4.042 -0.4143  0.3133  1.1597
  111MOL    C5522275   4.544   2.394   3.920  1.0208  0.6117  0.0171
  111MOL    H5622276   4.646   2.399   4.252  1.0195 -0.9770  2.9858
  111MOL    H5722277   4.507   2.444   4.358 -0.2011 -1.9824  1.3219
  111MOL    H5822278   4.473   2.519   4.138 -0.9632  0.4567  0.1400
  111MOL    H5922279   4.575   2.314   3.852 -2.8379  0.0059 -1.1107
  111MOL    H6022280   4.466   2.458   3.879  1.2050 -0.0364 -1.3815
  111MOL    H6122281   4.628   2.461   3.940  2.2044 -0.4399 -1.2464
  111MOL    C6222282   4.305   2.372   4.169 -0.0540 -0.2437 -0.5448
  111MOL    C6322283   4.213   2.429   4.064 -0.0269 -0.7517 -0.0892
  111MOL    O6422284   4.145   2.322   3.998  0.3104 -0.4224  0.5008
  111MOL    C6522285   4.236   2.259   3.909  0.4099 -0.1037  0.5353
  111MOL    H6622286   4.268   2.405   4.266 -1.0768  1.7163 -1.5633
  111MOL    H6722287   4.302   2.264   4.187 -0.6282 -0.0656  0.4459
  111MOL    H6822288   4.275   2.476   3.987 -1.6627  1.0690 -0.3332
  111MOL    H6922289   4.181   2.183   3.854 -0.9354  1.8390 -0.8978
  111MOL    H7022290   4.259   2.334   3.832  1.7080  0.0443  1.0490
  111MOL    H7122291   4.321   2.206   3.950  2.0665  2.1871  0.1749
  111MOL    C7222292   4.117   2.527   4.129 -0.5271 -0.1799  0.3880
  111MOL    C7322293   4.029   2.609   4.032 -0.2479  0.4307  0.3774
  111MOL    O7422294   3.920   2.659   4.105  0.1343 -0.7297  0.7913
  111MOL    C7522295   3.807   2.570   4.102 -0.2817 -0.0791 -0.8265
  111MOL    H7622296   4.165   2.602   4.192 -0.0498  0.9713 -1.2930
  111MOL    H7722297   4.051   2.472   4.196 -1.3701  0.7164  0.3081
  111MOL    H7822298   4.002   2.541   3.952  0.6298  1.1116 -0.5111
  111MOL    H7922299   3.830   2.464   4.084  2.1469  0.6391 -2.2823
  111MOL    H8022300   3.752   2.584   4.195 -0.3975 -2.2527 -0.5298
  111MOL    H8122301   3.746   2.616   4.025 -0.7226  0.5096 -0.1369
  111MOL    C8222302   4.113   2.730   3.986  0.2463  0.0176 -0.1970
  111MOL    C8322303   4.061   2.819   3.869  0.4473 -0.6001  0.0946
  111MOL    O8422304   4.170   2.911   3.827 -0.0421  0.1177  0.0733
  111MOL    C8522305   4.120   3.024   3.751  0.0884  0.6283 -0.9839
  111MOL    H8622306   4.206   2.693   3.943  1.2354  1.4616  0.6675
  111MOL    H8722307   4.132   2.789   4.076  2.6957 -0.1981 -0.5302
  111MOL    H8822308   3.966   2.859   3.903  0.2440 -1.0557  0.0616
  111MOL    H8922309   4.078   3.105   3.811 -0.1910 -0.3179  0.1361
  111MOL    H9022310   4.192   3.070   3.684  2.4346 -2.2637 -0.5385
  111MOL    H9122311   4.041   2.986   3.686 -0.9089  0.3299  0.3515
  111MOL    C9222312   4.044   2.723   3.744  0.7250  0.3476 -0.7647
  111MOL    C9322313   3.899   2.693   3.709 -0.4462  0.8275  0.0640
  111MOL    O9422314   3.842   2.820   3.672  0.3006 -0.6223  0.0567
  111MOL    C9522315   3.706   2.827   3.689  0.0926  0.7152  0.7413
  111MOL    H9622316   4.102   2.633   3.762  1.1625  0.7747 -0.0152
  111MOL    H9722317   4.090   2.765   3.654 -2.0687 -0.3086 -2.5695
  111MOL    H9822318   3.853   2.658   3.801  1.5849 -1.0098  0.4306
  111MOL    H9922319   3.653   2.833   3.594 -2.2772  2.7511  2.1301
  111MOL   H10022320   3.658   2.753   3.754 -3.1770  2.5256  0.4890
  111MOL   H10122321   3.681   2.929   3.717 -0.2628  0.8456 -0.0351
  111MOL   C10222322   3.885   2.595   3.595  0.1152  0.3947  0.1213
  111MOL   C10322323   3.910   2.451   3.643 -0.1509  0.6560 -0.4540
  111MOL   O10422324   3.791   2.406   3.704 -0.5479  0.0621  0.6669
  111MOL   C10522325   3.807   2.294   3.792 -0.2485 -0.4089  0.1817
  111MOL   H10622326   3.971   2.618   3.533  1.5819 -0.3766  1.8292
  111MOL   H10722327   3.792   2.594   3.537 -0.4076  0.1329  0.9455
  111MOL   H10822328   3.992   2.453   3.715  0.1776 -0.6440 -0.7677
  111MOL   H10922329   3.831   2.202   3.740 -0.0940 -1.4293  2.0364
  111MOL   H11022330   3.878   2.305   3.874  1.1066  0.7747 -1.1039
  111MOL   H11122331   3.714   2.271   3.844 -0.8781  2.7648  0.5818
  111MOL   C11222332   3.940   2.361   3.528  0.3606  0.3386 -0.6409
  111MOL   C11322333   4.076   2.382   3.460 -0.7540  0.1103 -0.1469
  111MOL   O11422334   4.186   2.378   3.553 -0.0048 -0.1063  0.3314
  111MOL   C11522335   4.299   2.451   3.518  0.5961 -1.0286  0.6584
  111MOL   H11622336   3.856   2.371   3.459  0.2154 -0.4537 -0.5788
  111MOL   H11722337   3.927   2.259   3.563 -0.1121  1.4693  2.6674
  111MOL   H11822338   4.071   2.480   3.412  0.0723  0.6031  0.7543
  111MOL   H11922339   4.274   2.547   3.474  0.3496 -1.8214 -0.9669
  111MOL   H12022340   4.354   2.478   3.608  0.2653 -0.9516  0.8402
  111MOL   H12122341   4.366   2.402   3.447  3.0658 -0.1830  2.3299
  111MOL   C12222342   4.117   2.276   3.359  0.0590 -0.2387 -1.0055
  111MOL   C12322343   4.116   2.320   3.219  0.7750  0.3562  0.3441
  111MOL   O12422344   4.232   2.381   3.178 -0.6785 -0.2058 -0.3364
  111MOL   C12522345   4.215   2.526   3.167 -0.2604  0.1834  0.2492
  111MOL   H12622346   4.038   2.204   3.381 -0.9151  1.0978 -0.1035
  111MOL   H12722347   4.211   2.223   3.377 -1.2347 -2.2731 -0.0901
  111MOL   H12822348   4.028   2.385   3.212  0.0033 -0.6357  0.6669
  111MOL   H12922349   4.178   2.566   3.261  2.5208 -2.9143  2.8251
  111MOL   H13022350   4.314   2.566   3.144 -0.3122 -0.2890 -0.8118
  111MOL   H13122351   4.141   2.559   3.095 -1.6855 -0.3524  1.4300
  111MOL   C13222352   4.095   2.198   3.123  0.7066  0.0912 -0.1509
  111MOL   C13322353   4.060   2.221   2.971  0.1805 -0.2688 -0.3883
  111MOL   O13422354   4.041   2.095   2.911 -0.4231  0.3298  0.1000
  111MOL   C13522355   4.167   2.025   2.886  0.3695 -0.4325  0.4853
  111MOL   H13622356   4.018   2.130   3.159  0.5493 -0.2397 -1.0933
  111MOL   H13722357   4.181   2.131   3.132 -0.2788 -1.6485 -2.9828
  111MOL   H13822358   4.138   2.276   2.917 -1.5697  1.0112 -1.6590
  111MOL   H13922359   4.188   1.973   2.980 -2.6377 -0.6265  1.1151
  111MOL   H14022360   4.155   1.941   2.818 -1.5627 -2.0034  2.6877
  111MOL   H14122361   4.256   2.085   2.868 -1.4914  1.8406 -1.6201
  111MOL   C14222362   3.939   2.309   2.963 -0.0313  0.1044  0.2287
  111MOL   C14322363   3.903   2.344   2.817 -0.2861  0.0589  0.7180
  111MOL   O14422364   3.786   2.422   2.837 -0.2729  0.1372 -0.3821
  111MOL   C14522365   3.696   2.399   2.735  0.0183 -0.6542 -0.2755
  111MOL   H14622366   3.948   2.404   3.016 -2.4265  1.2056 -1.2860
  111MOL   H14722367   3.863   2.259   3.023  0.5499  0.1473  1.0129
  111MOL   H14822368   3.879   2.251   2.766  1.6905 -0.1234  0.1029
  111MOL   H14922369   3.662   2.295   2.734  1.7873 -1.2615  0.9572
  111MOL   H15022370   3.612   2.468   2.744 -0.0764 -0.9910  1.6910
  111MOL   H15122371   3.737   2.425   2.638 -2.7404 -0.0897 -1.3533
  111MOL   C15222372   4.005   2.441   2.753  0.0310  0.0227 -0.4397
  111MOL   C15322373   4.100   2.377   2.654 -0.3654  0.4954 -0.3157
  111MOL   O15422374   4.015   2.339   2.545  0.7266 -0.5419 -0.7878
  111MOL   C15522375   4.041   2.214   2.499 -0.3364  0.3800  0.3759
  111MOL   H15622376   4.055   2.494   2.834 -0.5727 -1.0895  0.6784
  111MOL   H15722377   3.955   2.521   2.699  0.3150  0.3301 -0.2493
  111MOL   H15822378   4.151   2.294   2.704 -0.5117  0.1955 -0.6594
  111MOL   H15922379   4.009   2.143   2.575  0.0698  2.4708  2.5629
  111MOL   H16022380   3.999   2.192   2.401  0.2375 -0.0490  0.2234
  111MOL   H16122381   4.145   2.184   2.508  0.2638  2.6854  1.5746
  111MOL   C16222382   4.206   2.483   2.610 -0.1671 -0.1442  0.2168
  111MOL   C16322383   4.316   2.521   2.714 -0.3401 -0.0860  0.0816
  111MOL   O16422384   4.398   2.406   2.723  0.5434  0.4451  0.3013
  111MOL   C16522385   4.448   2.386   2.857  0.2280  0.3153  0.5274
  111MOL   H16622386   4.159   2.566   2.558  1.1889  0.0135 -0.7868
  111MOL   H16722387   4.248   2.428   2.526  0.8710  0.8494  0.0676
  111MOL   H16822388   4.268   2.530   2.811  0.8140  0.5270  0.5992
  111MOL   H16922389   4.535   2.323   2.841 -2.6549 -3.8490  0.4033
  111MOL   H17022390   4.482   2.475   2.910  0.6679  0.2168  0.4081
  111MOL   H17122391   4.382   2.332   2.925 -0.5055 -0.5698 -0.8842
  111MOL   C17222392   4.402   2.646   2.676 -0.0313 -0.5731 -0.6745
  111MOL   C17322393   4.322   2.772   2.694 -0.1900  0.0818 -0.3586
  111MOL   O17422394   4.321   2.799   2.839  0.7158  0.0550  0.3124
  111MOL   C17522395   4.194   2.774   2.898  0.3717  0.1220 -0.6495
  111MOL   H17622396   4.398   2.631   2.568 -0.4322 -0.6865 -0.6449
  111MOL   H17722397   4.502   2.647   2.719 -1.0969  1.7516  1.8134
  111MOL   H17822398   4.220   2.755   2.658 -0.6589 -0.6323  1.2604
  111MOL   H17922399   4.211   2.791   3.004 -0.3799  0.4423 -0.5778
  111MOL   H18022400   4.121   2.849   2.866  0.1743  0.0905 -0.2788
  111MOL   H18122401   4.156   2.675   2.872  0.1602 -0.0493  0.3029
  111MOL   C18222402   4.374   2.901   2.632 -0.3417 -1.0612 -0.0118
  111MOL   C18322403   4.371   2.907   2.477  0.1826 -0.3041  0.1448
  111MOL   O18422404   4.247   2.851   2.445  0.6832 -1.0423  0.6109
  111MOL   C18522405   4.239   2.797   2.313 -0.1650 -0.0540 -0.6670
  111MOL   H18622406   4.479   2.904   2.660 -0.1665  0.1689 -0.7708
  111MOL   H18722407   4.323   2.983   2.683  0.5180  1.2162 -2.6574
  111MOL   H18822408   4.440   2.830   2.442 -0.0776 -1.8394  2.8085
  111MOL   H18922409   4.257   2.867   2.231  1.8539  2.9350  2.1769
  111MOL   H19022410   4.295   2.704   2.308 -2.0150 -1.2678  0.5798
  111MOL   H19122411   4.135   2.766   2.307 -0.1578 -0.1928 -0.0991
  111MOL   C19222412   4.394   3.045   2.403 -0.4130 -0.1941 -0.8390
  111MOL   C19322413   4.537   3.106   2.440  0.3523  0.1427  0.4228
  111MOL   O19422414   4.646   3.006   2.438  0.0443 -0.1916 -0.1914
  111MOL   C19522415   4.768   3.071   2.455 -0.6294  0.5735 -0.1956
  111MOL   H19622416   4.315   3.108   2.443 -0.7435 -0.8085 -0.5194
  111MOL   H19722417   4.381   3.038   2.295 -0.6636  1.1250 -0.9039
  111MOL   H19822418   4.522   3.143   2.542  0.9184 -0.0709  0.5832
  111MOL   H19922419   4.760   3.128   2.547  0.2647 -0.0895  0.2885
  111MOL   H20022420   4.847   2.997   2.453 -0.2700  0.9633 -0.6988
  111MOL   H20122421   4.788   3.132   2.367  3.3907 -0.5128 -0.1186
  111MOL   H20222422   4.557   3.186   2.368  1.8409 -1.4410 -0.9780
  112MOL     C122423   2.484   2.583   2.575  0.2810  0.2125 -0.4744
  112MOL     C222424   2.453   2.526   2.719  0.4857  0.2417 -0.2609
  112MOL     O322425   2.320   2.467   2.708 -0.8416  0.1594  0.5496
  112MOL     C422426   2.234   2.484   2.823 -0.4716  0.1616 -0.3392
  112MOL     H522427   2.507   2.500   2.508 -2.0225 -0.8588  0.0325
  112MOL     H622428   2.404   2.648   2.540 -1.1140 -1.3142 -0.2015
  112MOL     H722429   2.430   2.599   2.797 -1.8730  0.0889 -0.7973
  112MOL     H822430   2.214   2.590   2.831 -2.0758 -0.1241 -0.4544
  112MOL     H922431   2.141   2.431   2.804 -0.1160 -1.3639  1.9508
  112MOL    H1022432   2.278   2.442   2.913  3.4683  3.6315 -0.4768
  112MOL    H1122433   2.568   2.652   2.579  0.1343  0.3335  0.4564
  112MOL    C1222434   2.549   2.421   2.780  0.3673  0.5891 -0.2247
  112MOL    C1322435   2.697   2.459   2.793  0.0778  0.1839 -1.0278
  112MOL    O1422436   2.741   2.483   2.661 -0.6275 -0.1378 -0.2584
  112MOL    C1522437   2.877   2.517   2.655 -0.3551 -0.1868 -0.1194
  112MOL    H1622438   2.546   2.339   2.708 -2.5910  1.9998 -1.8174
  112MOL    H1722439   2.512   2.384   2.876 -0.1114  0.2705 -0.5310
  112MOL    H1822440   2.740   2.368   2.835 -0.4360  0.1714 -0.5211
  112MOL    H1922441   2.921   2.501   2.557  1.4767  0.1526  0.6253
  112MOL    H2022442   2.911   2.611   2.698  2.2783 -1.1173 -0.1008
  112MOL    H2122443   2.930   2.443   2.715  0.3296 -1.0216 -1.7226
  112MOL    C2222444   2.723   2.591   2.884  0.5940  1.0515  0.1540
  112MOL    C2322445   2.650   2.605   3.014 -0.1551 -0.1603 -0.3645
  112MOL    O2422446   2.677   2.486   3.091  0.0379 -0.1147 -0.2646
  112MOL    C2522447   2.572   2.454   3.185 -0.3547 -0.2070 -0.7770
  112MOL    H2622448   2.687   2.679   2.829  1.9228  0.8468 -1.1028
  112MOL    H2722449   2.828   2.613   2.901  0.9341  0.7249 -1.4507
  112MOL    H2822450   2.542   2.608   2.996 -0.3850  0.5112  1.0314
  112MOL    H2922451   2.562   2.541   3.250  3.4000  0.9485 -1.6100
  112MOL    H3022452   2.479   2.445   3.129  0.2889 -1.6747 -1.6367
  112MOL    H3122453   2.591   2.364   3.244  0.3582  0.2733 -0.2626
  112MOL    C3222454   2.696   2.722   3.105  0.3432  0.9067  0.2978
  112MOL    C3322455   2.647   2.858   3.039  0.0501 -0.1717 -0.1969
  112MOL    O3422456   2.503   2.856   3.017  0.2347 -0.0240 -0.8314
  112MOL    C3522457   2.454   2.954   2.921  0.7348  0.2356 -0.3061
  112MOL    H3622458   2.802   2.714   3.130  0.2878 -1.3189 -0.1532
  112MOL    H3722459   2.647   2.717   3.202  0.4458  2.0435  0.4218
  112MOL    H3822460   2.695   2.878   2.943  1.1729 -0.4718  0.2868
  112MOL    H3922461   2.352   2.937   2.887  0.1071  3.9816 -0.5874
  112MOL    H4022462   2.447   3.049   2.974  0.9936  0.5798 -0.8851
  112MOL    H4122463   2.521   2.967   2.837 -0.7488  2.7408 -1.1683
  112MOL    C4222464   2.677   2.982   3.127 -1.1143 -0.1313 -0.1733
  112MOL    C4322465   2.832   3.026   3.132  0.4993 -0.1230  1.3189
  112MOL    O4422466   2.917   2.933   3.199  0.0888 -0.4749  0.0151
  112MOL    C4522467   2.895   2.924   3.335  0.6554  0.5701 -0.1432
  112MOL    H4622468   2.636   2.973   3.227 -0.1291  3.6622  0.6722
  112MOL    H4722469   2.630   3.072   3.086  0.1048  0.9090  0.6398
  112MOL    H4822470   2.833   3.121   3.186 -2.3741  0.5862  0.2301
  112MOL    H4922471   2.801   2.872   3.355 -0.2137  1.9873 -0.5165
  112MOL    H5022472   2.979   2.862   3.369 -2.2315 -2.9311  0.9003
  112MOL    H5122473   2.906   3.024   3.376 -0.7105  0.7443 -0.1920
  112MOL    C5222474   2.902   3.057   3.003  0.2969  0.0003  0.5206
  112MOL    C5322475   2.839   3.162   2.902  0.0981  0.3368  0.3187
  112MOL    O5422476   2.835   3.293   2.960  0.0485 -0.3404 -0.1395
  112MOL    C5522477   2.747   3.377   2.890  0.4230 -0.1941 -0.2135
  112MOL    H5622478   2.904   2.963   2.949 -0.2791  0.3353 -0.0908
  112MOL    H5722479   3.004   3.086   3.029 -0.5247  2.1577  1.4427
  112MOL    H5822480   2.738   3.127   2.879  1.0539 -1.5770 -1.1369
  112MOL    H5922481   2.725   3.458   2.958  0.0175 -0.3960 -0.1011
  112MOL    H6022482   2.784   3.431   2.803  0.3655  1.1099  0.5707
  112MOL    H6122483   2.654   3.325   2.866 -1.4663  2.4162  1.3359
  112MOL    C6222484   2.912   3.176   2.767 -1.1529 -0.0494 -0.2863
  112MOL    C6322485   2.894   3.044   2.677 -0.0154  0.0817  0.1311
  112MOL    O6422486   2.764   3.028   2.646  0.5980 -0.3691  0.1153
  112MOL    C6522487   2.718   2.902   2.606 -0.0644  0.1432 -0.6497
  112MOL    H6622488   3.019   3.193   2.766 -0.9032 -1.5467 -1.0528
  112MOL    H6722489   2.864   3.251   2.703  0.4869  1.6412  0.4389
  112MOL    H6822490   2.930   2.952   2.723  1.2693  0.7368  0.4761
  112MOL    H6922491   2.610   2.905   2.588 -0.1128  1.0283 -0.2324
  112MOL    H7022492   2.750   2.844   2.519  1.7727 -0.2994  0.3025
  112MOL    H7122493   2.726   2.837   2.693  0.0699 -0.1592 -0.8884
  112MOL    C7222494   2.969   3.047   2.547  0.7940 -0.6680 -0.9804
  112MOL    C7322495   3.117   3.091   2.554 -0.8990  0.6421 -0.0641
  112MOL    O7422496   3.180   3.006   2.659  0.0246 -0.6881  0.2583
  112MOL    C7522497   3.279   3.080   2.731 -0.1887  0.4370 -0.4802
  112MOL    H7622498   2.924   3.124   2.485 -0.4312 -0.4790  0.1202
  112MOL    H7722499   2.956   2.956   2.487  1.1590 -1.1838 -0.2821
  112MOL    H7822500   3.133   3.195   2.581  2.5045  0.0809  0.3344
  112MOL    H7922501   3.362   3.102   2.663  1.1669 -2.1499  0.3010
  112MOL    H8022502   3.240   3.167   2.783  2.0781  1.0367  0.2692
  112MOL    H8122503   3.314   3.011   2.807  0.8434  2.0516  0.5555
  112MOL    C8222504   3.201   3.077   2.424  0.2778  0.0151  0.3947
  112MOL    C8322505   3.143   3.162   2.305  0.1799  0.3777  0.6015
  112MOL    O8422506   3.156   3.297   2.336  0.1065  0.1370 -0.8739
  112MOL    C8522507   3.046   3.372   2.281 -0.4384  0.4164  0.1411
  112MOL    H8622508   3.208   2.969   2.409  1.9591  0.4044 -1.9080
  112MOL    H8722509   3.302   3.108   2.451  0.4701 -0.3950  0.1404
  112MOL    H8822510   3.039   3.136   2.287  0.3894 -1.8977  2.4547
  112MOL    H8922511   3.055   3.481   2.282 -1.4814  0.5041  0.8586
  112MOL    H9022512   3.041   3.343   2.176 -2.7874 -1.2262  0.6709
  112MOL    H9122513   2.943   3.346   2.303 -0.3119  1.4210  2.0378
  112MOL    C9222514   3.219   3.142   2.172 -0.7241 -0.1282  0.0498
  112MOL    C9322515   3.165   3.031   2.078 -0.4602  0.1006  0.0744
  112MOL    O9422516   3.128   2.909   2.137  0.3999 -0.0926 -1.0102
  112MOL    C9522517   3.240   2.834   2.171 -0.8073  0.4934 -0.3309
  112MOL    H9622518   3.327   3.134   2.182 -0.6686 -1.5079 -1.4199
  112MOL    H9722519   3.205   3.231   2.110  1.2219  0.3232  0.2374
  112MOL    H9822520   3.235   3.008   1.997  3.3823  1.0797  2.9612
  112MOL    H9922521   3.203   2.743   2.218  1.1294  1.4920  3.2992
  112MOL   H10022522   3.309   2.815   2.089  0.3418  0.9764  0.5118
  112MOL   H10122523   3.293   2.880   2.255 -1.2466  0.7440 -0.1866
  112MOL   C10222524   3.048   3.080   1.999 -0.5591  0.1372 -0.6999
  112MOL   C10322525   3.026   3.006   1.866 -0.3990 -0.4723 -0.5079
  112MOL   O10422526   2.884   2.977   1.838 -0.0903 -0.1175  0.0259
  112MOL   C10522527   2.800   3.097   1.830  0.3168  0.7395 -0.3159
  112MOL   H10622528   3.056   3.187   1.982  0.8748  0.0655 -0.5504
  112MOL   H10722529   2.964   3.079   2.069  0.1880 -0.8424  0.1915
  112MOL   H10822530   3.071   2.907   1.863 -0.6006 -0.5549 -0.8039
  112MOL   H10922531   2.808   3.149   1.925  0.6569  0.8556 -0.4087
  112MOL   H11022532   2.826   3.163   1.748  0.6480  3.6150  2.0281
  112MOL   H11122533   2.696   3.064   1.826  0.4357  0.0440  1.6174
  112MOL   C11222534   3.089   3.076   1.741  0.8721  0.1935  0.2084
  112MOL   C11322535   3.085   2.997   1.611  0.8154 -0.8291 -0.6323
  112MOL   O11422536   3.059   3.085   1.498 -0.2484 -0.1585 -0.6597
  112MOL   C11522537   2.917   3.076   1.462  0.1494 -0.6604 -0.4021
  112MOL   H11622538   3.191   3.106   1.768  0.6009  0.8347  0.5267
  112MOL   H11722539   3.034   3.169   1.725 -0.7385 -0.9772 -1.2600
  112MOL   H11822540   2.996   2.935   1.619 -1.2779  2.1856  0.3869
  112MOL   H11922541   2.849   3.120   1.535 -1.0548 -0.5574 -1.5691
  112MOL   H12022542   2.895   3.142   1.378  1.6875 -0.4922 -0.6858
  112MOL   H12122543   2.880   2.975   1.442  1.2642 -1.6997  2.4432
  112MOL   C12222544   3.221   2.931   1.582  0.1718 -0.3213 -0.1614
  112MOL   C12322545   3.219   2.814   1.484 -1.0659 -0.0719  0.4988
  112MOL   O12422546   3.349   2.782   1.444 -0.5111 -0.3962 -0.1126
  112MOL   C12522547   3.399   2.862   1.340 -0.4648  0.5002 -1.0387
  112MOL   H12622548   3.267   2.889   1.671 -1.4570 -0.1974  0.7524
  112MOL   H12722549   3.287   3.013   1.552 -1.7617  0.6736 -1.8305
  112MOL   H12822550   3.155   2.848   1.402 -0.2459 -0.4856 -0.3106
  112MOL   H12922551   3.343   2.869   1.247 -1.9725 -0.7324 -0.2336
  112MOL   H13022552   3.396   2.967   1.368 -0.5987 -0.2274  1.8319
  112MOL   H13122553   3.504   2.845   1.316 -0.3657 -0.5134  0.1004
  112MOL   C13222554   3.144   2.685   1.533 -0.1262  0.5690 -0.3291
  112MOL   C13322555   3.187   2.616   1.663  0.3743 -0.6031  0.1510
  112MOL   O13422556   3.131   2.664   1.784  0.2158 -0.5496  0.1852
  112MOL   C13522557   2.990   2.653   1.807  0.2560  0.2009 -0.5870
  112MOL   H13622558   3.160   2.618   1.448 -0.8831  1.2506 -1.0141
  112MOL   H13722559   3.035   2.687   1.538 -0.0446  2.2281  1.3425
  112MOL   H13822560   3.287   2.656   1.678  0.3417 -0.0904 -0.9845
  112MOL   H13922561   2.938   2.711   1.731  1.1643 -0.6206 -1.8608
  112MOL   H14022562   2.962   2.548   1.799  1.9888 -0.2582 -0.7590
  112MOL   H14122563   2.952   2.685   1.905 -1.0054  1.6171 -1.5115
  112MOL   C14222564   3.196   2.457   1.652 -0.0769  0.0263  0.7975
  112MOL   C14322565   3.327   2.380   1.595  0.2270 -0.1145  0.9822
  112MOL   O14422566   3.323   2.399   1.453  0.8465 -0.2538 -0.1993
  112MOL   C14522567   3.257   2.290   1.380  0.3413 -0.0218 -0.0989
  112MOL   H14622568   3.102   2.424   1.608 -0.0568  0.0975  0.7015
  112MOL   H14722569   3.204   2.428   1.757 -0.6310  0.5596  0.9920
  112MOL   H14822570   3.338   2.280   1.635  2.8361  0.5090  1.9186
  112MOL   H14922571   3.281   2.302   1.275 -0.3120 -0.0416 -0.2517
  112MOL   H15022572   3.290   2.190   1.409  1.5759  0.1938 -0.7223
  112MOL   H15122573   3.152   2.299   1.406  0.9774  1.7832  2.1102
  112MOL   C15222574   3.458   2.446   1.641 -0.0698 -0.6846 -0.8293
  112MOL   C15322575   3.585   2.365   1.636  0.0655 -0.3808  0.3584
  112MOL   O15422576   3.569   2.258   1.721 -0.0471  0.2498  0.1576
  112MOL   C15522577   3.583   2.275   1.864 -0.8579  0.2231  0.3454
  112MOL   H15622578   3.441   2.466   1.747  1.4804  1.0027 -0.8697
  112MOL   H15722579   3.480   2.545   1.601  0.8305 -0.3193  0.4891
  112MOL   H15822580   3.662   2.428   1.681 -1.1392  0.7519  0.9114
  112MOL   H15922581   3.568   2.179   1.915 -4.1983  0.6441  0.2211
  112MOL   H16022582   3.689   2.295   1.880 -0.4789 -1.8678  0.6737
  112MOL   H16122583   3.521   2.346   1.918 -1.0063  0.4367 -0.1069
  112MOL   C16222584   3.629   2.332   1.487 -0.4156  0.1380 -0.0664
  112MOL   C16322585   3.669   2.452   1.407  0.0650 -0.6570 -0.1852
  112MOL   O16422586   3.782   2.516   1.474 -0.6061 -0.2791  0.1371
  112MOL   C16522587   3.905   2.446   1.485  0.5153  0.3577  0.8426
  112MOL   H16622588   3.549   2.279   1.435  1.3958 -0.9573 -1.8188
  112MOL   H16722589   3.704   2.254   1.502  0.0114  0.1709 -1.9230
  112MOL   H16822590   3.591   2.528   1.412 -0.6545 -0.6900 -6.9331
  112MOL   H16922591   3.985   2.500   1.536 -0.6092  1.5200  1.3945
  112MOL   H17022592   3.885   2.348   1.528 -2.7673  0.4305 -0.4052
  112MOL   H17122593   3.956   2.431   1.390 -0.6310  1.5249  0.0241
  112MOL   C17222594   3.705   2.412   1.260 -0.2166  0.1826 -0.0903
  112MOL   C17322595   3.776   2.525   1.176 -0.1316  0.3374 -0.4073
  112MOL   O17422596   3.835   2.459   1.057  0.1187 -0.0599 -0.3309
  112MOL   C17522597   3.970   2.496   1.037  0.4956  0.5101 -0.4429
  112MOL   H17622598   3.617   2.372   1.208  1.8442 -1.6513 -2.3437
  112MOL   H17722599   3.780   2.333   1.262  0.9177  1.1800 -2.0054
  112MOL   H17822600   3.844   2.572   1.246  2.1641 -1.2525 -1.4825
  112MOL   H17922601   3.995   2.473   0.933 -0.5607  0.1846 -0.6309
  112MOL   H18022602   3.969   2.605   1.045 -1.8093  0.3279  2.5580
  112MOL   H18122603   4.041   2.446   1.102 -0.0322 -1.3985 -1.2890
  112MOL   C18222604   3.679   2.639   1.118 -0.9387  0.4027 -0.5886
  112MOL   C18322605   3.587   2.576   1.015  0.2954  0.2954  0.6803
  112MOL   O18422606   3.459   2.626   1.020  0.0190  0.2694 -0.2081
  112MOL   C18522607   3.388   2.586   1.138  0.2271  0.4757  0.2999
  112MOL   H18622608   3.734   2.721   1.072  0.9400 -0.9913 -0.8658
  112MOL   H18722609   3.620   2.668   1.205 -2.3769  1.0887 -1.7725
  112MOL   H18822610   3.588   2.468   1.021 -0.9266  0.1667 -1.1716
  112MOL   H18922611   3.380   2.477   1.138 -1.0848  0.5708 -0.7030
  112MOL   H19022612   3.423   2.630   1.231 -0.6023 -0.0060  0.8463
  112MOL   H19122613   3.287   2.625   1.132 -0.8116 -2.1910 -0.0863
  112MOL   C19222614   3.641   2.609   0.872 -0.2640 -0.8682  0.0340
  112MOL   C19322615   3.556   2.557   0.761 -0.5304 -0.4709  0.6345
  112MOL   O19422616   3.611   2.553   0.628  0.1243  0.0598 -0.2727
  112MOL   C19522617   3.528   2.493   0.538 -0.5060  0.3569  0.2399
  112MOL   H19622618   3.742   2.567   0.866  0.4605  1.0110 -1.2691
  112MOL   H19722619   3.662   2.714   0.854 -0.9402 -0.9915 -1.5009
  112MOL   H19822620   3.464   2.615   0.759  0.0253  0.3949 -0.8465
  112MOL   H19922621   3.560   2.494   0.434 -1.1036 -0.0633  0.0474
  112MOL   H20022622   3.507   2.388   0.557  2.5378 -0.6087 -1.4430
  112MOL   H20122623   3.430   2.541   0.539 -0.1413  1.1107  0.5218
  112MOL   H20222624   3.529   2.457   0.796 -1.4386 -0.5160 -0.1804
  113MOL     C122625   5.452   1.398   5.355  0.1802 -0.4681  0.1981
  113MOL     C222626   5.366   1.345   5.473 -0.5728  0.5628  0.4644
  113MOL     O322627   5.299   1.465   5.521  0.6856  1.0255 -0.8155
  113MOL     C422628   5.357   1.518   5.640  0.0958 -0.0261  0.0768
  113MOL     H522629   5.383   1.460   5.298 -0.0911 -0.5868  0.3909
  113MOL     H622630   5.538   1.454   5.391 -1.1894  2.2033 -0.5036
  113MOL     H722631   5.436   1.302   5.545 -0.1493  0.9232  0.2746
  113MOL     H822632   5.321   1.620   5.649 -1.1285 -0.5850  1.6499
  113MOL     H922633   5.323   1.460   5.726  1.0898  0.3508  0.7301
  113MOL    H1022634   5.464   1.501   5.627  0.7097  2.5004  1.6563
  113MOL    H1122635   5.495   1.323   5.289 -1.0325  0.0836 -1.2496
  113MOL    C1222636   5.260   1.239   5.436  0.5163 -0.1374  0.0494
  113MOL    C1322637   5.305   1.106   5.378 -0.3581  0.8174  0.1846
  113MOL    O1422638   5.409   1.057   5.465 -0.5693 -0.3447 -0.2494
  113MOL    C1522639   5.511   0.990   5.397 -0.0289 -0.2237 -0.2723
  113MOL    H1622640   5.185   1.294   5.379  0.6510  1.0883  1.0245
  113MOL    H1722641   5.210   1.216   5.531  1.8233 -0.0290  0.7739
  113MOL    H1822642   5.338   1.121   5.275 -0.7081 -0.0325 -0.0491
  113MOL    H1922643   5.474   0.901   5.346 -0.7758 -1.8557  2.9664
  113MOL    H2022644   5.585   1.047   5.340 -0.1029  2.3716  2.0896
  113MOL    H2122645   5.568   0.941   5.475  0.1207 -0.3732 -0.4766
  113MOL    C2222646   5.198   0.995   5.397  0.9558  0.2155 -0.1405
  113MOL    C2322647   5.064   1.018   5.322 -0.4832  0.1629 -0.0519
  113MOL    O2422648   5.108   1.021   5.186  0.1982  0.2470  0.5490
  113MOL    C2522649   5.052   1.137   5.127  0.2245 -0.8609 -0.0530
  113MOL    H2622650   5.180   0.992   5.504  0.2899  2.8092 -0.1521
  113MOL    H2722651   5.239   0.897   5.371 -0.9737 -1.3406  2.5027
  113MOL    H2822652   5.035   1.116   5.359  1.7890  0.5950  0.6295
  113MOL    H2922653   5.074   1.143   5.020 -0.9057  2.3798 -0.1837
  113MOL    H3022654   4.943   1.139   5.126  0.2109 -1.6403 -1.5104
  113MOL    H3122655   5.099   1.227   5.167  1.1293 -0.9360 -0.9387
  113MOL    C3222656   4.949   0.919   5.343  0.2967 -0.0781 -0.3272
  113MOL    C3322657   4.891   0.912   5.490  0.0883  0.1793  0.1923
  113MOL    O3422658   4.906   1.040   5.549 -0.4648 -0.2227  0.3762
  113MOL    C3522659   4.907   1.046   5.692 -0.2805  0.4488 -0.5219
  113MOL    H3622660   4.988   0.828   5.297 -0.1659 -0.2182 -0.4434
  113MOL    H3722661   4.876   0.954   5.270 -1.2605 -1.0610  0.7359
  113MOL    H3822662   4.943   0.839   5.552 -0.1364  1.2813  1.7260
  113MOL    H3922663   4.946   1.145   5.717 -1.3077  0.4036  1.3453
  113MOL    H4022664   4.802   1.041   5.721 -0.9802  2.2346 -2.5279
  113MOL    H4122665   4.961   0.963   5.735 -0.7171  0.2315 -0.3863
  113MOL    C4222666   4.735   0.879   5.489 -0.0343 -0.2068  0.3177
  113MOL    C4322667   4.692   0.750   5.416 -0.2992  0.0919 -0.3904
  113MOL    O4422668   4.774   0.654   5.484  0.3878  0.5587 -0.2195
  113MOL    C4522669   4.810   0.533   5.414  0.3941 -0.0708  0.1151
  113MOL    H4622670   4.696   0.969   5.443 -1.0530 -2.4517 -3.4368
  113MOL    H4722671   4.696   0.879   5.591 -0.9660 -0.2853 -0.0320
  113MOL    H4822672   4.734   0.757   5.316 -0.4103  0.8573 -0.3894
  113MOL    H4922673   4.729   0.460   5.409 -1.0779  1.5907 -1.2331
  113MOL    H5022674   4.859   0.551   5.318  1.7391  0.8681  0.9608
  113MOL    H5122675   4.882   0.486   5.480  2.1433  0.8305 -1.1097
  113MOL    C5222676   4.549   0.715   5.433  0.5957  1.0162 -0.2992
  113MOL    C5322677   4.457   0.819   5.367 -0.0607  0.3285 -1.1555
  113MOL    O5422678   4.457   0.783   5.235 -0.2900  0.2596  0.1619
  113MOL    C5522679   4.451   0.889   5.144 -0.0025  0.2387  0.2686
  113MOL    H5622680   4.534   0.702   5.540  0.6526  1.0170 -0.2914
  113MOL    H5722681   4.529   0.623   5.378  1.1232  2.1582 -2.4723
  113MOL    H5822682   4.481   0.924   5.383  2.4596 -0.2575 -0.9179
  113MOL    H5922683   4.436   0.853   5.042 -0.4256  0.3369  0.2931
  113MOL    H6022684   4.365   0.948   5.177 -0.2732 -0.3400  0.6119
  113MOL    H6122685   4.544   0.945   5.139  1.3705 -2.1440 -2.3730
  113MOL    C6222686   4.308   0.798   5.422  0.3284 -0.1242  0.0966
  113MOL    C6322687   4.272   0.869   5.553  0.1907 -0.5456 -0.0985
  113MOL    O6422688   4.381   0.874   5.645 -0.3333  0.7319  0.1944
  113MOL    C6522689   4.385   0.771   5.742 -0.2623  0.4043 -0.1005
  113MOL    H6622690   4.295   0.690   5.429 -0.6731  0.0201  0.5508
  113MOL    H6722691   4.242   0.831   5.342  0.6259 -1.7654 -0.8510
  113MOL    H6822692   4.194   0.815   5.607 -1.4131 -0.6943 -2.5059
  113MOL    H6922693   4.389   0.672   5.696  1.3159  0.6074 -0.4358
  113MOL    H7022694   4.475   0.786   5.802  1.3549 -1.4329 -2.0166
  113MOL    H7122695   4.299   0.779   5.808 -0.0630  1.0781  0.0781
  113MOL    C7222696   4.213   1.007   5.542  0.7301 -0.0906 -0.3404
  113MOL    C7322697   4.183   1.092   5.663 -0.5058  0.0510 -0.1529
  113MOL    O7422698   4.092   1.030   5.749  0.4043 -0.6852 -0.1230
  113MOL    C7522699   3.955   1.030   5.712 -0.5339 -0.1965  0.3774
  113MOL    H7622700   4.118   0.999   5.490  0.6871 -1.2635 -0.0907
  113MOL    H7722701   4.288   1.048   5.473  0.0861  1.5696 -0.0920
  113MOL    H7822702   4.129   1.180   5.627 -0.8782  0.3006  0.9790
  113MOL    H7922703   3.926   0.964   5.631  0.1626  0.9634 -0.8368
  113MOL    H8022704   3.882   0.992   5.784 -1.0261 -1.9688 -1.0281
  113MOL    H8122705   3.924   1.134   5.701  0.3309 -0.0177 -0.4307
  113MOL    C8222706   4.300   1.134   5.751  0.5829  0.0711 -1.1537
  113MOL    C8322707   4.396   1.240   5.687 -0.3978 -0.3898 -0.0484
  113MOL    O8422708   4.349   1.375   5.684 -0.1213 -0.3338 -0.7207
  113MOL    C8522709   4.275   1.411   5.570 -0.3621 -0.5196  0.8056
  113MOL    H8622710   4.356   1.046   5.782 -1.9115 -0.8724  0.9319
  113MOL    H8722711   4.266   1.170   5.849 -0.6928 -0.0604 -1.5428
  113MOL    H8822712   4.422   1.202   5.589  0.3671 -2.5574  0.9657
  113MOL    H8922713   4.315   1.506   5.536 -0.6167 -0.9353 -0.7102
  113MOL    H9022714   4.305   1.346   5.488  0.5577 -2.8784  2.9225
  113MOL    H9122715   4.167   1.415   5.582 -0.6772 -0.4001 -1.7567
  113MOL    C9222716   4.530   1.238   5.773 -0.4928  0.6762  0.1579
  113MOL    C9322717   4.636   1.348   5.730 -0.1190 -0.0117  0.3282
  113MOL    O9422718   4.752   1.329   5.800 -0.2730  0.1384  0.5841
  113MOL    C9522719   4.742   1.379   5.937 -0.4398  0.1521 -0.1678
  113MOL    H9622720   4.583   1.143   5.760 -1.0706  0.5777 -1.5306
  113MOL    H9722721   4.498   1.248   5.877 -0.4950  0.9205  0.1346
  113MOL    H9822722   4.583   1.443   5.740 -0.9157 -0.5451  1.3270
  113MOL    H9922723   4.837   1.375   5.990 -0.1113  1.2748 -0.6555
  113MOL   H10022724   4.715   1.484   5.927 -1.1656 -0.1488 -1.5205
  113MOL   H10122725   4.663   1.331   5.994  1.5366 -1.0528  1.6003
  113MOL   C10222726   4.688   1.351   5.578 -0.7048  0.7696 -0.4088
  113MOL   C10322727   4.750   1.486   5.524  0.2468  0.1327  0.1837
  113MOL   O10422728   4.788   1.460   5.390 -0.2870 -0.5405 -0.1352
  113MOL   C10522729   4.929   1.429   5.369  0.4295  0.1856 -0.7544
  113MOL   H10622730   4.608   1.346   5.505 -1.2844  1.2515  0.1869
  113MOL   H10722731   4.753   1.265   5.562  1.4001  1.7778  2.3128
  113MOL   H10822732   4.834   1.525   5.581 -0.3196  3.8348 -1.3149
  113MOL   H10922733   4.958   1.436   5.264 -1.2057  1.5466 -1.1392
  113MOL   H11022734   4.981   1.517   5.406 -0.0804  0.1842 -0.0306
  113MOL   H11122735   4.977   1.343   5.415 -1.1487  0.7735  2.0698
  113MOL   C11222736   4.641   1.593   5.524 -0.1769  0.4094 -1.2038
  113MOL   C11322737   4.696   1.736   5.536 -0.3459  0.4366  0.2827
  113MOL   O11422738   4.777   1.760   5.420 -0.0203 -0.2312  0.0347
  113MOL   C11522739   4.905   1.804   5.446 -0.5110 -0.0115 -0.0510
  113MOL   H11622740   4.564   1.588   5.602  0.1880  0.9026 -0.8080
  113MOL   H11722741   4.577   1.582   5.436 -2.1849  1.1939  0.1181
  113MOL   H11822742   4.747   1.748   5.632 -1.9437  0.0501  1.1979
  113MOL   H11922743   4.964   1.734   5.506  1.9840  1.1933 -1.0326
  113MOL   H12022744   4.962   1.815   5.354  1.0641  0.2622  0.9291
  113MOL   H12122745   4.896   1.899   5.500  1.7531  0.3856 -0.2993
  113MOL   C12222746   4.585   1.838   5.536  0.2194 -0.4229 -0.1010
  113MOL   C12322747   4.486   1.855   5.419 -0.1061 -0.1013  0.1526
  113MOL   O12422748   4.360   1.911   5.465  0.0669 -0.8354  0.1104
  113MOL   C12522749   4.273   1.811   5.509 -0.0181  0.4416  0.2492
  113MOL   H12622750   4.613   1.934   5.579 -2.6408  0.6735 -0.5872
  113MOL   H12722751   4.528   1.796   5.619 -0.6658 -1.7191 -1.3382
  113MOL   H12822752   4.474   1.756   5.375  2.4062  0.9678 -3.1377
  113MOL   H12922753   4.254   1.737   5.431  0.7800  0.6581 -0.1566
  113MOL   H13022754   4.318   1.759   5.593  1.2950 -0.9926 -1.3141
  113MOL   H13122755   4.185   1.855   5.555  0.1872 -0.7232  1.7749
  113MOL   C13222756   4.551   1.957   5.317 -0.1672  0.0151 -0.6414
  113MOL   C13322757   4.467   1.989   5.192 -0.6868  0.0464 -0.2346
  113MOL   O13422758   4.420   2.129   5.199 -0.1740  0.4855 -0.0397
  113MOL   C13522759   4.300   2.164   5.262 -0.5597  0.0233  0.2867
  113MOL   H13622760   4.656   1.936   5.299  0.0926  0.8697 -0.1467
  113MOL   H13722761   4.553   2.050   5.373 -2.1942  0.3256 -1.0286
  113MOL   H13822762   4.380   1.924   5.182 -0.6740  0.4610 -3.4210
  113MOL   H13922763   4.223   2.087   5.255  0.7653 -1.3663  0.8086
  113MOL   H14022764   4.323   2.163   5.369  0.8538 -4.2399  0.0400
  113MOL   H14122765   4.257   2.260   5.234  1.3314  0.4680 -1.1897
  113MOL   C14222766   4.546   1.980   5.062  0.5927 -0.0347  0.4139
  113MOL   C14322767   4.674   2.065   5.038 -0.3853  0.0743  0.0060
  113MOL   O14422768   4.756   2.004   4.940 -0.2705 -0.2321 -0.4523
  113MOL   C14522769   4.856   1.911   4.982  0.8074 -0.1271 -0.7783
  113MOL   H14622770   4.474   2.015   4.988  0.3433  0.8042  1.0550
  113MOL   H14722771   4.559   1.875   5.034 -0.1828  0.3884 -1.5980
  113MOL   H14822772   4.728   2.080   5.132 -1.8478 -0.5568  0.9644
  113MOL   H14922773   4.944   1.954   5.029  0.0172 -0.2361  0.8060
  113MOL   H15022774   4.818   1.844   5.059 -1.3813  1.6951 -0.2279
  113MOL   H15122775   4.884   1.835   4.908 -0.8903 -1.0302 -0.5071
  113MOL   C15222776   4.652   2.205   4.980  0.0262 -0.3782  0.1288
  113MOL   C15322777   4.778   2.297   4.973  0.1017  0.6336  0.1543
  113MOL   O15422778   4.792   2.347   4.834 -0.4340 -0.4789 -0.0620
  113MOL   C15522779   4.866   2.266   4.751 -0.2582  0.9797 -0.0442
  113MOL   H15622780   4.580   2.255   5.044  0.4036 -2.1267  1.9613
  113MOL   H15722781   4.610   2.190   4.880  0.1275 -0.8565  0.1546
  113MOL   H15822782   4.872   2.242   4.987  0.1768 -0.4544 -4.0075
  113MOL   H15922783   4.965   2.233   4.781 -0.9115  0.2274  1.3325
  113MOL   H16022784   4.815   2.178   4.711 -0.6995  0.9838  0.5079
  113MOL   H16122785   4.879   2.324   4.659  2.4366  0.3811 -0.0635
  113MOL   C16222786   4.780   2.432   5.057  0.0068  0.1981 -0.1096
  113MOL   C16322787   4.778   2.394   5.208  0.0026 -0.1890 -0.7146
  113MOL   O16422788   4.905   2.326   5.228  0.3641 -0.1977 -0.1216
  113MOL   C16522789   4.895   2.232   5.338 -0.4565 -0.3233 -0.1089
  113MOL   H16622790   4.696   2.491   5.021  1.3246  2.5845  0.6470
  113MOL   H16722791   4.865   2.498   5.042  0.0459 -0.0148 -0.8568
  113MOL   H16822792   4.695   2.327   5.230 -0.8220  0.8678 -0.6098
  113MOL   H16922793   4.838   2.275   5.420  2.9742  0.6285  1.8257
  113MOL   H17022794   4.845   2.137   5.315 -1.5575 -0.1559  1.5000
  113MOL   H17122795   4.997   2.219   5.371 -0.0632 -0.7813 -1.4441
  113MOL   C17222796   4.774   2.511   5.298  0.0162 -0.2290  0.0766
  113MOL   C17322797   4.646   2.600   5.288  0.1186 -0.2402  0.6228
  113MOL   O17422798   4.560   2.573   5.395  0.1728  0.5922  1.2355
  113MOL   C17522799   4.480   2.456   5.368 -0.9252 -0.1066 -0.5517
  113MOL   H17622800   4.857   2.581   5.286 -0.1333  0.0143  0.4480
  113MOL   H17722801   4.779   2.476   5.401 -2.1822 -1.8440 -0.3492
  113MOL   H17822802   4.597   2.571   5.195 -1.1008  0.8458  0.9229
  113MOL   H17922803   4.430   2.446   5.272 -0.2932 -1.2630 -0.7758
  113MOL   H18022804   4.537   2.366   5.393 -1.2047  0.0598  0.7259
  113MOL   H18122805   4.399   2.465   5.440 -0.9642  0.6425 -0.6881
  113MOL   C18222806   4.653   2.744   5.283 -0.4640 -0.4361  0.0952
  113MOL   C18322807   4.729   2.804   5.159  0.2689  0.2476  0.4096
  113MOL   O18422808   4.638   2.853   5.059 -0.2947  0.0593  0.4264
  113MOL   C18522809   4.601   2.756   4.958 -0.6872  0.5281 -0.2453
  113MOL   H18622810   4.704   2.773   5.375  0.3818 -0.9146 -0.2179
  113MOL   H18722811   4.554   2.786   5.298 -0.9045 -2.1188  2.1880
  113MOL   H18822812   4.801   2.736   5.114 -0.4477  0.5598 -1.2364
  113MOL   H18922813   4.538   2.685   5.012  1.7834 -1.0015  0.7326
  113MOL   H19022814   4.554   2.806   4.874  1.1398 -0.3452 -1.8375
  113MOL   H19122815   4.685   2.698   4.918  0.1679  2.2208 -0.9202
  113MOL   C19222816   4.819   2.921   5.204 -0.1345  0.1316 -0.5655
  113MOL   C19322817   4.889   3.003   5.089 -0.0296 -0.1756  0.0813
  113MOL   O19422818   4.975   3.105   5.151 -0.0428  1.4474  0.0101
  113MOL   C19522819   5.039   3.196   5.061 -0.2054  0.4737 -0.3525
  113MOL   H19622820   4.902   2.886   5.265 -1.2946  0.9697  1.5559
  113MOL   H19722821   4.764   2.992   5.266 -1.3622 -1.5859  0.3547
  113MOL   H19822822   4.826   3.048   5.013  2.0150  1.7627 -0.5222
  113MOL   H19922823   5.127   3.145   5.021  0.2681  1.2055 -0.2419
  113MOL   H20022824   4.976   3.221   4.976  1.0172 -0.4296 -1.5404
  113MOL   H20122825   5.069   3.290   5.108  1.3234 -0.4181  0.4973
  113MOL   H20222826   4.948   2.931   5.033 -0.7006 -0.1766 -0.6339
  114MOL     C122827   1.934   5.080   2.169 -0.5124  0.4154 -0.5782
  114MOL     C222828   2.090   5.103   2.172 -0.0923  0.4239  0.4068
  114MOL     O322829   2.127   5.212   2.089  0.5006  0.3143  0.2736
  114MOL     C422830   2.215   5.173   1.989  0.2492  0.8966 -0.6059
  114MOL     H522831   1.909   5.007   2.247  2.9613 -1.3078 -0.9437
  114MOL     H622832   1.879   5.169   2.199 -3.3642 -0.7510 -2.1180
  114MOL     H722833   2.130   5.006   2.143 -1.8277 -0.9300  2.4096
  114MOL     H822834   2.319   5.173   2.021  0.3679 -0.0776 -0.9780
  114MOL     H922835   2.192   5.073   1.955  1.2859  0.3972  0.1131
  114MOL    H1022836   2.212   5.251   1.913  2.0902  2.6679  1.0602
  114MOL    H1122837   1.887   5.057   2.073 -1.8922  1.0534 -0.0680
  114MOL    C1222838   2.141   5.131   2.314 -0.5215  0.4101 -0.0220
  114MOL    C1322839   2.134   5.017   2.418  1.1650 -0.0423  0.0385
  114MOL    O1422840   2.224   4.915   2.372  0.3674 -0.1818 -0.6364
  114MOL    C1522841   2.194   4.789   2.430 -0.1357  0.2430  0.0562
  114MOL    H1622842   2.091   5.218   2.355  0.2357  1.1138 -0.5774
  114MOL    H1722843   2.246   5.157   2.300 -0.5835  0.4165 -0.4957
  114MOL    H1822844   2.036   4.974   2.436  0.2922  1.7420 -0.3210
  114MOL    H1922845   2.276   4.727   2.393 -1.9493 -1.2582 -1.5460
  114MOL    H2022846   2.201   4.779   2.538  0.2052  0.2069  0.0337
  114MOL    H2122847   2.104   4.747   2.385 -0.4898  0.4719  0.5525
  114MOL    C2222848   2.188   5.071   2.554 -0.0662  0.2182  0.0187
  114MOL    C2322849   2.093   5.053   2.686 -0.0919  0.0962  0.3953
  114MOL    O2422850   2.177   5.073   2.801 -0.1093  0.1672  0.3076
  114MOL    C2522851   2.137   5.001   2.915  0.0437  0.3691 -0.6454
  114MOL    H2622852   2.229   5.172   2.550 -0.8791  0.7481  3.4890
  114MOL    H2722853   2.278   5.018   2.584 -1.5677 -1.9065  0.8535
  114MOL    H2822854   2.069   4.948   2.677  0.7241 -0.0466 -0.2237
  114MOL    H2922855   2.107   4.897   2.902  0.7865 -0.1363  1.5153
  114MOL    H3022856   2.226   4.987   2.977  0.9822  1.4228 -1.7087
  114MOL    H3122857   2.068   5.065   2.970 -0.5225 -0.1401 -0.7546
  114MOL    C3222858   1.970   5.136   2.705  0.2524 -0.1964  0.4632
  114MOL    C3322859   1.983   5.288   2.728 -0.4270 -0.3485 -0.4471
  114MOL    O3422860   1.965   5.352   2.599  0.2946 -0.5428  0.5018
  114MOL    C3522861   2.024   5.481   2.601 -0.3619 -0.1502  0.5965
  114MOL    H3622862   1.916   5.091   2.789 -0.5506 -2.1834 -1.0754
  114MOL    H3722863   1.899   5.123   2.623 -0.1959  0.5107  0.7339
  114MOL    H3822864   2.077   5.322   2.771 -0.9729  0.0743  0.4214
  114MOL    H3922865   2.004   5.528   2.504 -0.5181  0.9655  1.1566
  114MOL    H4022866   1.986   5.549   2.678  0.1750 -0.0296  0.7568
  114MOL    H4122867   2.131   5.478   2.622 -0.6422 -1.3877  1.9140
  114MOL    C4222868   1.877   5.340   2.823  0.7046 -0.0936 -0.0743
  114MOL    C4322869   1.902   5.322   2.984  0.0750  1.1166  0.0482
  114MOL    O4422870   2.018   5.412   3.003  0.6253  0.4197  0.0002
  114MOL    C4522871   2.126   5.376   3.088  0.0862 -0.0723 -0.7593
  114MOL    H4622872   1.775   5.310   2.797 -1.1348  1.8867  4.2466
  114MOL    H4722873   1.874   5.449   2.818  1.8401 -0.0958 -0.7685
  114MOL    H4822874   1.932   5.218   3.003  1.9165  1.5364 -0.5181
  114MOL    H4922875   2.104   5.384   3.194 -0.0255  1.6412 -0.8900
  114MOL    H5022876   2.178   5.285   3.057  1.4699  1.1401 -2.0882
  114MOL    H5122877   2.206   5.448   3.067  0.2364  0.3119  1.0439
  114MOL    C5222878   1.787   5.373   3.071  0.1354 -0.5743 -0.8828
  114MOL    C5322879   1.655   5.280   3.066  0.4883  0.4491 -0.3643
  114MOL    O5422880   1.667   5.192   3.182 -0.2941 -1.0137  0.0031
  114MOL    C5522881   1.574   5.091   3.177 -0.2504 -0.4656 -0.5138
  114MOL    H5622882   1.765   5.477   3.045  0.9557 -0.0190  0.5703
  114MOL    H5722883   1.832   5.377   3.170 -0.5142 -0.3141 -0.5935
  114MOL    H5822884   1.661   5.217   2.977 -3.5102 -1.0602  0.3155
  114MOL    H5922885   1.473   5.119   3.208 -1.1277 -3.8628 -0.1481
  114MOL    H6022886   1.586   5.046   3.079  1.3079 -2.7519  0.6895
  114MOL    H6122887   1.592   5.021   3.259 -1.0286 -0.9156 -0.7303
  114MOL    C6222888   1.530   5.369   3.066  0.0294 -0.2095 -0.4522
  114MOL    C6322889   1.501   5.479   2.963  0.7638  0.4438 -0.2413
  114MOL    O6422890   1.488   5.431   2.827 -0.6188  0.5368 -0.0889
  114MOL    C6522891   1.555   5.523   2.738  0.3322 -0.0855  0.1546
  114MOL    H6622892   1.529   5.411   3.166  1.0298 -0.2028 -0.4431
  114MOL    H6722893   1.439   5.308   3.070  0.1711 -0.3238  1.5403
  114MOL    H6822894   1.581   5.553   2.969 -0.9102  2.2016  1.2295
  114MOL    H6922895   1.495   5.612   2.718  2.4832  1.2798 -0.3671
  114MOL    H7022896   1.658   5.550   2.757  0.0977  0.2661  0.9347
  114MOL    H7122897   1.548   5.484   2.637 -0.4704  0.2355  0.0793
  114MOL    C7222898   1.363   5.550   2.999  0.3679 -0.1619  0.3097
  114MOL    C7322899   1.377   5.657   3.109 -0.2947  0.6018 -0.1193
  114MOL    O7422900   1.453   5.771   3.061  0.3505  0.5041 -0.2458
  114MOL    C7522901   1.585   5.772   3.088  0.7953 -0.4513  0.8348
  114MOL    H7622902   1.285   5.475   3.015 -0.2026  0.6982  1.6987
  114MOL    H7722903   1.343   5.595   2.902  1.0672 -2.2085 -0.8150
  114MOL    H7822904   1.438   5.612   3.188 -0.5373 -0.2519 -0.4161
  114MOL    H7922905   1.645   5.758   2.998  0.7242  2.0642  0.3490
  114MOL    H8022906   1.614   5.873   3.118 -0.0369  0.2313 -0.6578
  114MOL    H8122907   1.624   5.709   3.168 -2.3099 -0.0133  2.7597
  114MOL    C8222908   1.241   5.702   3.155  0.5965  0.2757  0.0946
  114MOL    C8322909   1.247   5.808   3.263 -0.0666 -0.3231 -0.3551
  114MOL    O8422910   1.116   5.871   3.274 -0.7872 -0.0219 -0.3278
  114MOL    C8522911   1.110   5.994   3.198 -0.7863  0.2453  0.1325
  114MOL    H8622912   1.183   5.615   3.186  0.5196 -0.3856 -1.8197
  114MOL    H8722913   1.184   5.737   3.069  0.2323 -1.4319 -0.3913
  114MOL    H8822914   1.314   5.890   3.240  1.1007 -1.3171 -0.5537
  114MOL    H8922915   1.025   6.058   3.222 -0.2175  1.9978 -2.3617
  114MOL    H9022916   1.197   6.060   3.203 -1.8197  2.0413 -3.4898
  114MOL    H9122917   1.107   5.963   3.093  0.2358 -0.7315  0.3794
  114MOL    C9222918   1.276   5.744   3.406 -0.5788  0.5664  0.8056
  114MOL    C9322919   1.284   5.835   3.529 -0.1003 -0.0779  0.3448
  114MOL    O9422920   1.276   5.742   3.641 -0.1438 -0.8274 -0.6374
  114MOL    C9522921   1.154   5.759   3.716 -0.0566 -0.8728  0.2449
  114MOL    H9622922   1.371   5.690   3.404  1.7972  4.5239  0.9577
  114MOL    H9722923   1.203   5.668   3.433  0.1266  0.4593  2.5324
  114MOL    H9822924   1.205   5.909   3.544  0.4353  0.6004 -0.1282
  114MOL    H9922925   1.064   5.745   3.656 -0.1029  0.7092 -0.0682
  114MOL   H10022926   1.152   5.678   3.789  0.6424 -1.3725 -0.2775
  114MOL   H10122927   1.160   5.855   3.766 -2.2829 -0.8673  0.5449
  114MOL   C10222928   1.414   5.919   3.546 -0.0453 -0.0240 -0.3239
  114MOL   C10322929   1.404   6.058   3.475  0.0315 -0.8416 -0.0985
  114MOL   O10422930   1.312   6.128   3.552  0.6245  0.0335 -0.2859
  114MOL   C10522931   1.226   6.213   3.473  0.3523 -0.4235 -0.4772
  114MOL   H10622932   1.492   5.861   3.494 -1.0010  0.5057 -2.4173
  114MOL   H10722933   1.442   5.918   3.651  1.7479  0.7677 -0.7653
  114MOL   H10822934   1.373   6.039   3.373 -1.2279 -0.1299  0.1333
  114MOL   H10922935   1.190   6.294   3.537  2.6993  0.6667 -0.5040
  114MOL   H11022936   1.277   6.258   3.388  1.3515 -0.9298 -0.1520
  114MOL   H11122937   1.132   6.163   3.450 -0.5585  0.6971  0.6846
  114MOL   C11222938   1.534   6.132   3.477  0.5201  0.2055 -0.4745
  114MOL   C11322939   1.610   6.099   3.344 -0.3543  0.8977 -0.3276
  114MOL   O11422940   1.599   6.203   3.239  0.1239 -0.4575  0.6307
  114MOL   C11522941   1.511   6.162   3.138 -0.1293 -0.2419 -0.2274
  114MOL   H11622942   1.587   6.104   3.568  0.6890  1.6412 -0.1130
  114MOL   H11722943   1.517   6.239   3.487  1.8931  0.3446  0.6194
  114MOL   H11822944   1.583   5.998   3.312 -0.9694  0.6550  0.9261
  114MOL   H11922945   1.512   6.244   3.066 -1.1625  0.0875  0.1238
  114MOL   H12022946   1.548   6.073   3.086  0.6232 -0.9192  1.4306
  114MOL   H12122947   1.409   6.152   3.175  0.3988  1.9855  1.9445
  114MOL   C12222948   1.765   6.087   3.378 -0.0084 -0.7043 -0.3557
  114MOL   C12322949   1.863   6.024   3.276 -0.0603 -0.3344  0.0189
  114MOL   O12422950   1.820   5.888   3.251  0.2717  0.0749  0.1391
  114MOL   C12522951   1.884   5.785   3.315  0.3978 -0.0525 -0.3051
  114MOL   H12622952   1.780   6.022   3.464 -1.0576  1.0372  1.1667
  114MOL   H12722953   1.804   6.184   3.409  1.1692 -0.7970 -1.4636
  114MOL   H12822954   1.966   6.024   3.313 -0.7689 -2.4299  2.1518
  114MOL   H12922955   1.990   5.800   3.339  0.3190  0.8072 -0.4655
  114MOL   H13022956   1.819   5.764   3.400 -0.3343 -0.1633 -0.8941
  114MOL   H13122957   1.902   5.701   3.249 -2.2504 -0.5676 -0.3943
  114MOL   C13222958   1.876   6.107   3.146 -0.3680 -0.1124  0.5533
  114MOL   C13322959   2.000   6.065   3.063  0.4617  1.0559 -0.0358
  114MOL   O13422960   2.115   6.089   3.139 -0.3295  0.4039  0.8874
  114MOL   C13522961   2.159   6.222   3.152  0.0567  0.0177  1.1329
  114MOL   H13622962   1.881   6.214   3.165  1.0814 -0.4316  2.1728
  114MOL   H13722963   1.792   6.080   3.082 -1.7455  0.9925  1.8591
  114MOL   H13822964   1.994   6.123   2.971 -0.9911  1.4515  0.2939
  114MOL   H13922965   2.104   6.283   3.223 -4.2665 -0.2966 -1.7431
  114MOL   H14022966   2.261   6.215   3.189  0.4020 -1.0107  0.0084
  114MOL   H14122967   2.154   6.282   3.060  0.4944  1.2427  1.8965
  114MOL   C14222968   1.999   5.915   3.020  0.3733 -0.2876  0.3968
  114MOL   C14322969   2.079   5.887   2.890  0.1505 -0.1867 -0.0247
  114MOL   O14422970   2.102   5.745   2.863  0.1728  0.2830  0.8130
  114MOL   C14522971   2.229   5.687   2.899 -0.0911 -0.1692 -1.1314
  114MOL   H14622972   1.900   5.871   3.020 -0.3496  1.1892 -2.0999
  114MOL   H14722973   2.053   5.867   3.101  0.5580  0.4092  0.6960
  114MOL   H14822974   2.171   5.946   2.899  0.7159 -0.8826 -1.0735
  114MOL   H14922975   2.281   5.616   2.834  0.1217  0.0055 -1.1509
  114MOL   H15022976   2.304   5.766   2.899  1.2578 -1.3363  2.5624
  114MOL   H15122977   2.221   5.655   3.003 -0.5043  2.1290 -0.4260
  114MOL   C15222978   2.002   5.930   2.766  0.1348  0.0167  0.3631
  114MOL   C15322979   2.071   5.929   2.625  0.2598 -0.0072  0.8661
  114MOL   O15422980   1.997   6.019   2.545 -0.3394 -0.6652  0.0745
  114MOL   C15522981   1.936   5.960   2.432  0.1475  0.1964  0.2683
  114MOL   H15622982   1.980   6.035   2.788 -0.7100 -0.1104  0.1380
  114MOL   H15722983   1.909   5.874   2.765 -0.4265  0.9409 -0.8974
  114MOL   H15822984   2.061   5.823   2.598 -0.9131 -0.0577  1.4673
  114MOL   H15922985   1.862   5.887   2.465  0.7167  0.1910  1.5893
  114MOL   H16022986   1.893   6.047   2.384  1.3333 -0.2568 -1.6581
  114MOL   H16122987   2.016   5.916   2.372 -0.3773 -1.1091  0.5272
  114MOL   C16222988   2.218   5.954   2.614 -0.6906 -0.1515 -0.1248
  114MOL   C16322989   2.278   5.917   2.472 -0.1487 -0.3136  0.5893
  114MOL   O16422990   2.411   5.960   2.468  0.2151  0.0631  0.5716
  114MOL   C16522991   2.431   6.086   2.407  0.3120 -0.5156  0.0098
  114MOL   H16622992   2.261   5.888   2.690  1.1821  0.6073 -0.5107
  114MOL   H16722993   2.240   6.057   2.642  1.3221  0.2816 -3.0577
  114MOL   H16822994   2.213   5.972   2.404  0.5115 -0.7736 -0.4156
  114MOL   H16922995   2.531   6.127   2.424  0.0654  0.7161 -1.4049
  114MOL   H17022996   2.422   6.090   2.298  1.6165  0.5586 -0.0681
  114MOL   H17122997   2.351   6.152   2.438  0.9634 -0.6397  1.9863
  114MOL   C17222998   2.260   5.764   2.439  0.7130 -0.6830  0.1231
  114MOL   C17322999   2.351   5.715   2.329  0.4349  1.2574 -0.1029
  114MOL   O17423000   2.322   5.577   2.298 -0.0693 -0.6909 -0.1467
  114MOL   C17523001   2.367   5.482   2.387  0.4081 -0.2162 -0.3288
  114MOL   H17623002   2.159   5.725   2.426 -0.6690  2.9627 -0.6931
  114MOL   H17723003   2.287   5.715   2.533  2.5448  0.7146  0.3681
  114MOL   H17823004   2.452   5.721   2.369  0.6564 -0.0256 -0.4595
  114MOL   H17923005   2.325   5.391   2.344  2.4278 -1.5111  0.3388
  114MOL   H18023006   2.476   5.478   2.399  0.5639  1.4317 -1.0698
  114MOL   H18123007   2.330   5.498   2.488  2.3873  1.2262  0.1922
  114MOL   C18223008   2.351   5.787   2.194  0.2999 -0.0079 -0.0226
  114MOL   C18323009   2.481   5.787   2.110 -0.4294  0.4020  0.4991
  114MOL   O18423010   2.559   5.881   2.178 -0.5455  0.7165 -0.5464
  114MOL   C18523011   2.656   5.940   2.098 -0.0836  0.0658 -0.6266
  114MOL   H18623012   2.327   5.892   2.207 -1.1944 -0.2516 -0.7640
  114MOL   H18723013   2.264   5.760   2.133  0.6439 -1.7497  0.2331
  114MOL   H18823014   2.453   5.825   2.012 -1.7953  1.4151  1.2716
  114MOL   H18923015   2.708   6.012   2.162 -0.2634  0.9781 -1.5030
  114MOL   H19023016   2.721   5.862   2.059 -0.8011 -1.4991  1.2181
  114MOL   H19123017   2.618   5.999   2.016 -0.6470  1.4480  0.6050
  114MOL   C19223018   2.547   5.648   2.080 -0.7481  0.5296 -0.5993
  114MOL   C19323019   2.456   5.568   1.975 -0.5054  0.1683  0.0638
  114MOL   O19423020   2.517   5.590   1.845  0.6029 -0.2467  0.3037
  114MOL   C19523021   2.441   5.523   1.742 -0.4199 -0.2288 -0.3003
  114MOL   H19623022   2.555   5.596   2.175  0.4650  0.0268 -0.9657
  114MOL   H19723023   2.649   5.646   2.040  0.1294 -0.9632  1.6212
  114MOL   H19823024   2.351   5.596   1.983 -0.6672 -0.4299  0.0764
  114MOL   H19923025   2.469   5.418   1.753 -0.2898 -0.0343  1.3922
  114MOL   H20023026   2.335   5.547   1.739  0.1444  2.4188 -0.2820
  114MOL   H20123027   2.477   5.562   1.647 -0.3110  1.0887  0.2709
  114MOL   H20223028   2.462   5.463   2.005 -4.1737  0.4154  1.9084
  115MOL     C123029   5.302   6.892   2.959  0.4810  0.0729 -0.3849
  115MOL     C223030   5.199   6.792   3.005 -0.4299  0.3665  0.4582
  115MOL     O323031   5.168   6.827   3.136 -0.0077 -0.0872  0.7632
  115MOL     C423032   5.223   6.754   3.246 -0.3830 -0.8647 -0.3884
  115MOL     H523033   5.332   6.873   2.856 -0.1916 -0.2277 -0.5273
  115MOL     H623034   5.272   6.994   2.983 -1.4351 -0.7585  0.8939
  115MOL     H723035   5.238   6.690   3.012 -0.1151  0.4811  0.3731
  115MOL     H823036   5.187   6.652   3.258  0.4524 -1.1867 -0.6091
  115MOL     H923037   5.330   6.768   3.265 -0.6624 -0.2484  0.8281
  115MOL    H1023038   5.179   6.790   3.339 -0.2815 -1.3640 -0.1463
  115MOL    H1123039   5.395   6.864   3.008  1.1170  0.6953 -1.2181
  115MOL    C1223040   5.075   6.794   2.913  0.5566  0.3710 -0.9209
  115MOL    C1323041   4.966   6.692   2.960  0.5627 -0.0470 -0.0274
  115MOL    O1423042   4.864   6.712   2.861  0.3797 -0.5428 -0.1945
  115MOL    C1523043   4.730   6.732   2.911 -0.1372  0.5103  0.1885
  115MOL    H1623044   5.111   6.781   2.811 -0.0691  0.2127 -1.1187
  115MOL    H1723045   5.036   6.896   2.914 -0.2712  0.0465 -0.2449
  115MOL    H1823046   4.931   6.714   3.061 -0.4892 -1.3702 -0.0883
  115MOL    H1923047   4.687   6.656   2.976 -1.7220  0.1609 -1.2512
  115MOL    H2023048   4.738   6.824   2.970 -0.7957  2.0255 -2.0458
  115MOL    H2123049   4.667   6.755   2.825 -1.4602  0.7264  1.1986
  115MOL    C2223050   5.009   6.540   2.956 -0.3033  0.4513  0.4424
  115MOL    C2323051   4.898   6.443   2.972 -0.2559  0.7333  0.3512
  115MOL    O2423052   4.940   6.315   2.909  0.4603  0.1161 -0.4521
  115MOL    C2523053   4.902   6.295   2.775  0.6296  0.2330 -0.4770
  115MOL    H2623054   5.076   6.533   3.041  0.2388  0.5506  0.0213
  115MOL    H2723055   5.055   6.518   2.860  1.1616 -0.7957  1.4194
  115MOL    H2823056   4.808   6.461   2.913  0.1629 -0.3532 -0.6472
  115MOL    H2923057   4.934   6.384   2.721 -0.3631  1.0997  0.3630
  115MOL    H3023058   4.959   6.213   2.732 -0.3007 -0.6472 -0.0415
  115MOL    H3123059   4.796   6.270   2.771  1.1161 -1.8356 -1.1382
  115MOL    C3223060   4.864   6.392   3.115 -0.0400  0.2084 -0.4942
  115MOL    C3323061   4.722   6.326   3.137 -0.0421  1.2202 -0.6684
  115MOL    O3423062   4.626   6.431   3.138  0.1112 -0.2281 -0.1320
  115MOL    C3523063   4.509   6.399   3.209  0.2608  0.7308 -0.5200
  115MOL    H3623064   4.865   6.469   3.192  1.0276 -1.2953  1.0367
  115MOL    H3723065   4.938   6.318   3.144  0.3550  0.3194 -1.2056
  115MOL    H3823066   4.723   6.289   3.240  1.5480  0.1481 -1.0436
  115MOL    H3923067   4.516   6.415   3.317  3.2165 -1.5563 -0.3204
  115MOL    H4023068   4.427   6.466   3.181  0.8052  0.7877 -2.0002
  115MOL    H4123069   4.482   6.296   3.188  0.5313  0.9470 -2.0066
  115MOL    C4223070   4.673   6.215   3.038  0.1119 -0.6322 -0.4209
  115MOL    C4323071   4.739   6.076   3.062  0.0205 -0.2873  0.5690
  115MOL    O4423072   4.625   5.987   3.079  0.2204 -0.3655 -0.2771
  115MOL    C4523073   4.575   5.990   3.217  0.1486  0.0652  0.4434
  115MOL    H4623074   4.665   6.253   2.936  0.2356 -0.0389 -0.2127
  115MOL    H4723075   4.566   6.208   3.057  0.3691 -0.2169  1.1916
  115MOL    H4823076   4.798   6.076   3.154  2.7753  0.0921 -1.1477
  115MOL    H4923077   4.643   5.933   3.280  0.8803 -0.7356 -1.0521
  115MOL    H5023078   4.565   6.087   3.266 -1.8468  0.4903 -0.7402
  115MOL    H5123079   4.484   5.933   3.238  0.6531 -1.0568 -0.4115
  115MOL    C5223080   4.831   6.013   2.951  0.3914 -0.4067 -0.6008
  115MOL    C5323081   4.893   5.880   3.003 -0.0371 -0.2401  0.1923
  115MOL    O5423082   4.953   5.816   2.893  0.2423  0.2784  0.1172
  115MOL    C5523083   4.854   5.745   2.814 -0.7568  0.4243  0.3529
  115MOL    H5623084   4.909   6.078   2.912 -0.0401  0.6192  0.2375
  115MOL    H5723085   4.770   6.002   2.861 -0.9587  0.8729  0.1526
  115MOL    H5823086   4.807   5.819   3.031 -0.7567  1.3473  1.5219
  115MOL    H5923087   4.809   5.664   2.872  0.5661 -0.2394  0.4577
  115MOL    H6023088   4.771   5.802   2.773  0.2097  0.6998 -1.2298
  115MOL    H6123089   4.900   5.692   2.731 -0.7715  1.7286 -0.4910
  115MOL    C6223090   4.998   5.895   3.126  0.0788 -0.1395  0.0235
  115MOL    C6323091   5.104   6.010   3.106  0.1095  0.4318 -0.0942
  115MOL    O6423092   5.166   6.031   3.236  0.0450 -0.0803 -0.0457
  115MOL    C6523093   5.104   6.136   3.313  0.1187  0.0302 -0.1121
  115MOL    H6623094   5.052   5.801   3.132  0.9387  0.3322 -0.2265
  115MOL    H6723095   4.948   5.910   3.222  0.5413  0.1151  0.2268
  115MOL    H6823096   5.059   6.106   3.081  1.7482  0.8284 -1.6402
  115MOL    H6923097   5.136   6.234   3.279  3.8264  0.1890  3.4230
  115MOL    H7023098   4.996   6.124   3.311 -0.1325  2.4926 -2.3403
  115MOL    H7123099   5.138   6.127   3.417 -0.3290  0.1497  0.0458
  115MOL    C7223100   5.209   5.982   2.996  0.6760 -0.4564  0.4944
  115MOL    C7323101   5.318   6.094   2.987 -0.1352  0.3624  0.7606
  115MOL    O7423102   5.395   6.069   2.877 -0.1388 -0.3235  0.0071
  115MOL    C7523103   5.520   5.997   2.894 -0.3715  0.7499  0.0292
  115MOL    H7623104   5.157   5.963   2.903 -0.5460  1.0443  0.8574
  115MOL    H7723105   5.252   5.883   3.014 -0.7787 -1.4651 -1.4423
  115MOL    H7823106   5.386   6.092   3.073  0.1878 -0.8753  0.4860
  115MOL    H7923107   5.600   6.029   2.827 -1.3121  1.4269 -0.8007
  115MOL    H8023108   5.562   6.011   2.993 -0.7215  0.9494  0.1519
  115MOL    H8123109   5.488   5.895   2.877  1.8106  0.3998 -2.3363
  115MOL    C8223110   5.264   6.241   2.964  0.5110 -0.6392 -0.7095
  115MOL    C8323111   5.388   6.341   2.953  0.3875  0.3979 -0.1984
  115MOL    O8423112   5.338   6.470   2.909  0.2713 -0.4586 -0.5589
  115MOL    C8523113   5.326   6.476   2.768 -0.5448  0.3157  0.2906
  115MOL    H8623114   5.204   6.268   3.051 -0.5915 -1.8003 -1.1024
  115MOL    H8723115   5.193   6.240   2.882  1.8067 -2.6948 -1.8587
  115MOL    H8823116   5.468   6.297   2.894  1.0914  2.7087 -1.0254
  115MOL    H8923117   5.239   6.420   2.732  0.5574 -0.8153 -0.6550
  115MOL    H9023118   5.312   6.578   2.734  2.5602  0.4465 -0.7491
  115MOL    H9123119   5.417   6.442   2.718 -0.9749 -2.1170  1.0711
  115MOL    C9223120   5.449   6.368   3.090  0.3167  0.3065  0.5499
  115MOL    C9323121   5.567   6.461   3.087  0.5418 -0.8927 -0.3045
  115MOL    O9423122   5.599   6.461   3.225 -0.4746  0.4595 -0.4734
  115MOL    C9523123   5.676   6.571   3.265  0.4214 -0.4368  0.2865
  115MOL    H9623124   5.472   6.274   3.139  0.4796 -0.1256 -0.3393
  115MOL    H9723125   5.371   6.418   3.149 -0.8848 -0.6406 -0.2146
  115MOL    H9823126   5.545   6.564   3.057 -0.2607 -0.9115  0.2146
  115MOL    H9923127   5.640   6.658   3.211  0.7195 -0.8577 -0.6026
  115MOL   H10023128   5.686   6.591   3.372 -0.3187 -1.7387  0.6130
  115MOL   H10123129   5.781   6.561   3.236  0.3360 -2.6901  0.6664
  115MOL   C10223130   5.692   6.412   3.008 -0.6543  1.0447  0.2761
  115MOL   C10323131   5.711   6.479   2.871  0.1522 -0.5153 -0.2769
  115MOL   O10423132   5.751   6.618   2.892 -0.2539 -0.3514  0.2046
  115MOL   C10523133   5.709   6.699   2.783 -0.5402  0.0752 -0.6010
  115MOL   H10623134   5.684   6.305   2.990 -0.4335  1.4114 -2.1237
  115MOL   H10723135   5.784   6.436   3.061 -0.4758 -0.0336  0.4532
  115MOL   H10823136   5.611   6.476   2.829 -0.1311 -2.6192  0.4550
  115MOL   H10923137   5.753   6.799   2.784  0.4263 -0.3368  0.7491
  115MOL   H11023138   5.756   6.654   2.696 -2.5629  0.9385 -2.1654
  115MOL   H11123139   5.602   6.700   2.766 -0.4785  0.3832 -0.9664
  115MOL   C11223140   5.803   6.389   2.779 -0.4674  0.1923  0.0174
  115MOL   C11323141   5.948   6.402   2.812  0.3500  0.1347  0.1222
  115MOL   O11423142   5.979   6.303   2.903 -0.0731 -0.1451  0.1835
  115MOL   C11523143   6.053   6.336   3.020 -0.3432 -0.2075 -0.4621
  115MOL   H11623144   5.796   6.425   2.676  2.7631  2.2211  0.4252
  115MOL   H11723145   5.764   6.288   2.769  1.1585 -0.5020  0.5649
  115MOL   H11823146   5.972   6.504   2.844  0.6731  0.0462  0.1688
  115MOL   H11923147   6.153   6.292   3.017 -0.0581  0.5133 -3.0404
  115MOL   H12023148   6.058   6.444   3.030  2.0716 -0.0922 -2.4970
  115MOL   H12123149   6.009   6.295   3.111  0.2756  0.9260  0.3438
  115MOL   C12223150   6.033   6.357   2.690 -1.0420  0.0182  0.3132
  115MOL   C12323151   6.179   6.334   2.724 -0.3349  0.4124  0.5580
  115MOL   O12423152   6.248   6.290   2.608  0.6891 -0.2853  0.4621
  115MOL   C12523153   6.285   6.158   2.616 -0.0760  0.3998  0.3370
  115MOL   H12623154   6.035   6.440   2.618  0.4076  0.8141  1.2591
  115MOL   H12723155   5.989   6.273   2.636 -1.1986 -1.1682  2.2473
  115MOL   H12823156   6.187   6.257   2.800  1.6038  0.8480  0.8266
  115MOL   H12923157   6.191   6.101   2.613 -0.6402  1.3498 -0.3500
  115MOL   H13023158   6.336   6.142   2.521 -1.1027 -0.5725 -0.0696
  115MOL   H13123159   6.348   6.128   2.700  0.6420  0.5090 -0.1700
  115MOL   C13223160   6.249   6.470   2.757  0.3598 -0.6620 -0.4117
  115MOL   C13323161   6.378   6.447   2.841 -0.3521  0.5383  0.5104
  115MOL   O13423162   6.470   6.383   2.756 -0.7208 -0.4585 -0.4397
  115MOL   C13523163   6.570   6.302   2.821 -0.1803  0.1225  0.5773
  115MOL   H13623164   6.182   6.533   2.816 -0.5662 -1.3808 -0.6898
  115MOL   H13723165   6.261   6.527   2.665 -0.2259 -0.1812 -0.1980
  115MOL   H13823166   6.344   6.379   2.918  0.2879 -0.0361  0.2900
  115MOL   H13923167   6.507   6.236   2.880 -1.7327  1.0926  0.0327
  115MOL   H14023168   6.632   6.242   2.754  0.1510  2.7287 -1.5327
  115MOL   H14123169   6.638   6.368   2.875 -1.0002  0.6526  0.9640
  115MOL   C14223170   6.446   6.582   2.889  0.2278  0.6220  0.3555
  115MOL   C14323171   6.362   6.694   2.961 -0.3449 -0.3393  0.2386
  115MOL   O14423172   6.282   6.633   3.066 -0.5688 -0.6605 -0.1100
  115MOL   C14523173   6.162   6.702   3.089  0.2323  0.0691 -0.4987
  115MOL   H14623174   6.491   6.630   2.802 -1.5207 -0.3244 -1.1242
  115MOL   H14723175   6.529   6.566   2.958 -0.5772  0.8242  1.3874
  115MOL   H14823176   6.298   6.736   2.883  3.2730  0.6914 -2.2826
  115MOL   H14923177   6.111   6.716   2.994  1.8879 -0.8775 -1.5535
  115MOL   H15023178   6.092   6.646   3.151 -0.7203  0.8691 -0.8476
  115MOL   H15123179   6.176   6.791   3.151 -2.5911 -0.5544  1.1170
  115MOL   C15223180   6.447   6.813   3.020  0.4227  0.7604  0.4121
  115MOL   C15323181   6.514   6.907   2.918  0.2111  0.1117  0.3860
  115MOL   O15423182   6.406   6.956   2.843  0.3574  0.1436  0.3633
  115MOL   C15523183   6.431   6.991   2.712 -0.7438 -0.1228 -0.6098
  115MOL   H15623184   6.537   6.780   3.072  0.0514  0.9169  1.1538
  115MOL   H15723185   6.380   6.866   3.087  0.0088  1.5147 -0.5871
  115MOL   H15823186   6.570   6.831   2.864 -0.6956 -0.3028  0.0240
  115MOL   H15923187   6.517   7.058   2.700 -0.7076 -0.0634 -0.0358
  115MOL   H16023188   6.448   6.894   2.665 -0.2341 -0.2160 -0.2433
  115MOL   H16123189   6.341   7.033   2.666  0.0287  0.9505 -1.1834
  115MOL   C16223190   6.602   7.010   2.992 -0.1062  0.2218  0.0688
  115MOL   C16323191   6.745   7.020   2.939 -0.2385  0.5854  0.2030
  115MOL   O16423192   6.801   7.146   2.962 -0.5209  0.8399  0.4514
  115MOL   C16523193   6.755   7.254   2.883 -0.0925  0.1351  0.3399
  115MOL   H16623194   6.611   6.988   3.098 -0.4920 -0.3872 -0.0245
  115MOL   H16723195   6.565   7.111   3.008  1.5801  0.7048  1.0683
  115MOL   H16823196   6.750   7.019   2.830  0.7211  0.0177  0.2423
  115MOL   H16923197   6.820   7.329   2.928  0.5585 -1.2912  1.7892
  115MOL   H17023198   6.782   7.243   2.778  1.9960  1.8375  0.6566
  115MOL   H17123199   6.656   7.296   2.901 -0.0361  0.7985 -0.7928
  115MOL   C17223200   6.840   6.915   2.981 -1.0798  0.3881  0.0610
  115MOL   C17323201   6.836   6.783   2.910  0.2306  0.2922  0.3981
  115MOL   O17423202   6.865   6.810   2.775 -0.3165 -0.3263  0.0347
  115MOL   C17523203   6.778   6.747   2.688  0.8657 -0.0632 -0.0800
  115MOL   H17623204   6.829   6.905   3.089 -1.5377 -0.0822 -0.0237
  115MOL   H17723205   6.940   6.954   2.962 -1.2274  0.2358 -1.0824
  115MOL   H17823206   6.737   6.740   2.920  0.6223 -0.5959  0.5238
  115MOL   H17923207   6.678   6.787   2.703  0.5648 -0.9618  0.3683
  115MOL   H18023208   6.813   6.774   2.588 -2.7164  0.0818 -1.3491
  115MOL   H18123209   6.790   6.639   2.701  0.6040  0.1311  1.8550
  115MOL   C18223210   6.938   6.672   2.963 -0.7152  0.8193 -0.4590
  115MOL   C18323211   6.926   6.626   3.108 -0.2291  0.5115 -0.5217
  115MOL   O18423212   6.781   6.621   3.127  0.4640  0.1653 -0.1225
  115MOL   C18523213   6.734   6.639   3.262 -0.4721 -0.4640  0.0317
  115MOL   H18623214   7.039   6.707   2.944 -0.9703  1.2623 -1.0194
  115MOL   H18723215   6.932   6.585   2.898  0.2619 -0.0448  0.5982
  115MOL   H18823216   6.959   6.707   3.173  1.1439 -0.6673  0.2898
  115MOL   H18923217   6.804   6.701   3.319  2.2332 -1.3118 -2.2509
  115MOL   H19023218   6.640   6.694   3.259 -0.4409 -0.5059 -2.9016
  115MOL   H19123219   6.711   6.540   3.302 -0.2898 -0.2903  0.5708
  115MOL   C19223220   6.971   6.480   3.149  0.2417  0.1837  0.1447
  115MOL   C19323221   7.115   6.438   3.120  0.3921 -0.2547 -0.2974
  115MOL   O19423222   7.215   6.513   3.185 -0.7563 -0.8695  0.4844
  115MOL   C19523223   7.311   6.582   3.108 -0.1456  0.0319  0.0464
  115MOL   H19623224   6.898   6.412   3.105 -0.4424 -0.6266  2.4955
  115MOL   H19723225   6.957   6.473   3.257  0.4782 -0.0215  0.1624
  115MOL   H19823226   7.127   6.442   3.011  0.6553  0.0244 -0.2601
  115MOL   H19923227   7.358   6.668   3.157  0.7679 -0.8287  0.6971
  115MOL   H20023228   7.390   6.520   3.064 -0.2783  0.6690 -1.1191
  115MOL   H20123229   7.259   6.626   3.023 -0.6330  0.2693  0.4616
  115MOL   H20223230   7.123   6.331   3.137 -0.8366 -0.2691  0.2391
  116MOL     C123231   5.476   4.218   6.784 -0.4398 -0.5448  0.2723
  116MOL     C223232   5.616   4.155   6.776  0.3551  0.5966 -0.4524
  116MOL     O323233   5.688   4.246   6.856 -0.4524  0.2567 -0.1166
  116MOL     C423234   5.723   4.372   6.799 -0.4689  0.0857  0.1861
  116MOL     H523235   5.467   4.316   6.737  1.3985 -1.4384 -2.0552
  116MOL     H623236   5.401   4.157   6.732 -0.2070 -2.6437  2.2911
  116MOL     H723237   5.655   4.153   6.674  3.2427 -1.4735  0.6188
  116MOL     H823238   5.799   4.359   6.722 -0.9655 -2.8082  0.1428
  116MOL     H923239   5.643   4.422   6.744  0.8056  2.0839  0.0800
  116MOL    H1023240   5.762   4.440   6.876 -1.3051  1.1790 -0.3518
  116MOL    H1123241   5.446   4.225   6.888  0.9543 -0.0766  0.6485
  116MOL    C1223242   5.613   4.006   6.824 -0.0741  0.7452 -0.7055
  116MOL    C1323243   5.754   3.941   6.839 -0.1402  1.2728  0.3174
  116MOL    O1423244   5.739   3.805   6.893 -0.6041 -0.0279 -0.4634
  116MOL    C1523245   5.711   3.808   7.033  0.0866  0.2462 -0.1242
  116MOL    H1623246   5.549   3.953   6.753  0.4146  0.0637 -0.6478
  116MOL    H1723247   5.558   4.006   6.918 -2.8553  0.8009 -2.2659
  116MOL    H1823248   5.821   3.999   6.903  0.1634 -0.5543  1.7231
  116MOL    H1923249   5.607   3.835   7.053 -0.7490 -3.2485  0.5738
  116MOL    H2023250   5.730   3.711   7.078  2.5552  0.5746 -0.3648
  116MOL    H2123251   5.779   3.880   7.079 -0.4927  0.5167  0.3069
  116MOL    C2223252   5.822   3.922   6.699 -0.6909 -0.4726 -0.9241
  116MOL    C2323253   5.963   3.861   6.697  0.0249  0.4510  0.1239
  116MOL    O2423254   6.005   3.868   6.562  0.1076 -0.4200  0.3603
  116MOL    C2523255   6.072   3.748   6.513  0.7139 -0.2015  0.0442
  116MOL    H2623256   5.821   4.024   6.659 -1.3053 -0.2995 -0.4849
  116MOL    H2723257   5.762   3.863   6.630 -1.9180 -1.8216  1.2169
  116MOL    H2823258   5.945   3.758   6.727  0.1879  0.2544 -0.4473
  116MOL    H2923259   6.154   3.723   6.580 -0.4738  1.9785  2.3866
  116MOL    H3023260   6.001   3.665   6.516 -1.5304  1.7143  0.8592
  116MOL    H3123261   6.116   3.764   6.414  1.2268 -1.0630  0.1236
  116MOL    C3223262   6.073   3.943   6.770  0.8350 -0.8048 -0.4505
  116MOL    C3323263   6.091   3.912   6.911  0.0570  0.3837 -0.4594
  116MOL    O3423264   6.140   3.779   6.917 -0.4674 -0.4842 -0.5608
  116MOL    C3523265   6.083   3.693   7.025  0.4120 -0.0006 -0.4298
  116MOL    H3623266   6.049   4.049   6.764  0.4417 -0.8645  0.0820
  116MOL    H3723267   6.169   3.929   6.721 -0.1344 -0.7321 -2.4023
  116MOL    H3823268   6.002   3.930   6.972  0.3406  1.9145 -0.4795
  116MOL    H3923269   5.976   3.675   7.019  0.3971 -0.2682  0.5295
  116MOL    H4023270   6.115   3.590   7.012  3.3335  0.9751 -1.4904
  116MOL    H4123271   6.111   3.720   7.127 -0.2794 -1.8189  0.2534
  116MOL    C4223272   6.219   3.988   6.966  0.3527 -0.1450  0.0891
  116MOL    C4323273   6.191   4.137   6.973  0.3058 -0.0831 -0.1769
  116MOL    O4423274   6.083   4.151   7.064 -0.2226  0.1817 -0.6730
  116MOL    C4523275   6.002   4.264   7.042 -0.0073 -0.0640  0.1859
  116MOL    H4623276   6.316   3.973   6.920 -0.8576 -1.5403 -2.0742
  116MOL    H4723277   6.229   3.949   7.068  1.2028 -1.4579 -0.4760
  116MOL    H4823278   6.168   4.166   6.870 -1.1745 -2.5799 -0.5752
  116MOL    H4923279   6.047   4.361   7.023 -1.1531  0.6842  1.1452
  116MOL    H5023280   5.943   4.241   6.954 -0.0516  0.1239  0.1647
  116MOL    H5123281   5.937   4.277   7.130  1.2006  0.5711  0.9970
  116MOL    C5223282   6.316   4.222   7.019  0.0994 -0.0617 -0.0947
  116MOL    C5323283   6.427   4.233   6.911 -0.0498  0.0812  0.0191
  116MOL    O5423284   6.365   4.265   6.792 -0.3697  0.3030 -0.0260
  116MOL    C5523285   6.406   4.184   6.678  0.0215  0.1447 -0.2647
  116MOL    H5623286   6.361   4.194   7.115 -0.4676 -0.4635  0.0551
  116MOL    H5723287   6.281   4.324   7.035 -0.7308  0.1556 -3.0941
  116MOL    H5823288   6.476   4.136   6.905 -1.2742 -0.4674 -1.2060
  116MOL    H5923289   6.361   4.086   6.692 -0.1698 -0.0444 -2.0636
  116MOL    H6023290   6.370   4.223   6.583  0.2866 -1.8049 -1.1925
  116MOL    H6123291   6.513   4.166   6.669  0.8099  3.8340  1.1207
  116MOL    C6223292   6.536   4.350   6.928  0.8679 -0.3113  0.3923
  116MOL    C6323293   6.629   4.354   7.053 -0.6900 -0.4207 -0.3604
  116MOL    O6423294   6.695   4.220   7.052 -0.8599 -0.4265  0.0125
  116MOL    C6523295   6.745   4.189   7.176 -0.5488  0.3111  0.2011
  116MOL    H6623296   6.473   4.439   6.920  1.1127 -0.1655  0.1089
  116MOL    H6723297   6.605   4.333   6.846  0.1913 -0.1077 -0.2299
  116MOL    H6823298   6.570   4.362   7.145 -0.3760  3.4660 -0.3933
  116MOL    H6923299   6.784   4.087   7.167  2.4581  1.5499 -1.9135
  116MOL    H7023300   6.835   4.244   7.204 -0.9319  0.8077  0.4471
  116MOL    H7123301   6.670   4.193   7.254  0.8886  1.0202  1.5869
  116MOL    C7223302   6.732   4.462   7.060 -0.6204  0.1699 -0.5229
  116MOL    C7323303   6.726   4.593   6.973  0.2481  0.4545  0.9860
  116MOL    O7423304   6.608   4.656   7.003  0.6765 -0.0432  0.6989
  116MOL    C7523305   6.543   4.729   6.896  0.0216  0.1257  0.9396
  116MOL    H7623306   6.829   4.418   7.041 -0.5752 -0.8716  1.9313
  116MOL    H7723307   6.751   4.491   7.163 -0.4224  0.8828 -0.7575
  116MOL    H7823308   6.743   4.565   6.869  0.3058  3.0948  0.2241
  116MOL    H7923309   6.462   4.796   6.926  0.8910  1.8297 -0.4212
  116MOL    H8023310   6.613   4.793   6.841 -1.2538  1.9837  1.4171
  116MOL    H8123311   6.513   4.649   6.829 -1.1303  0.1544  1.4181
  116MOL    C8223312   6.850   4.692   6.998  0.8108  0.6624  0.7355
  116MOL    C8323313   6.972   4.660   6.911  1.0947 -0.1464  0.1099
  116MOL    O8423314   7.007   4.770   6.824  0.2970  0.0868 -0.0421
  116MOL    C8523315   6.924   4.770   6.703  0.5037 -0.4194  0.0289
  116MOL    H8623316   6.887   4.681   7.100  0.6842  0.4077  0.7573
  116MOL    H8723317   6.830   4.796   6.971 -0.4721  0.3081  0.2653
  116MOL    H8823318   6.943   4.580   6.842 -1.7490  2.4048 -1.7961
  116MOL    H8923319   6.954   4.693   6.632  1.4525 -0.7617  0.7972
  116MOL    H9023320   6.819   4.756   6.731  0.3192  0.1343 -0.3790
  116MOL    H9123321   6.941   4.865   6.653  2.7170 -0.5824  0.4283
  116MOL    C9223322   7.100   4.624   6.987  0.0160  0.3279 -0.2869
  116MOL    C9323323   7.214   4.543   6.909 -0.1395  0.0060 -0.1337
  116MOL    O9423324   7.324   4.552   6.984  0.1642 -0.6058 -0.0677
  116MOL    C9523325   7.378   4.680   6.988  0.1485  0.9563  0.3161
  116MOL    H9623326   7.058   4.558   7.062  0.3553 -0.5681 -0.8857
  116MOL    H9723327   7.135   4.707   7.048 -0.0297  0.3133 -0.2403
  116MOL    H9823328   7.240   4.577   6.809  1.4395  0.2852  0.3587
  116MOL    H9923329   7.417   4.697   7.088 -2.1886 -0.4895  1.5168
  116MOL   H10023330   7.452   4.693   6.908 -1.5649  0.1230 -1.4444
  116MOL   H10123331   7.306   4.761   6.978 -0.6891  0.1837  0.0976
  116MOL   C10223332   7.190   4.395   6.895  0.1619  0.1818  0.2148
  116MOL   C10323333   7.282   4.317   6.794 -0.0540  0.7364 -0.6821
  116MOL   O10423334   7.268   4.179   6.811  0.2362 -0.4070  0.2096
  116MOL   C10523335   7.352   4.122   6.916 -0.1182 -0.2896  0.3303
  116MOL   H10623336   7.086   4.378   6.869  0.6605 -1.3982 -0.8146
  116MOL   H10723337   7.202   4.357   6.996  0.1061 -2.5747 -0.7694
  116MOL   H10823338   7.385   4.340   6.824 -0.1613  1.3531 -0.7829
  116MOL   H10923339   7.457   4.138   6.893  0.1956 -0.8787  1.3156
  116MOL   H11023340   7.346   4.181   7.007  0.3873  1.8410 -0.9830
  116MOL   H11123341   7.329   4.016   6.932  1.9435 -0.6455  1.1323
  116MOL   C11223342   7.272   4.339   6.644 -0.7370 -0.6644 -0.1336
  116MOL   C11323343   7.138   4.300   6.585 -0.3849 -0.4712 -0.4281
  116MOL   O11423344   7.050   4.411   6.595 -0.4175 -0.0143  0.5187
  116MOL   C11523345   6.917   4.366   6.632 -0.3347  0.0539  0.1393
  116MOL   H11623346   7.350   4.280   6.597 -0.1852  1.3023 -1.7843
  116MOL   H11723347   7.303   4.441   6.622 -0.1046 -0.8359 -0.0390
  116MOL   H11823348   7.107   4.214   6.645 -0.7204  0.8716  1.3367
  116MOL   H11923349   6.922   4.287   6.708 -4.6531 -0.9937 -0.5238
  116MOL   H12023350   6.852   4.441   6.678  2.3269  2.7592 -0.4074
  116MOL   H12123351   6.862   4.310   6.557  1.2787  0.7600 -1.5981
  116MOL   C12223352   7.149   4.242   6.442  0.2221  0.3892 -0.1619
  116MOL   C12323353   7.214   4.331   6.331 -0.4315  0.2649 -0.6814
  116MOL   O12423354   7.266   4.243   6.229 -0.4876  0.1996  0.2052
  116MOL   C12523355   7.410   4.228   6.232 -0.1222  0.5617 -0.0581
  116MOL   H12623356   7.051   4.203   6.414 -0.0597  1.0711 -0.1609
  116MOL   H12723357   7.218   4.159   6.451 -1.5890 -1.3279 -1.6181
  116MOL   H12823358   7.290   4.393   6.379  1.0827 -2.0440 -0.0216
  116MOL   H12923359   7.467   4.310   6.188  1.7677 -1.2993 -1.1621
  116MOL   H13023360   7.452   4.220   6.333 -0.4109  2.9807  0.2844
  116MOL   H13123361   7.447   4.134   6.192  0.7802  1.1833 -0.6950
  116MOL   C13223362   7.103   4.425   6.274 -0.3000 -0.2117 -0.1668
  116MOL   C13323363   7.159   4.526   6.176 -0.0697  0.0412 -0.4569
  116MOL   O13423364   7.188   4.458   6.052 -0.1796  0.0124 -0.3116
  116MOL   C13523365   7.291   4.512   5.969  0.2048  0.3229 -0.3948
  116MOL   H13623366   7.056   4.476   6.359  1.2498  0.2121  0.4450
  116MOL   H13723367   7.026   4.365   6.227 -1.1922  0.0360  0.9339
  116MOL   H13823368   7.250   4.573   6.213 -0.4842 -0.9815  1.9480
  116MOL   H13923369   7.294   4.478   5.865  1.7470 -1.6612  0.2689
  116MOL   H14023370   7.285   4.621   5.958  2.2827  0.7219  1.9169
  116MOL   H14123371   7.383   4.493   6.024 -0.3857 -0.1633  0.4196
  116MOL   C14223372   7.051   4.640   6.139 -0.0743  0.7322  0.5383
  116MOL   C14323373   7.023   4.739   6.250  0.3566 -0.1480 -0.1958
  116MOL   O14423374   7.137   4.819   6.280  0.0831  0.2873  0.0348
  116MOL   C14523375   7.156   4.846   6.421  0.3105  0.0669 -0.4799
  116MOL   H14623376   6.958   4.585   6.128  0.8174 -1.1640  2.1513
  116MOL   H14723377   7.068   4.695   6.046  1.4625  0.7663  0.8214
  116MOL   H14823378   6.995   4.682   6.339  1.5071 -0.4532 -0.0241
  116MOL   H14923379   7.181   4.753   6.472  1.8214  1.0726  0.6838
  116MOL   H15023380   7.238   4.918   6.429 -0.3637  0.6861  1.0213
  116MOL   H15123381   7.071   4.893   6.470 -0.2790 -0.9109 -0.5520
  116MOL   C15223382   6.907   4.839   6.228 -0.0082 -0.4488 -0.2848
  116MOL   C15323383   6.768   4.784   6.250 -0.2312  0.1822  1.3324
  116MOL   O15423384   6.733   4.702   6.136 -0.0237  0.0041  0.3853
  116MOL   C15523385   6.603   4.728   6.085 -0.0223 -0.1830 -0.1277
  116MOL   H15623386   6.927   4.893   6.136 -0.7217  1.5713  0.7148
  116MOL   H15723387   6.907   4.913   6.308  1.3363 -1.3909  0.6180
  116MOL   H15823388   6.708   4.873   6.227 -1.0703 -0.4562  1.0017
  116MOL   H15923389   6.601   4.816   6.019  1.9002 -1.3783 -1.8719
  116MOL   H16023390   6.561   4.640   6.036 -0.0419  0.1534 -0.7289
  116MOL   H16123391   6.546   4.760   6.171  1.1663  0.2182  0.5304
  116MOL   C16223392   6.740   4.717   6.383  0.8549 -0.1813  0.7299
  116MOL   C16323393   6.601   4.669   6.415 -0.9729  0.3984  0.0058
  116MOL   O16423394   6.615   4.592   6.530 -0.4799 -0.0839  0.1003
  116MOL   C16523395   6.616   4.447   6.510  0.0713 -0.3180 -0.1534
  116MOL   H16623396   6.765   4.775   6.472 -1.7431 -0.0602  1.4294
  116MOL   H16723397   6.809   4.633   6.394  2.6665  1.1775  0.0103
  116MOL   H16823398   6.567   4.604   6.335  1.6936 -2.9581  1.4711
  116MOL   H16923399   6.641   4.401   6.606  0.8126  1.1331  0.3618
  116MOL   H17023400   6.513   4.415   6.493 -0.3406  0.9810 -0.2280
  116MOL   H17123401   6.698   4.412   6.448 -0.4624 -0.9529 -0.5098
  116MOL   C17223402   6.495   4.772   6.449  0.3905  0.5722  0.7604
  116MOL   C17323403   6.355   4.711   6.471 -0.5313  0.1535  0.4403
  116MOL   O17423404   6.273   4.808   6.527  0.8759 -0.1995  0.1487
  116MOL   C17523405   6.212   4.771   6.651  0.4698 -0.7108 -0.9215
  116MOL   H17623406   6.488   4.844   6.368  0.0331 -2.2236 -1.7992
  116MOL   H17723407   6.522   4.832   6.536 -0.4566 -0.0753  1.4784
  116MOL   H17823408   6.361   4.624   6.536  2.6844 -0.3800 -0.4885
  116MOL   H17923409   6.116   4.818   6.672  0.5403  0.4931 -3.0841
  116MOL   H18023410   6.184   4.666   6.646 -2.5690 -0.1561  2.3921
  116MOL   H18123411   6.271   4.785   6.741  1.1940 -0.7143 -1.3891
  116MOL   C18223412   6.284   4.672   6.337 -1.1322 -0.0108 -0.5398
  116MOL   C18323413   6.150   4.600   6.353  0.2064 -0.2027  0.7594
  116MOL   O18423414   6.073   4.614   6.231 -0.0966 -0.2800 -0.6424
  116MOL   C18523415   5.978   4.720   6.238 -0.5570 -0.1870 -0.3346
  116MOL   H18623416   6.341   4.601   6.278 -0.1090  0.2521  0.1314
  116MOL   H18723417   6.260   4.767   6.289  0.3671  1.2432  1.1387
  116MOL   H18823418   6.089   4.631   6.438 -1.5592 -0.1315 -0.5241
  116MOL   H18923419   6.016   4.814   6.278 -0.4688  0.1724 -1.2460
  116MOL   H19023420   5.920   4.736   6.146 -0.2050 -0.3096 -0.5792
  116MOL   H19123421   5.906   4.685   6.312 -0.4265  0.5632  0.1407
  116MOL   C19223422   6.162   4.447   6.379  0.3930 -0.0851 -0.9783
  116MOL   C19323423   6.032   4.399   6.448 -0.7705  0.8903 -0.1550
  116MOL   O19423424   6.016   4.471   6.568 -0.4426  0.1508  0.3711
  116MOL   C19523425   6.060   4.406   6.692 -0.2324  0.0186  0.3890
  116MOL   H19623426   6.247   4.412   6.438  2.2236 -0.0047 -3.4590
  116MOL   H19723427   6.168   4.391   6.285  2.4082 -0.1873 -0.8286
  116MOL   H19823428   6.038   4.294   6.475  1.2987  0.5580 -1.7269
  116MOL   H19923429   6.168   4.399   6.700 -0.2745  0.3041  1.2539
  116MOL   H20023430   6.018   4.447   6.784  2.6368  0.0245  1.7413
  116MOL   H20123431   6.019   4.305   6.691  2.2189 -1.0119  1.2038
  116MOL   H20223432   5.947   4.419   6.383 -1.0456  1.5478  0.4016
  117MOL     C123433   2.542   5.353   7.350  0.1573  0.1492  0.4519
  117MOL     C223434   2.561   5.359   7.198  0.4151  0.5460  1.0302
  117MOL     O323435   2.463   5.445   7.133 -0.3908  0.2466  0.3621
  117MOL     C423436   2.339   5.382   7.127 -0.6163 -0.0013 -0.2670
  117MOL     H523437   2.449   5.296   7.358  0.8112 -0.9948  0.0217
  117MOL     H623438   2.618   5.309   7.414  1.0608 -1.1329 -1.4550
  117MOL     H723439   2.561   5.260   7.154  0.6864 -0.6699  3.6805
  117MOL     H823440   2.344   5.277   7.101  0.1124 -0.0285 -0.0177
  117MOL     H923441   2.298   5.396   7.227 -2.8375  3.1360 -1.5356
  117MOL    H1023442   2.272   5.432   7.057  1.1294  1.8254 -0.6712
  117MOL    H1123443   2.523   5.456   7.382  0.9667  0.8578 -1.2937
  117MOL    C1223444   2.697   5.426   7.165 -0.6009 -0.3169  0.5341
  117MOL    C1323445   2.768   5.370   7.032  0.2508 -0.3653  0.0916
  117MOL    O1423446   2.888   5.443   7.027  0.1016  0.1302  0.1617
  117MOL    C1523447   2.953   5.457   6.895 -0.0155 -0.2760  0.4724
  117MOL    H1623448   2.763   5.397   7.246 -2.6587  1.7830  3.0232
  117MOL    H1723449   2.692   5.534   7.167  0.5090 -0.2763  2.7031
  117MOL    H1823450   2.715   5.397   6.941  0.9633  1.2706  0.1389
  117MOL    H1923451   3.051   5.496   6.920 -1.0171  1.4771  1.8159
  117MOL    H2023452   2.957   5.363   6.840 -1.6220 -0.9224  1.4077
  117MOL    H2123453   2.891   5.526   6.837 -0.1219 -1.2250 -0.5526
  117MOL    C2223454   2.800   5.216   7.033  0.4746  0.5133 -0.0273
  117MOL    C2323455   2.887   5.163   7.148  0.5617  1.1549 -0.2674
  117MOL    O2423456   2.789   5.116   7.247  0.0027  0.3591  0.3766
  117MOL    C2523457   2.835   5.118   7.379 -0.4095  1.1924 -0.4252
  117MOL    H2623458   2.855   5.190   6.941 -0.8028 -1.5477 -0.2455
  117MOL    H2723459   2.708   5.157   7.031  0.5752  0.2152  2.7616
  117MOL    H2823460   2.952   5.237   7.194 -1.2805  1.7330  1.4448
  117MOL    H2923461   2.878   5.213   7.412  1.0926  0.9931 -1.7440
  117MOL    H3023462   2.748   5.102   7.442  2.2550 -0.9000  2.8594
  117MOL    H3123463   2.911   5.040   7.377  0.6615  2.2188 -0.5312
  117MOL    C3223464   2.975   5.039   7.112  0.6701 -0.3501 -0.0111
  117MOL    C3323465   3.087   5.043   7.003 -0.2466 -0.2602 -0.0398
  117MOL    O3423466   3.048   5.042   6.862  0.1970  0.3001  0.0986
  117MOL    C3523467   3.136   4.961   6.782 -0.5902  0.4783 -0.8829
  117MOL    H3623468   2.917   4.952   7.083  0.8811 -0.5264  0.0968
  117MOL    H3723469   3.026   5.004   7.201  2.4554  0.4691 -0.6808
  117MOL    H3823470   3.153   4.958   7.024  1.1569  0.7592 -0.2373
  117MOL    H3923471   3.238   4.993   6.803 -1.0728  0.6970  1.3252
  117MOL    H4023472   3.117   4.854   6.796 -0.4787  0.2993 -2.0868
  117MOL    H4123473   3.113   4.988   6.679  0.5670  0.5718 -1.1210
  117MOL    C4223474   3.167   5.180   7.007 -0.2062 -0.4601 -0.2087
  117MOL    C4323475   3.264   5.172   7.134  0.3338  0.0577 -0.3907
  117MOL    O4423476   3.367   5.086   7.082 -0.0591 -0.5771  0.3501
  117MOL    C4523477   3.439   5.021   7.185 -0.7306  0.0630  0.3364
  117MOL    H4623478   3.100   5.261   7.036 -0.1728 -1.2267  2.0929
  117MOL    H4723479   3.208   5.215   6.912  1.4022 -1.1608  0.2051
  117MOL    H4823480   3.205   5.118   7.209 -1.3322  0.3500 -1.4720
  117MOL    H4923481   3.503   4.944   7.143  0.8265  2.2860 -1.4156
  117MOL    H5023482   3.494   5.080   7.258  1.6370  0.0814 -1.4132
  117MOL    H5123483   3.376   4.966   7.256 -0.7331 -0.2984  0.0522
  117MOL    C5223484   3.310   5.310   7.186 -0.1147  0.3343 -0.5746
  117MOL    C5323485   3.211   5.379   7.287  0.1702  0.9395 -0.3458
  117MOL    O5423486   3.252   5.332   7.417 -0.5135  0.1488  0.1255
  117MOL    C5523487   3.227   5.196   7.450 -0.1458 -0.0489 -0.0116
  117MOL    H5623488   3.323   5.374   7.099  0.8580  1.0225  0.0556
  117MOL    H5723489   3.409   5.295   7.230  1.2008  1.9466 -2.8553
  117MOL    H5823490   3.107   5.350   7.270  0.6832 -2.1719  1.4461
  117MOL    H5923491   3.211   5.193   7.557 -0.0569 -1.9859 -0.0363
  117MOL    H6023492   3.133   5.157   7.410 -2.0457  4.5197 -0.2605
  117MOL    H6123493   3.316   5.139   7.423  1.3054  2.1738 -0.0580
  117MOL    C6223494   3.223   5.525   7.288 -0.0454  0.0157 -0.6954
  117MOL    C6323495   3.155   5.590   7.416 -0.4252 -0.3189 -0.0337
  117MOL    O6423496   3.165   5.731   7.404 -0.3223 -0.5406  0.1312
  117MOL    C6523497   3.268   5.797   7.481  0.1221 -0.6086  0.6491
  117MOL    H6623498   3.169   5.551   7.197 -2.1036 -2.1713 -0.1479
  117MOL    H6723499   3.328   5.555   7.289  0.2688 -0.9933  2.0681
  117MOL    H6823500   3.205   5.545   7.502  0.9315 -1.5709 -1.4447
  117MOL    H6923501   3.314   5.875   7.419  1.0431  0.1915  2.2999
  117MOL    H7023502   3.233   5.849   7.570 -2.2640 -0.7136 -0.1725
  117MOL    H7123503   3.336   5.719   7.512 -0.6702 -1.4212  0.3733
  117MOL    C7223504   3.006   5.551   7.426 -0.6026 -0.7507  0.3925
  117MOL    C7323505   2.942   5.608   7.559  0.0690 -0.6477 -0.5336
  117MOL    O7423506   2.806   5.630   7.534  0.1036  0.0512  0.3032
  117MOL    C7523507   2.741   5.729   7.617  0.1685  0.1392 -0.5284
  117MOL    H7623508   2.988   5.444   7.433  1.3180 -1.0262  1.6657
  117MOL    H7723509   2.963   5.593   7.336  1.4628 -0.1476 -0.3452
  117MOL    H7823510   2.982   5.708   7.573 -0.3397 -0.5783  0.1240
  117MOL    H7923511   2.749   5.716   7.725  0.2552  1.4783 -0.3720
  117MOL    H8023512   2.779   5.827   7.588 -0.5615  0.5595 -0.0869
  117MOL    H8123513   2.632   5.731   7.614  0.1585  2.2499  0.2528
  117MOL    C8223514   2.971   5.535   7.694 -0.3407 -0.2301 -0.9454
  117MOL    C8323515   3.075   5.599   7.788 -0.3312  0.1752 -0.7724
  117MOL    O8423516   3.023   5.719   0.032  0.2058 -0.1229  0.1293
  117MOL    C8523517   3.110   5.810   0.088  0.1079 -1.2060  0.0702
  117MOL    H8623518   2.998   5.431   7.673  0.4015  0.1304 -1.8388
  117MOL    H8723519   2.889   5.521   7.764  0.5179  0.9048  0.2993
  117MOL    H8823520   3.161   5.624   7.726  0.0518  0.6036 -0.0699
  117MOL    H8923521   3.057   5.905   0.098  0.3039 -1.1656  0.7780
  117MOL    H9023522   3.140   5.789   0.191  2.2857  1.2550 -0.0271
  117MOL    H9123523   3.195   5.833   0.025 -0.6372 -0.8604 -0.8128
  117MOL    C9223524   3.105   5.505   0.097 -0.0428  0.5788  0.4201
  117MOL    C9323525   3.237   5.419   0.076 -0.7125 -0.2388  0.2820
  117MOL    O9423526   3.344   5.510   0.079  0.6167 -0.4530  0.1566
  117MOL    C9523527   3.469   5.456   0.036  0.3267  0.3921 -0.7384
  117MOL    H9623528   3.013   5.447   0.109 -0.7001  1.4980 -0.1126
  117MOL    H9723529   3.108   5.557   0.193  2.1410 -1.0581  1.2664
  117MOL    H9823530   3.233   5.368   7.790  0.6592  1.4749 -0.6995
  117MOL    H9923531   3.513   5.407   0.123 -1.8970  0.3091  0.3806
  117MOL   H10023532   3.462   5.389   7.761 -1.6777  0.3284 -0.5661
  117MOL   H10123533   3.539   5.531   0.000  0.6960  0.4715  0.1243
  117MOL   C10223534   3.259   5.309   0.181 -1.3116 -0.1476 -0.4343
  117MOL   C10323535   3.181   5.184   0.146 -0.3317  0.1403 -0.2362
  117MOL   O10423536   3.234   5.120   0.029  0.4197  0.1556  0.2472
  117MOL   C10523537   3.151   5.029   7.780 -0.5306  0.2586 -0.2256
  117MOL   H10623538   3.238   5.357   0.277  2.0172  0.9026 -0.1560
  117MOL   H10723539   3.361   5.271   0.172 -0.9392 -0.2024  3.2905
  117MOL   H10823540   3.081   5.219   0.122  0.2225 -0.2181 -3.1689
  117MOL   H10923541   3.060   5.078   7.747  0.6494  1.7083 -1.4059
  117MOL   H11023542   3.191   4.990   7.686 -1.0062  1.1753 -0.8101
  117MOL   H11123543   3.110   4.946   0.027  2.7551 -0.8397  0.6416
  117MOL   C11223544   3.184   5.089   0.274 -0.4804 -0.3781 -0.2568
  117MOL   C11323545   3.082   5.129   0.393  0.1770  0.9945 -0.1302
  117MOL   O11423546   2.957   5.166   0.334 -0.1042 -0.5255  0.7761
  117MOL   C11523547   2.894   5.286   0.383  0.1721 -0.1535 -0.0979
  117MOL   H11623548   3.288   5.082   0.307 -0.4672 -0.6405 -0.3528
  117MOL   H11723549   3.155   4.989   0.242 -1.5437 -0.5635  1.2502
  117MOL   H11823550   3.129   5.200   0.460 -1.0842  0.9468  0.8211
  117MOL   H11923551   2.811   5.320   0.322  1.0510  1.5784 -0.3492
  117MOL   H12023552   2.863   5.266   0.485 -2.0573 -1.1147 -0.9310
  117MOL   H12123553   2.966   5.367   0.395  1.1337 -1.0219  0.0603
  117MOL   C12223554   3.046   5.004   0.469 -0.0867  0.1101  0.6092
  117MOL   C12323555   3.160   4.945   0.558  0.7771 -0.5735 -0.1273
  117MOL   O12423556   3.201   5.044   0.662 -0.0023 -0.4101  0.0518
  117MOL   C12523557   3.336   5.095   0.648 -0.7533 -0.2947  0.1580
  117MOL   H12623558   2.995   4.928   0.410 -2.8150  2.9627 -0.8183
  117MOL   H12723559   2.966   5.044   0.532 -1.9613 -3.2073  0.4220
  117MOL   H12823560   3.247   4.921   0.497 -0.6598 -1.4164 -1.8957
  117MOL   H12923561   3.403   5.009   0.650 -2.9357 -2.0327 -0.0677
  117MOL   H13023562   3.343   5.147   0.552 -0.6092 -0.2100  0.2138
  117MOL   H13123563   3.355   5.166   0.730 -2.2404  0.9290 -0.5253
  117MOL   C13223564   3.116   4.826   0.641  0.2615 -0.4172  0.8251
  117MOL   C13323565   3.089   4.700   0.556  0.2500 -0.1981  0.1868
  117MOL   O13423566   3.200   4.691   0.466 -0.1614  0.6298  0.1429
  117MOL   C13523567   3.179   4.606   0.355  0.1064  0.1661  0.3188
  117MOL   H13623568   3.031   4.849   0.706  0.0972 -1.3728  0.9602
  117MOL   H13723569   3.200   4.810   0.708 -0.5141  0.9907  2.1924
  117MOL   H13823570   3.002   4.714   0.492  0.1250  0.5230  0.5106
  117MOL   H13923571   3.115   4.662   0.286  0.0819 -0.3921 -0.1167
  117MOL   H14023572   3.267   4.584   0.294 -0.5207 -2.6967  0.3541
  117MOL   H14123573   3.134   4.511   0.384 -1.3428  1.2393  1.6788
  117MOL   C14223574   3.080   4.567   0.634  0.0481 -0.4343 -0.2170
  117MOL   C14323575   2.977   4.579   0.753  0.2273 -0.0492  0.8319
  117MOL   O14423576   2.858   4.648   0.711 -0.5588  0.0371  0.4966
  117MOL   C14523577   2.782   4.574   0.613 -1.0953 -0.3174 -0.0942
  117MOL   H14623578   3.178   4.538   0.670  1.0451  0.2951 -2.2917
  117MOL   H14723579   3.051   4.481   0.573  0.3955 -1.6348  1.2787
  117MOL   H14823580   3.028   4.647   0.821  0.8538 -0.3779  0.6957
  117MOL   H14923581   2.849   4.562   0.528  1.5029  1.4434  1.6320
  117MOL   H15023582   2.736   4.485   0.656 -0.2181 -0.3050  0.8901
  117MOL   H15123583   2.700   4.633   0.571  1.2709  1.3634 -2.5638
  117MOL   C15223584   2.938   4.444   0.820  0.1245 -0.0271 -0.5007
  117MOL   C15323585   3.036   4.380   0.924  0.8600  0.4460  1.2425
  117MOL   O15423586   3.055   4.475   1.030 -0.5342 -0.2647 -0.0453
  117MOL   C15523587   3.189   4.530   1.041  0.5435 -0.6132 -0.2270
  117MOL   H15623588   2.916   4.370   0.743  3.0493 -1.6494  0.1556
  117MOL   H15723589   2.849   4.467   0.878  1.6605 -3.7982  3.6953
  117MOL   H15823590   3.131   4.348   0.882  0.6500  2.1962 -0.6743
  117MOL   H15923591   3.189   4.610   1.115 -1.0060 -0.5116 -0.3269
  117MOL   H16023592   3.259   4.449   1.061  0.7128 -0.8678 -1.8549
  117MOL   H16123593   3.212   4.564   0.940  0.3205  0.6547  0.1357
  117MOL   C16223594   2.963   4.260   0.990 -0.3535  0.4417  0.1477
  117MOL   C16323595   3.048   4.183   1.083  0.3444  0.2988 -0.3246
  117MOL   O16423596   2.953   4.107   1.153 -0.0431  0.2867 -0.2794
  117MOL   C16523597   2.954   4.097   1.295 -0.1147 -0.0486 -0.5975
  117MOL   H16623598   2.931   4.186   0.917 -0.2735  1.8550 -1.3286
  117MOL   H16723599   2.879   4.288   1.054  0.6101 -0.7761  1.9848
  117MOL   H16823600   3.100   4.250   1.152 -0.7015  0.0479  0.7243
  117MOL   H16923601   3.031   4.026   1.326 -1.3815 -1.7410 -1.2289
  117MOL   H17023602   2.941   4.189   1.352  1.1576 -0.3286  0.1824
  117MOL   H17123603   2.868   4.034   1.317  0.0657  0.1800  0.8156
  117MOL   C17223604   3.134   4.079   1.008 -0.5970  0.1666 -0.0914
  117MOL   C17323605   3.229   4.004   1.095  0.0726 -0.2954 -0.1359
  117MOL   O17423606   3.303   3.917   1.008  0.2970  0.0880 -0.5012
  117MOL   C17523607   3.249   3.793   0.973 -0.6007 -0.4719 -0.5024
  117MOL   H17623608   3.188   4.128   0.927 -1.7394 -1.4523 -1.8863
  117MOL   H17723609   3.073   4.002   0.959 -2.5702  2.5393 -1.5214
  117MOL   H17823610   3.171   3.953   1.171 -1.1867 -0.4168 -1.1735
  117MOL   H17923611   3.160   3.808   0.911  1.2228  3.2536 -2.3783
  117MOL   H18023612   3.322   3.734   0.918  1.3770  1.7889 -0.3990
  117MOL   H18123613   3.226   3.745   1.068  0.3282 -1.0831 -0.5844
  117MOL   C18223614   3.332   4.095   1.175 -0.4907 -0.1756 -0.3088
  117MOL   C18323615   3.420   4.019   1.271 -0.5477 -0.3576 -0.0640
  117MOL   O18423616   3.528   4.097   1.306 -0.5538  0.0589 -0.0518
  117MOL   C18523617   3.653   4.035   1.269  0.0099 -0.2394 -0.9319
  117MOL   H18623618   3.287   4.177   1.231 -0.6072  0.3112 -1.1148
  117MOL   H18723619   3.401   4.153   1.115  1.8836 -1.2370  1.3300
  117MOL   H18823620   3.440   3.923   1.222  1.1885  0.3811 -0.8487
  117MOL   H18923621   3.642   4.018   1.162 -0.3062 -1.2194 -0.7490
  117MOL   H19023622   3.730   4.111   1.278 -0.3580  0.1083 -0.7187
  117MOL   H19123623   3.668   3.949   1.334  1.5167  0.7740  0.0954
  117MOL   C19223624   3.349   3.989   1.401  0.3786 -0.1710  0.0536
  117MOL   C19323625   3.414   3.882   1.480 -0.4962  0.2136  0.1946
  117MOL   O19423626   3.322   3.844   1.579 -0.2304  0.6825 -0.7001
  117MOL   C19523627   3.367   3.763   1.687 -0.7615 -0.3412 -0.1386
  117MOL   H19623628   3.245   3.960   1.381  0.4369  0.1817 -0.7669
  117MOL   H19723629   3.334   4.079   1.462  0.0925  1.9873 -3.0756
  117MOL   H19823630   3.514   3.908   1.515 -0.0442 -2.1067  0.7044
  117MOL   H19923631   3.281   3.710   1.727 -0.4826 -0.3688  0.4287
  117MOL   H20023632   3.442   3.697   1.645  0.0634 -0.7260  1.9170
  117MOL   H20123633   3.422   3.819   1.763 -0.0463 -1.9444  0.5403
  117MOL   H20223634   3.444   3.793   1.424  0.1227 -0.1526  1.0982
  118MOL     C123635   7.643   4.491   5.407  0.4540  0.0206 -0.1935
  118MOL     C223636   7.664   4.533   5.553  0.1606 -0.0828 -0.5833
  118MOL     O323637   7.661   4.414   5.636  0.2293 -0.3220 -0.2273
  118MOL     C423638   7.530   4.360   5.660 -0.6184 -0.3243 -0.9051
  118MOL     H523639   7.658   4.585   5.354  0.3877 -0.6220 -1.3747
  118MOL     H623640   7.717   4.415   5.381  0.4423 -0.4426  1.0866
  118MOL     H723641   7.584   4.605   5.571  0.5749  0.5589 -1.3192
  118MOL     H823642   7.477   4.335   5.568 -2.5895  0.5473 -0.0218
  118MOL     H923643   7.542   4.265   5.712 -1.0813  0.1079 -0.0165
  118MOL    H1023644   7.466   4.433   5.708 -0.5942 -0.4887 -0.6221
  118MOL    H1123645   7.545   4.448   5.387 -0.8609  2.2403  1.2302
  118MOL    C1223646   7.802   4.591   5.584  0.0257  0.3473 -0.5739
  118MOL    C1323647   0.022   4.624   5.731  0.3659  0.6271  0.0470
  118MOL    O1423648   0.161   4.633   5.733  0.3696 -0.3223 -0.1410
  118MOL    C1523649   0.218   4.514   5.794 -0.4052  0.1773  0.3791
  118MOL    H1623650   0.015   4.676   5.520  0.6600 -0.2643 -1.1602
  118MOL    H1723651   0.051   4.505   5.553 -0.6165 -0.4673  0.4030
  118MOL    H1823652   7.786   4.542   5.787 -1.8119  0.8064 -1.4421
  118MOL    H1923653   0.193   4.421   5.743 -2.3635  1.1571 -0.4742
  118MOL    H2023654   0.327   4.523   5.801 -0.2696  0.0597 -1.3956
  118MOL    H2123655   0.199   4.504   5.901  0.8510 -3.0630  0.3534
  118MOL    C2223656   7.775   4.765   5.786  0.0131 -0.3351  0.4783
  118MOL    C2323657   7.785   4.777   5.943  0.4103 -0.4457  0.2931
  118MOL    O2423658   7.749   4.908   5.996  0.0972  0.0414  0.5027
  118MOL    C2523659   0.035   5.009   5.966 -0.1284  0.7460 -0.0075
  118MOL    H2623660   7.674   4.787   5.752  1.1522  0.0598 -2.8666
  118MOL    H2723661   0.013   4.846   5.731 -0.2309 -0.6703 -0.2473
  118MOL    H2823662   0.078   4.764   5.975  0.9173 -0.4342 -1.2950
  118MOL    H2923663   0.136   4.975   5.987 -0.7335 -1.8486 -1.0298
  118MOL    H3023664   0.039   5.025   5.858  3.3347 -1.9213 -0.3507
  118MOL    H3123665   0.002   5.102   6.012 -1.1913  0.5228 -0.2997
  118MOL    C3223666   7.695   4.674   6.016  0.3901  0.3368 -0.3922
  118MOL    C3323667   7.712   4.661   6.165  0.1490  0.1182 -0.7100
  118MOL    O3423668   7.605   4.568   6.200 -0.0256 -0.1647 -0.0761
  118MOL    C3523669   7.509   4.620   6.291 -0.5322 -0.6406 -0.6922
  118MOL    H3623670   7.715   4.574   5.979  2.2637  0.7703 -0.6195
  118MOL    H3723671   7.591   4.697   5.992  0.3208 -0.5404 -0.9723
  118MOL    H3823672   7.697   4.763   6.201  1.2086  1.2576 -3.3766
  118MOL    H3923673   7.555   4.662   6.380 -0.3589  0.1700 -1.1586
  118MOL    H4023674   7.455   4.702   6.243  1.3336  1.1314  0.1775
  118MOL    H4123675   7.451   4.535   6.327  1.8332 -2.6910 -1.5293
  118MOL    C4223676   0.034   4.605   6.220  0.0449  0.2221 -0.1053
  118MOL    C4323677   0.085   4.633   6.363  0.3111 -0.0871 -0.2150
  118MOL    O4423678   7.810   4.555   6.456 -0.2068  0.0655  0.4182
  118MOL    C4523679   7.768   4.621   6.571 -0.5752 -0.0260 -0.2007
  118MOL    H4623680   0.109   4.654   6.158  0.2670 -1.7147 -1.4031
  118MOL    H4723681   0.042   4.500   6.192 -2.3609 -0.2428  0.8315
  118MOL    H4823682   0.065   4.738   6.381  1.4246 -0.0443  0.8811
  118MOL    H4923683   7.691   4.565   6.623  0.3677 -1.2112 -0.0569
  118MOL    H5023684   0.046   4.655   6.625 -1.5947  1.2743  0.6832
  118MOL    H5123685   7.711   4.711   6.546  1.5304  0.7985 -2.1718
  118MOL    C5223686   0.230   4.594   6.390 -0.4529  0.6326 -0.2504
  118MOL    C5323687   0.332   4.688   6.311 -0.2412  0.3285  0.6342
  118MOL    O5423688   0.335   4.824   6.353 -0.6991 -0.2214 -0.9054
  118MOL    C5523689   0.311   4.916   6.247 -0.6274  0.3596  0.1520
  118MOL    H5623690   0.243   4.488   6.373 -3.3195 -0.4506  3.6681
  118MOL    H5723691   0.258   4.596   6.495  0.2430  0.3539 -0.4273
  118MOL    H5823692   0.304   4.680   6.206  2.3212  2.0668 -0.2216
  118MOL    H5923693   0.296   5.016   6.288  0.4985  0.8279 -0.5613
  118MOL    H6023694   0.388   4.920   6.170  1.1738  0.8942  1.9334
  118MOL    H6123695   0.219   4.892   6.194  0.1384  1.1468 -1.5601
  118MOL    C6223696   0.478   4.636   6.308  0.1373  0.9042 -0.2323
  118MOL    C6323697   0.497   4.499   6.263  0.6441 -0.0636  0.7324
  118MOL    O6423698   0.431   4.489   6.140 -0.1960  0.0383 -0.6898
  118MOL    C6523699   0.394   4.354   6.116  0.0491  0.0955 -0.2426
  118MOL    H6623700   0.522   4.639   6.408 -1.8608 -0.6686  0.7431
  118MOL    H6723701   0.539   4.704   6.250  2.3834  0.3743  1.4459
  118MOL    H6823702   0.446   4.434   6.334 -0.8116  0.9038  0.5764
  118MOL    H6923703   0.295   4.332   6.155 -0.7099  0.9359 -1.6861
  118MOL    H7023704   0.391   4.334   6.009 -1.0570  1.5539 -0.4985
  118MOL    H7123705   0.463   4.283   6.162  0.1532 -0.1384 -0.7584
  118MOL    C7223706   0.646   4.458   6.237  0.0407 -0.2871  0.0261
  118MOL    C7323707   0.723   4.419   6.363 -0.3268  0.3055  0.1926
  118MOL    O7423708   0.661   4.301   6.408  0.3391  0.0288  0.2871
  118MOL    C7523709   0.679   4.283   6.548 -0.0601  0.0731  0.2122
  118MOL    H7623710   0.691   4.541   6.182 -0.7271 -0.9011 -1.5248
  118MOL    H7723711   0.663   4.372   6.172  2.8999 -1.2363  1.8777
  118MOL    H7823712   0.717   4.500   6.435  0.9703  2.3009 -1.8736
  118MOL    H7923713   0.637   4.354   6.619  0.4876 -1.2937  1.9515
  118MOL    H8023714   0.626   4.190   6.569  0.6765 -0.5171 -0.4840
  118MOL    H8123715   0.784   4.268   6.573  0.1743  0.7806 -0.3165
  118MOL    C8223716   0.875   4.398   6.338  0.2209  0.3556  0.6557
  118MOL    C8323717   0.953   4.534   6.327  0.5988 -0.4082  0.6797
  118MOL    O8423718   1.016   4.549   6.452  0.3818  0.5572  0.3515
  118MOL    C8523719   1.046   4.687   6.478  0.0895  0.0249 -0.4766
  118MOL    H8623720   0.879   4.352   6.239  1.0419 -0.3600  1.0166
  118MOL    H8723721   0.908   4.323   6.409  0.9662 -1.0482 -1.1302
  118MOL    H8823722   0.891   4.621   6.306 -0.6070 -2.0904 -3.0090
  118MOL    H8923723   1.096   4.714   6.571 -2.6233 -0.8094  1.2745
  118MOL    H9023724   1.109   4.733   6.401 -0.0515 -0.8860 -1.1514
  118MOL    H9123725   0.958   4.750   6.481 -0.4881 -0.7357 -1.1715
  118MOL    C9223726   1.062   4.524   6.222  0.4112  0.0089  0.3278
  118MOL    C9323727   1.033   4.562   6.073 -0.1573 -1.0049  0.9063
  118MOL    O9423728   0.948   4.460   6.033 -0.1706  0.3102 -0.9217
  118MOL    C9523729   0.927   4.450   5.890  0.0748 -0.3542  0.3762
  118MOL    H9623730   1.117   4.430   6.223 -1.2088 -0.9530  0.3066
  118MOL    H9723731   1.143   4.589   6.258  0.1986  0.7736 -0.5642
  118MOL    H9823732   1.127   4.565   6.018 -1.1728 -1.8657 -0.9290
  118MOL    H9923733   1.004   4.486   5.821 -0.0505  1.3229  1.0822
  118MOL   H10023734   0.908   4.345   5.867 -0.7703  0.6316 -3.7693
  118MOL   H10123735   0.841   4.512   5.867  0.6081  0.5535  0.7865
  118MOL   C10223736   0.975   4.710   6.072  0.3818  0.1789  0.5032
  118MOL   C10323737   1.006   4.791   5.951 -0.5968 -0.5066  0.1226
  118MOL   O10423738   0.952   4.920   5.980 -0.3970 -0.2767 -0.3000
  118MOL   C10523739   0.814   4.936   5.960  0.0399  0.4155 -0.3088
  118MOL   H10623740   1.022   4.767   6.153 -0.9389  0.8174  0.8394
  118MOL   H10723741   0.869   4.706   6.098  0.4984  0.2046  1.0047
  118MOL   H10823742   0.959   4.755   5.860 -1.3107  3.5679 -1.2211
  118MOL   H10923743   0.746   4.860   5.998 -0.0927  1.0358  0.7201
  118MOL   H11023744   0.778   5.031   6.000 -2.1772 -0.5856  0.1553
  118MOL   H11123745   0.788   4.933   5.854 -0.3959  0.9505 -0.2178
  118MOL   C11223746   1.154   4.820   5.936 -0.7751 -0.0507  0.1155
  118MOL   C11323747   1.200   4.852   5.786 -0.0570  0.5366  0.2948
  118MOL   O11423748   1.152   4.746   5.710  0.0720  0.2918  0.0645
  118MOL   C11523749   1.246   4.705   5.614  0.1796  0.0042  0.1324
  118MOL   H11623750   1.211   4.739   5.980 -0.0530 -0.0102 -0.7432
  118MOL   H11723751   1.187   4.902   6.000 -1.3720  0.2088  0.0984
  118MOL   H11823752   1.308   4.856   5.797 -0.3638  2.3252  3.3322
  118MOL   H11923753   1.188   4.644   5.545  1.3664  1.1422 -1.8991
  118MOL   H12023754   1.287   4.796   5.571  1.6878 -0.7060  0.0291
  118MOL   H12123755   1.328   4.640   5.644 -1.1879 -0.3267  3.3993
  118MOL   C12223756   1.149   4.979   5.740 -0.1245 -0.2965  0.1618
  118MOL   C12323757   1.209   5.107   5.805 -0.0818  0.1739 -0.2749
  118MOL   O12423758   1.352   5.100   5.775  0.0373 -0.2114 -0.1251
  118MOL   C12523759   1.423   5.183   5.870 -0.4162  0.6023  0.1247
  118MOL   H12623760   1.042   4.979   5.758 -0.5455  0.3774 -2.1772
  118MOL   H12723761   1.156   4.982   5.631  0.6095 -0.7787  0.1961
  118MOL   H12823762   1.207   5.108   5.914  2.3434 -0.2473 -0.1899
  118MOL   H12923763   1.383   5.282   5.895 -0.3723  0.3642  1.1702
  118MOL   H13023764   1.429   5.131   5.965 -2.2130  0.2565  0.0586
  118MOL   H13123765   1.521   5.192   5.824  0.8708 -1.4675  2.3273
  118MOL   C13223766   1.158   5.237   5.736 -0.1806  0.1141 -0.4017
  118MOL   C13323767   1.024   5.294   5.792  0.1678  0.0058  0.8897
  118MOL   O13423768   1.047   5.323   5.927 -0.4329 -0.2727  0.5119
  118MOL   C13523769   0.933   5.301   6.007  0.0287  0.0234  0.1836
  118MOL   H13623770   1.147   5.215   5.630 -2.4567  1.6479 -0.5286
  118MOL   H13723771   1.231   5.316   5.752  1.0826 -1.2416  0.7177
  118MOL   H13823772   0.947   5.217   5.784  0.2006 -0.1141  1.6668
  118MOL   H13923773   0.953   5.226   6.083 -0.7685  0.5956  0.9711
  118MOL   H14023774   0.894   5.393   6.051  1.4729  1.8064 -2.1396
  118MOL   H14123775   0.847   5.261   5.952  1.6306 -0.6596 -1.8914
  118MOL   C14223776   0.964   5.414   5.722 -0.7916 -0.0374  0.1881
  118MOL   C14323777   0.895   5.391   5.592  0.0304  0.6901 -0.3359
  118MOL   O14423778   0.806   5.288   5.619  0.6217  0.0756 -0.2667
  118MOL   C14523779   0.797   5.187   5.515  0.0688 -0.4061 -0.0446
  118MOL   H14623780   1.030   5.500   5.708 -0.3767 -0.2890  0.5760
  118MOL   H14723781   0.894   5.446   5.799  1.0372  0.7433  1.5757
  118MOL   H14823782   0.968   5.351   5.521  0.3881  0.6335  0.0573
  118MOL   H14923783   0.778   5.088   5.554 -0.0421  0.0258  1.0018
  118MOL   H15023784   0.728   5.208   5.432  0.2300 -1.6633 -0.5027
  118MOL   H15123785   0.896   5.166   5.474 -0.2465 -1.7359 -0.1512
  118MOL   C15223786   0.799   5.497   5.537 -0.2591 -0.5564 -0.2077
  118MOL   C15323787   0.863   5.636   5.516 -0.3127  0.6301 -0.2152
  118MOL   O15423788   0.908   5.616   5.380 -0.2091  0.3734 -0.2527
  118MOL   C15523789   1.042   5.616   5.347  0.2506 -0.1534 -0.1113
  118MOL   H15623790   0.734   5.507   5.624  1.6003 -0.1580  1.1596
  118MOL   H15723791   0.728   5.472   5.457 -0.8639  1.1048 -0.2008
  118MOL   H15823792   0.941   5.650   5.591 -1.0486 -0.2877  0.7407
  118MOL   H15923793   1.036   5.602   5.239 -0.6475  1.0426 -0.2218
  118MOL   H16023794   1.088   5.709   5.379 -0.1801  0.2274 -0.5909
  118MOL   H16123795   1.097   5.533   5.391  1.7067  0.5364 -0.6050
  118MOL   C16223796   0.778   5.761   5.522 -0.0009 -0.1456 -0.1733
  118MOL   C16323797   0.873   5.886   5.531 -0.2864 -0.2611 -0.7638
  118MOL   O16423798   0.824   5.968   5.434 -0.4883 -0.3734 -0.0520
  118MOL   C16523799   0.878   5.951   5.303 -0.3174  0.4383  0.5577
  118MOL   H16623800   0.704   5.756   5.601 -1.0371 -0.2788 -1.1342
  118MOL   H16723801   0.707   5.749   5.440 -0.0550 -2.0974  0.1309
  118MOL   H16823802   0.975   5.853   5.513 -0.7420 -2.2191  0.0881
  118MOL   H16923803   0.984   5.976   5.315 -0.2481  0.6047 -0.4039
  118MOL   H17023804   0.878   5.845   5.278  0.1882  0.7789 -0.8980
  118MOL   H17123805   0.834   6.003   5.218  0.8415  1.6231  0.6652
  118MOL   C17223806   0.865   5.968   5.672  0.2311 -0.2355  0.0748
  118MOL   C17323807   0.881   5.888   5.804 -0.8688  0.8679 -0.4630
  118MOL   O17423808   1.004   5.836   5.812  0.1282  0.1521  0.7008
  118MOL   C17523809   1.019   5.720   5.897  0.7493  0.1780  0.0649
  118MOL   H17623810   0.769   6.019   5.665  1.1122  1.5796  1.0079
  118MOL   H17723811   0.933   6.053   5.677  1.9376 -1.6310  1.1268
  118MOL   H17823812   0.803   5.811   5.799  0.8345 -0.7872 -2.0281
  118MOL   H17923813   1.116   5.673   5.880  0.3970 -0.5375  0.0124
  118MOL   H18023814   1.020   5.745   6.003  1.1271 -0.3031  0.1728
  118MOL   H18123815   0.943   5.650   5.864  1.1856  0.0724 -0.7353
  118MOL   C18223816   0.857   5.985   5.924  0.2935  0.9915  0.1604
  118MOL   C18323817   0.708   6.050   5.943 -0.5470 -0.4018 -0.1112
  118MOL   O18423818   0.617   5.939   5.973 -0.3224 -0.2719 -0.2251
  118MOL   C18523819   0.496   5.938   5.905  0.0439  0.3253  0.2458
  118MOL   H18623820   0.919   6.073   5.905 -0.4906  0.8678 -3.1976
  118MOL   H18723821   0.889   5.949   6.021 -2.2619 -1.5008  0.1270
  118MOL   H18823822   0.678   6.100   5.850 -0.0102  0.4051  0.1377
  118MOL   H18923823   0.458   5.838   5.924 -0.0898  0.2258 -0.5190
  118MOL   H19023824   0.422   6.017   5.921 -1.1482 -0.8785  0.7167
  118MOL   H19123825   0.524   5.943   5.799  0.2721 -1.5146  0.2064
  118MOL   C19223826   0.710   6.143   6.067 -0.4201  0.8133 -0.0274
  118MOL   C19323827   0.576   6.216   6.086 -0.0833  0.0177 -0.5982
  118MOL   O19423828   0.538   6.296   5.977  0.2047  0.2722  0.4809
  118MOL   C19523829   0.420   6.371   5.995 -0.3319  0.0682 -0.3028
  118MOL   H19623830   0.790   6.216   6.051  0.8305 -0.0921  1.9679
  118MOL   H19723831   0.727   6.083   6.156 -2.2593  0.5270  0.1436
  118MOL   H19823832   0.574   6.281   6.173  0.0201 -1.7058  0.7161
  118MOL   H19923833   0.394   6.440   5.914 -0.0191 -0.8288 -1.1796
  118MOL   H20023834   0.342   6.298   5.979 -0.5802  0.3042 -0.1768
  118MOL   H20123835   0.406   6.426   6.088  0.2885  1.4356 -0.9877
  118MOL   H20223836   0.495   6.144   6.098  0.1430 -0.0905  0.2633
  119MOL     C123837   3.735   0.737   6.896 -0.2985  0.4096  0.8506
  119MOL     C223838   3.889   0.766   6.897  0.3973  0.5228 -0.2831
  119MOL     O323839   3.915   0.879   6.806  0.2492  0.1488  0.1918
  119MOL     C423840   3.979   0.834   6.684  0.3336 -0.5543 -0.2515
  119MOL     H523841   3.698   0.703   6.799 -0.7963  0.8968  0.8688
  119MOL     H623842   3.734   0.652   6.965 -1.4363  0.3135  0.7205
  119MOL     H723843   3.925   0.665   6.876 -2.3812  0.0127 -2.8162
  119MOL     H823844   4.057   0.763   6.710  0.6093 -0.0031  0.4585
  119MOL     H923845   3.914   0.783   6.614 -0.2523  0.1216 -0.2156
  119MOL    H1023846   4.009   0.915   6.618 -2.1341  0.1776 -0.5555
  119MOL    H1123847   3.683   0.828   6.926 -0.7307  0.5043 -0.1731
  119MOL    C1223848   3.939   0.813   7.039  0.1927 -0.8961 -0.0329
  119MOL    C1323849   4.088   0.839   7.055  0.4680  0.7917 -0.2364
  119MOL    O1423850   4.119   0.904   7.176 -0.0607  0.0951 -0.2026
  119MOL    C1523851   4.127   1.041   7.165  0.1461 -0.4127  0.1501
  119MOL    H1623852   3.919   0.733   7.110 -1.2279 -1.6916 -1.2750
  119MOL    H1723853   3.880   0.899   7.068  1.3780  0.4585 -1.5555
  119MOL    H1823854   4.134   0.899   6.977  1.1584 -1.3622 -1.5289
  119MOL    H1923855   4.219   1.074   7.116  0.9423 -1.3529  1.0119
  119MOL    H2023856   4.044   1.076   7.104  0.4542 -1.9016 -1.1790
  119MOL    H2123857   4.128   1.086   7.264 -1.1638  0.9171 -0.4214
  119MOL    C2223858   4.167   0.705   7.043  0.4658 -0.4197 -0.0193
  119MOL    C2323859   4.322   0.716   7.073  0.2675  0.4990  0.0339
  119MOL    O2423860   4.375   0.587   7.107  0.4116  0.4123 -0.3246
  119MOL    C2523861   4.352   0.545   7.241 -0.4479  0.2802  0.3638
  119MOL    H2623862   4.142   0.660   6.947 -1.4076 -0.0939  0.2933
  119MOL    H2723863   4.121   0.625   7.101  0.1111  0.1398  0.4796
  119MOL    H2823864   4.334   0.783   7.158 -2.3789 -1.4774  2.0242
  119MOL    H2923865   4.384   0.617   7.315 -0.8426  0.6024  0.2233
  119MOL    H3023866   4.244   0.538   7.257 -0.4246 -0.8257  0.0827
  119MOL    H3123867   4.414   0.455   7.248 -0.5688  0.0615 -1.1200
  119MOL    C3223868   4.397   0.756   6.946 -0.0364 -0.0082 -0.2662
  119MOL    C3323869   4.530   0.830   6.971 -0.6725  0.0871 -0.1559
  119MOL    O3423870   4.582   0.862   6.843  0.0145 -0.1644 -0.3334
  119MOL    C3523871   4.661   0.756   6.780 -0.5381 -0.8769  0.3321
  119MOL    H3623872   4.331   0.815   6.882 -0.4914  3.4249  3.2112
  119MOL    H3723873   4.427   0.668   6.889  0.6844 -0.2309  0.4467
  119MOL    H3823874   4.602   0.775   7.030 -2.8871 -1.2673  1.3675
  119MOL    H3923875   4.607   0.664   6.756  1.4928 -2.1276  0.3888
  119MOL    H4023876   4.681   0.791   6.679 -0.3001 -0.5553  0.4886
  119MOL    H4123877   4.752   0.732   6.836  0.2808  1.9548  0.2730
  119MOL    C4223878   4.503   0.978   7.030  0.4327  0.4437  0.3871
  119MOL    C4323879   4.615   1.089   7.037 -0.6421  0.5424 -0.1385
  119MOL    O4423880   4.560   1.212   7.081 -0.0971  0.2597 -0.2963
  119MOL    C4523881   4.627   1.326   7.032 -0.4972  0.2104  1.1573
  119MOL    H4623882   4.469   0.963   7.133  0.8139  1.2185  0.6200
  119MOL    H4723883   4.422   1.015   6.967 -1.3918  0.1796  2.4966
  119MOL    H4823884   4.658   1.101   6.937  1.5142 -2.3606  0.3649
  119MOL    H4923885   4.600   1.423   7.075 -3.0612  1.2123 -2.4626
  119MOL    H5023886   4.735   1.315   7.037 -0.4745  0.2352  0.7559
  119MOL    H5123887   4.588   1.329   6.930  3.8450 -1.7265 -0.6716
  119MOL    C5223888   4.725   1.054   7.136  0.4842 -0.3855 -0.0119
  119MOL    C5323889   4.851   0.985   7.081  0.1096 -1.1597 -0.3600
  119MOL    O5423890   4.936   1.082   7.011 -0.0584  0.4694 -0.4478
  119MOL    C5523891   4.991   1.040   6.898  0.2022  0.7371  1.0031
  119MOL    H5623892   4.685   0.992   7.216  0.6667  0.4859  0.7618
  119MOL    H5723893   4.759   1.146   7.183 -0.1552  0.6731 -1.5610
  119MOL    H5823894   4.828   0.898   7.019 -0.2795 -1.3553  0.0560
  119MOL    H5923895   5.039   1.118   6.840  2.2358 -0.2442  1.3336
  119MOL    H6023896   5.070   0.968   6.917  0.3606  0.9792  1.2619
  119MOL    H6123897   4.925   0.993   6.824  2.5463  0.7416 -1.1381
  119MOL    C6223898   4.928   0.933   7.216  0.2077  0.0965 -0.0240
  119MOL    C6323899   5.049   0.829   7.188  0.1378 -0.9735  0.1884
  119MOL    O6423900   5.028   0.727   7.089 -0.1780 -0.4131  0.2507
  119MOL    C6523901   4.927   0.633   7.113  0.3959 -0.7583 -0.1963
  119MOL    H6623902   4.856   0.884   7.282 -0.1257  1.3539  0.5664
  119MOL    H6723903   4.960   1.020   7.274  1.7826  0.1837 -1.0035
  119MOL    H6823904   5.059   0.785   7.288 -1.2407 -0.1980  0.6868
  119MOL    H6923905   4.941   0.541   7.056  1.9210 -1.4900  1.3190
  119MOL    H7023906   4.932   0.611   7.219  0.7435 -0.8822 -0.2400
  119MOL    H7123907   4.828   0.677   7.095 -0.0969 -1.7318  0.1173
  119MOL    C7223908   5.197   0.891   7.158  0.5551  0.1527 -0.3277
  119MOL    C7323909   5.303   0.829   7.253  0.2176 -0.6338  0.3220
  119MOL    O7423910   5.426   0.837   7.184 -0.1311  0.0060  0.7852
  119MOL    C7523911   5.520   0.741   7.219  0.5395  0.8361  0.1391
  119MOL    H7623912   5.194   0.999   7.172 -0.6156 -0.0512  1.1429
  119MOL    H7723913   5.218   0.869   7.054 -2.1307  0.5535 -1.0056
  119MOL    H7823914   5.286   0.722   7.263 -0.2733 -0.5219  0.6827
  119MOL    H7923915   5.600   0.742   7.145 -0.4954 -4.1028 -1.2639
  119MOL    H8023916   5.567   0.764   7.314 -1.1045  0.2973  1.1187
  119MOL    H8123917   5.473   0.643   7.213 -1.2898  1.5393  2.4040
  119MOL    C8223918   5.326   0.891   7.393  0.7167  0.3267  0.1804
  119MOL    C8323919   5.207   0.895   7.497  0.2831  1.4897 -0.3908
  119MOL    O8423920   5.173   0.762   7.530 -0.8277  0.2164 -0.0864
  119MOL    C8523921   5.050   0.732   7.600  0.4146  0.5069  0.2549
  119MOL    H8623922   5.373   0.989   7.387 -0.3642  0.7444 -1.9530
  119MOL    H8723923   5.402   0.831   7.444 -0.3349 -0.2712  1.0796
  119MOL    H8823924   5.116   0.934   7.450 -0.9532  0.1244  0.8101
  119MOL    H8923925   5.029   0.626   7.586 -0.1354  0.8078 -1.2628
  119MOL    H9023926   5.056   0.770   7.702 -2.1856  2.5825 -0.2984
  119MOL    H9123927   4.968   0.791   7.559 -0.8921 -3.4244 -3.1344
  119MOL    C9223928   5.247   0.969   7.621 -0.5401  0.3415  0.5094
  119MOL    C9323929   5.229   1.123   7.607 -0.1479 -0.0721  0.3217
  119MOL    O9423930   5.104   1.169   7.547  0.0427  0.1632 -0.4181
  119MOL    C9523931   5.121   1.221   7.416 -0.0263 -0.1828  0.9415
  119MOL    H9623932   5.346   0.941   7.659  1.0998  2.1500 -2.1941
  119MOL    H9723933   5.178   0.949   7.703 -0.7186 -1.2243 -0.0057
  119MOL    H9823934   5.311   1.170   7.553 -1.8704  2.2452 -0.3900
  119MOL    H9923935   5.022   1.246   7.377  0.1371 -3.5847 -1.9561
  119MOL   H10023936   5.158   1.323   7.413 -2.2792  0.6808  1.1524
  119MOL   H10123937   5.193   1.170   7.352 -0.2097  0.4100  0.2605
  119MOL   C10223938   5.215   1.195   7.740 -0.1096  0.1115 -0.1434
  119MOL   C10323939   5.349   1.203   0.002 -0.7306  0.5488  0.0761
  119MOL   O10423940   5.419   1.314   7.759 -0.1211 -0.2739 -0.2201
  119MOL   C10523941   5.558   1.302   7.750  0.0346 -0.0610 -0.1039
  119MOL   H10623942   5.136   1.155   7.804  0.6223 -0.2436  0.5424
  119MOL   H10723943   5.186   1.299   7.722 -1.3036  0.0526  1.3399
  119MOL   H10823944   5.408   1.114   7.790  0.0789  0.7912  1.2353
  119MOL   H10923945   5.598   1.400   7.729 -3.3890  1.5865  0.6108
  119MOL   H11023946   5.600   1.285   0.039 -1.2052  1.3095  0.6810
  119MOL   H11123947   5.583   1.222   7.681 -1.7519  1.4540 -2.5754
  119MOL   C11223948   5.332   1.224   0.150  0.4165  0.5384 -0.3993
  119MOL   C11323949   5.268   1.102   0.226 -0.4300  0.2564  0.4698
  119MOL   O11423950   5.343   0.980   0.204  0.4617 -0.1386 -0.0231
  119MOL   C11523951   5.272   0.866   0.216 -0.5851  0.0172 -0.5788
  119MOL   H11623952   5.268   1.312   0.160 -1.9737 -1.3460  1.4681
  119MOL   H11723953   5.428   1.238   0.200 -0.4107  2.0844  0.7879
  119MOL   H11823954   5.164   1.082   0.200 -0.9737 -1.5201  3.7444
  119MOL   H11923955   5.172   0.862   0.174 -0.9597 -0.8256  0.3433
  119MOL   H12023956   5.339   0.786   0.183  1.4241  1.4572 -0.0536
  119MOL   H12123957   5.261   0.845   0.323 -0.4722 -2.1034 -0.9487
  119MOL   C12223958   5.278   1.120   0.386  0.3119 -0.6199  0.3219
  119MOL   C12323959   5.222   1.253   0.440 -0.3837 -0.7759  0.3687
  119MOL   O12423960   5.086   1.240   0.408 -0.0887 -0.4348 -0.4179
  119MOL   C12523961   5.042   1.356   0.344  0.2438  0.8251  0.7370
  119MOL   H12623962   5.382   1.108   0.417 -0.0026  1.4970  2.2573
  119MOL   H12723963   5.225   1.038   0.434 -1.2733  0.5930  0.6706
  119MOL   H12823964   5.276   1.335   0.393  1.1751 -2.0992 -0.1830
  119MOL   H12923965   5.069   1.437   0.411  2.1782  0.2459  0.6739
  119MOL   H13023966   5.086   1.382   0.248 -1.5410  0.9724 -0.0666
  119MOL   H13123967   4.934   1.361   0.330  0.5171 -0.0421 -1.9951
  119MOL   C13223968   5.231   1.266   0.593 -0.0710  0.5296  0.4300
  119MOL   C13323969   5.375   1.283   0.646  0.1844  0.5749 -0.3140
  119MOL   O13423970   5.425   1.406   0.603 -0.1123 -0.1999 -0.3410
  119MOL   C13523971   5.548   1.390   0.546  0.6587 -0.6957  0.0114
  119MOL   H13623972   5.177   1.184   0.641 -0.3653 -0.9269 -2.2816
  119MOL   H13723973   5.181   1.360   0.615 -0.1485  0.5606  0.1305
  119MOL   H13823974   5.430   1.196   0.607 -3.8600 -1.4513 -1.7509
  119MOL   H13923975   5.571   1.493   0.520 -0.7120 -0.4168 -0.1345
  119MOL   H14023976   5.631   1.357   0.609  2.2966 -1.1595 -2.3331
  119MOL   H14123977   5.541   1.337   0.451  1.2354  0.7644 -0.8597
  119MOL   C14223978   5.366   1.281   0.803  0.1985 -0.4498 -0.1584
  119MOL   C14323979   5.345   1.145   0.867  0.1001  0.3598 -0.5875
  119MOL   O14423980   5.459   1.060   0.833 -0.3650  0.2918 -0.0219
  119MOL   C14523981   5.441   0.920   0.821 -0.5372 -0.6560  0.1240
  119MOL   H14623982   5.294   1.357   0.835  0.0269 -0.2061 -1.0971
  119MOL   H14723983   5.462   1.312   0.845 -1.6093  1.1147  2.9541
  119MOL   H14823984   5.253   1.101   0.828 -0.4637 -1.1466  2.2772
  119MOL   H14923985   5.425   0.882   0.922  2.8540 -1.0197  0.5634
  119MOL   H15023986   5.362   0.893   0.751 -1.7824  3.8343 -0.3929
  119MOL   H15123987   5.541   0.890   0.791 -0.0054 -1.0387  2.2025
  119MOL   C15223988   5.333   1.144   1.022  0.2340 -0.6941 -0.8203
  119MOL   C15323989   5.204   1.205   1.085  0.8448  0.6186  0.3238
  119MOL   O15423990   5.095   1.144   1.029 -0.2030 -0.1580 -0.3481
  119MOL   C15523991   4.981   1.216   1.012  0.1048  0.0308  0.3385
  119MOL   H15623992   5.417   1.200   1.063 -0.3839 -0.8238  0.6495
  119MOL   H15723993   5.338   1.039   1.051 -1.9035 -1.0405 -1.6342
  119MOL   H15823994   5.209   1.311   1.061  0.0408  0.3245 -1.2304
  119MOL   H15923995   4.935   1.242   1.108 -0.4406 -1.3054  0.4393
  119MOL   H16023996   4.994   1.311   0.960  2.7317 -0.1066  0.6466
  119MOL   H16123997   4.920   1.155   0.947 -0.5244  1.4376 -0.4201
  119MOL   C16223998   5.197   1.171   1.235 -0.2503 -0.4194 -0.1553
  119MOL   C16323999   5.261   1.259   1.341  0.2360 -0.6154 -0.5616
  119MOL   O16424000   5.175   1.372   1.371  0.4985  0.0755  0.0202
  119MOL   C16524001   5.245   1.478   1.434  0.1875 -0.0869 -0.7149
  119MOL   H16624002   5.220   1.066   1.251  3.2251  0.4901  1.0697
  119MOL   H16724003   5.090   1.157   1.254 -0.1375 -2.8599 -1.1369
  119MOL   H16824004   5.358   1.299   1.312  0.3285 -0.3575  0.0828
  119MOL   H16924005   5.321   1.460   1.510  1.0709 -0.6886 -1.7334
  119MOL   H17024006   5.298   1.532   1.356  4.0826 -2.0971  0.4129
  119MOL   H17124007   5.174   1.545   1.482  1.2036  0.9187 -0.5961
  119MOL   C17224008   5.285   1.179   1.469 -0.2681 -0.1120  0.2425
  119MOL   C17324009   5.405   1.082   1.475  0.6014 -0.4814  0.3244
  119MOL   O17424010   5.523   1.165   1.470 -0.3145 -0.4393  0.0734
  119MOL   C17524011   5.617   1.099   1.385  0.8184 -0.1722 -0.3248
  119MOL   H17624012   5.188   1.139   1.501 -0.8363  0.5874 -0.5849
  119MOL   H17724013   5.296   1.253   1.548  1.1116  1.2588 -1.2168
  119MOL   H17824014   5.395   0.996   1.409  2.7789  0.1398 -0.8480
  119MOL   H17924015   5.580   1.091   1.283  0.0872 -0.1923 -0.0611
  119MOL   H18024016   5.713   1.151   1.389  0.4192  0.5541  0.0547
  119MOL   H18124017   5.637   0.996   1.415  1.0920 -0.1586 -0.4560
  119MOL   C18224018   5.424   1.013   1.610  0.3745  0.5434  0.0460
  119MOL   C18324019   5.324   0.895   1.633  0.5930 -0.1373  0.3103
  119MOL   O18424020   5.337   0.806   1.521 -0.2413  0.3279 -0.0880
  119MOL   C18524021   5.205   0.757   1.501  0.0927 -0.2971 -0.5351
  119MOL   H18624022   5.424   1.090   1.687 -1.2408  1.6836 -1.0830
  119MOL   H18724023   5.525   0.971   1.606  0.2834  0.1187  1.8283
  119MOL   H18824024   5.225   0.939   1.647 -0.2003 -1.4358 -1.0830
  119MOL   H18924025   5.147   0.816   1.430 -1.7797  0.2688  1.3877
  119MOL   H19024026   5.222   0.656   1.464 -1.0708 -0.2528 -1.2234
  119MOL   H19124027   5.146   0.727   1.588  2.1283  0.7936  1.2597
  119MOL   C19224028   5.352   0.806   1.762 -0.0251 -0.2624  0.3718
  119MOL   C19324029   5.369   0.880   1.893  0.4964 -0.1957 -0.6628
  119MOL   O19424030   5.370   0.775   1.995  0.1058  0.1722  0.2854
  119MOL   C19524031   5.392   0.833   2.120  0.4153  0.2055 -0.2608
  119MOL   H19624032   5.438   0.742   1.741  0.3534 -0.6454  2.9415
  119MOL   H19724033   5.262   0.745   1.779 -1.9154  2.0299 -1.0962
  119MOL   H19824034   5.275   0.927   1.920  0.1254 -1.8747  1.0483
  119MOL   H19924035   5.469   0.910   2.130 -0.5251  0.9548  1.4059
  119MOL   H20024036   5.304   0.883   2.159  0.2399  0.6836 -1.2503
  119MOL   H20124037   5.411   0.753   2.191  0.0695 -0.8692 -1.3582
  119MOL   H20224038   5.460   0.940   1.885  1.1155 -0.3343  4.0502
  120MOL     C124039   1.915   4.720   5.753 -0.4658 -0.2171  0.3251
  120MOL     C224040   1.930   4.681   5.903  0.1721  0.1616  0.0686
  120MOL     O324041   2.058   4.624   5.917  0.2270 -0.1077  0.4898
  120MOL     C424042   2.087   4.532   6.024 -0.2205  0.4068  0.0155
  120MOL     H524043   1.961   4.652   5.681 -0.2693  1.4214 -1.1390
  120MOL     H624044   1.808   4.733   5.740 -1.0175 -0.7718  3.8999
  120MOL     H724045   1.853   4.608   5.929 -0.0274  1.0402  2.0382
  120MOL     H824046   2.180   4.481   6.000 -0.1565  0.2948  0.5042
  120MOL     H924047   2.089   4.586   6.118 -2.5539  0.2857  0.1722
  120MOL    H1024048   2.003   4.462   6.025 -0.0415 -0.0604 -5.0307
  120MOL    H1124049   1.969   4.813   5.733 -0.9892 -0.2639 -1.3776
  120MOL    C1224050   1.917   4.794   6.002  0.3809  0.2102 -0.4410
  120MOL    C1324051   1.780   4.872   5.985  0.3390 -0.4689  0.1164
  120MOL    O1424052   1.674   4.788   6.019  0.0932 -0.0104 -0.0044
  120MOL    C1524053   1.550   4.822   5.941 -0.3561 -1.1854 -0.1450
  120MOL    H1624054   1.995   4.866   5.977  1.3825 -0.1953  1.4745
  120MOL    H1724055   1.937   4.770   6.106  0.9481  1.2588 -0.3028
  120MOL    H1824056   1.768   4.914   5.885 -0.3844 -2.0066 -0.4671
  120MOL    H1924057   1.480   4.739   5.939 -0.6003 -0.9935  0.2969
  120MOL    H2024058   1.497   4.915   5.965  1.5932  0.4010 -1.7922
  120MOL    H2124059   1.580   4.830   5.837 -1.1777 -0.7694 -0.3538
  120MOL    C2224060   1.774   5.001   6.074  0.5286 -0.2317  0.3901
  120MOL    C2324061   1.862   5.120   6.023 -0.0599 -1.1124 -0.5470
  120MOL    O2424062   1.782   5.184   5.926  0.2940  0.2308 -0.6845
  120MOL    C2524063   1.834   5.249   5.817  0.4033 -0.9701  0.1670
  120MOL    H2624064   1.801   4.974   6.176 -0.5489  0.8655  0.9722
  120MOL    H2724065   1.667   5.021   6.077  0.9943  2.0925  2.0277
  120MOL    H2824066   1.956   5.083   5.982  0.1191 -1.8663  0.5266
  120MOL    H2924067   1.842   5.348   5.862  1.8058 -1.0375  0.0704
  120MOL    H3024068   1.923   5.209   5.769 -1.5184 -1.4792 -3.1475
  120MOL    H3124069   1.752   5.265   5.747 -1.1856  2.3292  2.6577
  120MOL    C3224070   1.892   5.228   6.136 -0.0739 -0.0426  0.3670
  120MOL    C3324071   2.005   5.189   6.232 -0.1533  0.4399  0.9704
  120MOL    O3424072   2.121   5.141   6.161 -0.3945  0.0831  0.4771
  120MOL    C3524073   2.165   5.025   6.223  0.0441 -0.4022  0.0171
  120MOL    H3624074   1.798   5.244   6.189 -0.5038  2.2411 -1.0135
  120MOL    H3724075   1.920   5.322   6.090 -0.4577 -1.2107 -2.3660
  120MOL    H3824076   1.959   5.104   6.283  0.6886  0.7137  2.2052
  120MOL    H3924077   2.206   5.033   6.324  1.3727 -1.7266 -0.3897
  120MOL    H4024078   2.087   4.949   6.220  1.3125 -1.7795  0.9689
  120MOL    H4124079   2.249   4.983   6.168  0.4456  0.3056  0.0796
  120MOL    C4224080   2.051   5.306   6.322  0.3101  0.3511  0.0667
  120MOL    C4324081   1.964   5.309   6.453  0.5237  0.4614 -0.0964
  120MOL    O4424082   1.821   5.322   6.428  0.2218  0.2605  0.5412
  120MOL    C4524083   1.763   5.401   6.533 -0.2862 -0.6409  1.1108
  120MOL    H4624084   2.061   5.399   6.265  3.0379  0.2579  0.3116
  120MOL    H4724085   2.155   5.292   6.351  0.0853 -2.7675 -0.5207
  120MOL    H4824086   2.000   5.392   6.513  1.3490 -0.2228  0.3681
  120MOL    H4924087   1.767   5.347   6.627  3.0505  0.0663  1.4357
  120MOL    H5024088   1.817   5.494   6.553 -1.5127  0.4237 -0.4119
  120MOL    H5124089   1.659   5.427   6.511  0.5812  1.9891 -0.1187
  120MOL    C5224090   1.988   5.182   6.541  0.1228 -0.5780 -0.0848
  120MOL    C5324091   2.070   5.201   6.667  0.3768  0.1605  0.5283
  120MOL    O5424092   2.038   5.095   6.759  0.0409  0.3010 -0.1487
  120MOL    C5524093   1.910   5.106   6.830 -0.0771 -0.3317  0.0288
  120MOL    H5624094   2.043   5.101   6.493  2.8097  0.1294  1.6926
  120MOL    H5724095   1.888   5.139   6.554  0.2209 -0.6996  0.2686
  120MOL    H5824096   2.043   5.294   6.717  1.6261  1.6428 -1.4660
  120MOL    H5924097   1.913   5.014   6.888 -2.0888  1.4190  3.0281
  120MOL    H6024098   1.908   5.190   6.899  3.0902  0.1061 -0.3188
  120MOL    H6124099   1.826   5.102   6.761  0.6403 -2.9630 -0.7848
  120MOL    C6224100   2.222   5.191   6.641  0.1111 -0.0964  0.6085
  120MOL    C6324101   2.312   5.300   6.702  0.0161 -0.5989 -0.2656
  120MOL    O6424102   2.448   5.255   6.700 -0.7190 -0.0229  0.6925
  120MOL    C6524103   2.492   5.183   6.812 -0.3038 -0.0792 -0.1950
  120MOL    H6624104   2.258   5.188   6.539  0.7559 -0.3510  0.8403
  120MOL    H6724105   2.245   5.092   6.681  0.6939 -0.7607 -1.3349
  120MOL    H6824106   2.286   5.310   6.808  0.5999  0.4866 -0.2192
  120MOL    H6924107   2.421   5.100   6.819  0.3993 -0.7529 -0.9882
  120MOL    H7024108   2.595   5.156   6.791  0.2377  0.0991  2.0374
  120MOL    H7124109   2.486   5.242   6.904  0.2633  2.0578 -1.5102
  120MOL    C7224110   2.301   5.432   6.625  0.5818 -0.4220 -0.6258
  120MOL    C7324111   2.361   5.551   6.708  0.0956 -0.9868 -0.9779
  120MOL    O7424112   2.270   5.590   6.818  0.1643 -0.2068 -0.2837
  120MOL    C7524113   2.180   5.689   6.791  0.0116 -0.5932  0.1012
  120MOL    H7624114   2.203   5.471   6.600  0.6287 -0.9438 -1.6484
  120MOL    H7724115   2.353   5.427   6.529 -0.8008 -1.0355 -1.3572
  120MOL    H7824116   2.366   5.636   6.641  0.6809  0.0226  0.3271
  120MOL    H7924117   2.211   5.772   6.726  0.2705  1.3526  2.6464
  120MOL    H8024118   2.085   5.651   6.753 -0.8141 -0.6065  2.1562
  120MOL    H8124119   2.136   5.738   6.878 -1.4381  0.0161 -0.9470
  120MOL    C8224120   2.508   5.528   6.751 -0.7669 -0.1855 -0.2427
  120MOL    C8324121   2.594   5.655   6.779 -1.0400 -0.3144 -0.2544
  120MOL    O8424122   2.592   5.743   6.664 -0.4286 -0.0043  0.0034
  120MOL    C8524123   2.684   5.697   6.567  0.3047 -0.5379 -0.2352
  120MOL    H8624124   2.554   5.473   6.670  0.7665  0.7843 -0.0536
  120MOL    H8724125   2.516   5.460   6.836 -0.0700  0.8955  0.5748
  120MOL    H8824126   2.694   5.625   6.810 -1.0124  0.5802  0.5350
  120MOL    H8924127   2.655   5.751   6.477  1.1639  0.8145  0.2914
  120MOL    H9024128   2.788   5.724   6.584 -0.0355  0.6093  0.0660
  120MOL    H9124129   2.686   5.590   6.545 -1.0256 -0.6606  0.1585
  120MOL    C9224130   2.543   5.745   6.890  0.2903  0.3752 -0.0202
  120MOL    C9324131   2.635   5.859   6.935  0.0983 -0.4656  0.7629
  120MOL    O9424132   2.560   5.960   7.001  0.1820 -0.2890  0.0867
  120MOL    C9524133   2.573   6.094   6.954  0.1615 -0.2283 -0.0967
  120MOL    H9624134   2.512   5.681   6.973 -0.4136  2.1496  1.1128
  120MOL    H9724135   2.449   5.793   6.861  1.2463  0.6158 -2.8910
  120MOL    H9824136   2.684   5.907   6.850 -1.6580 -0.5891 -0.3427
  120MOL    H9924137   2.676   6.129   6.963  0.6542 -1.2227 -1.6779
  120MOL   H10024138   2.554   6.090   6.847 -3.1264 -0.7344  0.4390
  120MOL   H10124139   2.512   6.168   7.006 -0.3615 -0.9985  0.4049
  120MOL   C10224140   2.734   5.830   7.042  0.8265 -0.3604 -0.4702
  120MOL   C10324141   2.871   5.905   7.024 -0.3160  0.0212  0.7552
  120MOL   O10424142   2.928   5.952   7.143 -0.6922 -0.3970 -0.2207
  120MOL   C10524143   2.948   5.858   7.244  0.3794 -0.0249 -0.2184
  120MOL   H10624144   2.740   5.723   7.063  1.3109 -0.4638 -1.1423
  120MOL   H10724145   2.696   5.870   7.136  1.8156 -2.0337  0.6646
  120MOL   H10824146   2.852   5.991   6.960 -1.6247 -0.9561 -0.2140
  120MOL   H10924147   2.858   5.800   7.267  0.7892 -0.7933 -0.5511
  120MOL   H11024148   3.032   5.793   7.223  2.1138  2.3688 -0.8574
  120MOL   H11124149   2.963   5.931   7.324  0.9205 -1.5547  1.1022
  120MOL   C11224150   2.969   5.810   6.948  0.3619  0.5108  0.0032
  120MOL   C11324151   3.099   5.861   6.893  0.6703 -0.0778 -0.1142
  120MOL   O11424152   3.178   5.757   6.839 -0.2358 -0.0930 -0.1974
  120MOL   C11524153   3.248   5.687   6.937 -0.7347 -0.0950 -0.4783
  120MOL   H11624154   2.911   5.792   6.858  0.8704  0.4735 -0.3145
  120MOL   H11724155   2.975   5.724   7.015 -0.2649 -1.6131 -2.5853
  120MOL   H11824156   3.142   5.913   6.979  0.8862  0.4978 -0.5651
  120MOL   H11924157   3.181   5.646   7.012  0.4150 -1.0891  0.0066
  120MOL   H12024158   3.303   5.607   6.887  1.0237  2.0140 -1.9945
  120MOL   H12124159   3.317   5.750   6.992 -0.9715  0.1759 -0.4898
  120MOL   C12224160   3.090   5.944   6.765 -0.1306 -0.5932  0.2213
  120MOL   C12324161   3.037   6.093   6.790  0.2663 -0.3600  0.4588
  120MOL   O12424162   3.132   6.143   6.893  0.2475 -0.0750  0.7677
  120MOL   C12524163   3.070   6.232   6.981 -0.4471  0.0148 -0.0620
  120MOL   H12624164   3.025   5.897   6.691 -0.4220 -0.6437  0.5077
  120MOL   H12724165   3.190   5.945   6.722  0.3465  3.7016  1.2644
  120MOL   H12824166   2.934   6.098   6.823 -0.7051 -0.9302 -2.3596
  120MOL   H12924167   3.028   6.171   7.061 -0.5133  0.2334  0.0718
  120MOL   H13024168   3.158   6.289   7.011 -0.5634  0.0986  0.1238
  120MOL   H13124169   3.004   6.300   6.928 -0.4125  0.4145  0.4021
  120MOL   C13224170   3.049   6.181   6.658  0.2584 -0.1705  0.1716
  120MOL   C13324171   2.934   6.151   6.556  0.8138  0.7098  0.6797
  120MOL   O13424172   2.937   6.016   6.507 -0.0228  0.1080  0.1545
  120MOL   C13524173   3.024   5.997   6.392  0.0729 -0.4459 -0.1368
  120MOL   H13624174   3.147   6.185   6.612  0.0659  0.6877 -0.1757
  120MOL   H13724175   3.032   6.283   6.692  2.1513  0.4528 -0.7026
  120MOL   H13824176   2.940   6.223   6.475 -0.3620  1.6144  1.3859
  120MOL   H13924177   3.030   5.891   6.367 -0.2700 -0.8447  1.3890
  120MOL   H14024178   2.988   6.052   6.305  1.6283 -0.9002 -1.0746
  120MOL   H14124179   3.124   6.015   6.431 -1.1493  4.5410  1.0247
  120MOL   C14224180   2.791   6.169   6.616  0.4355  0.5852  0.3867
  120MOL   C14324181   2.676   6.190   6.520 -0.4433 -0.1385 -0.2051
  120MOL   O14424182   2.706   6.294   6.428  0.0035 -0.3092 -0.4543
  120MOL   C14524183   2.708   6.420   6.484 -0.2495  0.2462  0.2000
  120MOL   H14624184   2.794   6.241   6.697  4.4291 -0.7229  1.5126
  120MOL   H14724185   2.758   6.083   6.675 -1.1391  1.7158  1.1914
  120MOL   H14824186   2.583   6.207   6.575  0.5544 -2.0491  2.1693
  120MOL   H14924187   2.714   6.495   6.405  0.2741 -3.1469 -3.1292
  120MOL   H15024188   2.623   6.431   6.550  0.6470  0.2051  1.3826
  120MOL   H15124189   2.792   6.423   6.554 -1.3574 -0.0101  1.5526
  120MOL   C15224190   2.625   6.072   6.445  0.6124 -0.6433 -0.4907
  120MOL   C15324191   2.487   6.075   6.373 -0.0549  0.0106  0.0228
  120MOL   O15424192   2.376   6.114   6.468 -0.1546  0.6581  0.2264
  120MOL   C15524193   2.292   6.004   6.515  0.4335 -0.0990  0.7026
  120MOL   H15624194   2.618   5.995   6.522 -0.4360  0.3750  0.4429
  120MOL   H15724195   2.705   6.036   6.380  1.1328 -1.0379  0.3608
  120MOL   H15824196   2.468   5.976   6.332 -0.9363  1.5060 -3.3346
  120MOL   H15924197   2.231   5.975   6.429  2.7990 -0.2407 -0.9672
  120MOL   H16024198   2.350   5.924   6.559  0.3614 -0.2895  0.4533
  120MOL   H16124199   2.220   6.036   6.590  1.0427  0.6924  0.9570
  120MOL   C16224200   2.486   6.177   6.257 -0.0113 -0.0547 -0.4969
  120MOL   C16324201   2.603   6.163   6.156 -0.4055 -0.3909 -0.0862
  120MOL   O16424202   2.605   6.031   6.120  0.6821  0.4312 -0.3966
  120MOL   C16524203   2.738   5.992   6.073  0.0899 -0.0592 -0.0259
  120MOL   H16624204   2.476   6.275   6.305  0.1396 -0.0537 -0.4677
  120MOL   H16724205   2.392   6.165   6.203 -0.2141 -1.1162  0.0724
  120MOL   H16824206   2.700   6.192   6.198 -0.1821 -1.8099  0.3869
  120MOL   H16924207   2.799   5.972   6.161 -0.8139 -1.0498  0.3783
  120MOL   H17024208   2.741   5.900   6.015  1.1876 -0.9908  1.4690
  120MOL   H17124209   2.785   6.068   6.010 -1.7536  0.5339 -0.7183
  120MOL   C17224210   2.586   6.246   6.025 -0.6494 -0.1100  0.2622
  120MOL   C17324211   2.659   6.384   6.029  0.5131 -0.3601  0.7805
  120MOL   O17424212   2.799   6.365   6.028  0.1190 -0.0335  0.2508
  120MOL   C17524213   2.857   6.434   6.142  0.0928  0.4249  0.0609
  120MOL   H17624214   2.480   6.260   6.005 -0.2695  0.5085 -1.3819
  120MOL   H17724215   2.621   6.186   5.941 -0.7807 -0.0535  0.1670
  120MOL   H17824216   2.629   6.433   6.122 -0.5964 -1.4074  0.9821
  120MOL   H17924217   2.810   6.395   6.232  0.1437 -2.5994 -1.1636
  120MOL   H18024218   2.965   6.417   6.134  0.0993  0.8594 -0.9091
  120MOL   H18124219   2.839   6.541   6.134 -0.8687  0.2243 -0.5103
  120MOL   C18224220   2.611   6.462   5.903  0.3500 -0.3279 -0.5863
  120MOL   C18324221   2.482   6.543   5.920 -0.4396 -0.5562 -0.5853
  120MOL   O18424222   2.483   6.626   6.038 -0.1514 -0.7208  0.8593
  120MOL   C18524223   2.406   6.564   6.145  0.2426 -0.7231 -0.6905
  120MOL   H18624224   2.608   6.404   5.810  0.3783 -1.0848 -0.1135
  120MOL   H18724225   2.686   6.536   5.876 -0.8632 -0.6425 -5.2958
  120MOL   H18824226   2.395   6.478   5.930 -1.2978  0.5888 -0.5242
  120MOL   H18924227   2.404   6.628   6.233  0.6971  0.2991 -1.4122
  120MOL   H19024228   2.305   6.536   6.114 -1.8328  2.8373  2.4083
  120MOL   H19124229   2.451   6.472   6.182  1.7893  0.3514  0.1497
  120MOL   C19224230   2.448   6.636   5.800 -0.0260 -0.6610  0.1142
  120MOL   C19324231   2.315   6.709   5.820  0.1077 -1.0545  0.3864
  120MOL   O19424232   2.292   6.813   5.730 -0.1772 -0.2913  0.1377
  120MOL   C19524233   2.159   6.856   5.730 -0.6674 -0.1753  0.4160
  120MOL   H19624234   2.438   6.579   5.708  0.4793  1.6673 -1.4291
  120MOL   H19724235   2.524   6.713   5.788  0.1031 -1.1672 -2.4274
  120MOL   H19824236   2.327   6.754   5.919 -0.0621 -1.0059  0.3847
  120MOL   H19924237   2.140   6.895   5.830  0.5962  0.8700  0.2692
  120MOL   H20024238   2.140   6.932   5.654  0.3583  0.2618  0.5840
  120MOL   H20124239   2.088   6.779   5.700 -0.9526  0.8869 -1.7352
  120MOL   H20224240   2.231   6.641   5.829 -2.4738  1.8360 -0.8250
  121MOL     C124241   4.064   3.022   3.153  0.4423 -0.0748 -0.6118
  121MOL     C224242   4.077   2.965   3.290  0.5395  0.1906 -0.4251
  121MOL     O324243   4.061   2.823   3.296  0.2084 -0.6117  0.1004
  121MOL     C424244   3.928   2.785   3.288  0.1675  0.1046  0.0155
  121MOL     H524245   3.970   2.980   3.117  1.0107  1.0206 -3.5460
  121MOL     H624246   4.045   3.129   3.151 -1.7575 -0.3987  1.3770
  121MOL     H724247   4.008   3.025   3.350  1.9424  0.0318  1.3965
  121MOL     H824248   3.898   2.776   3.183  0.2666 -1.2944  0.0964
  121MOL     H924249   3.914   2.689   3.337  1.4551 -0.1214 -0.0395
  121MOL    H1024250   3.859   2.843   3.349 -2.5963 -4.0287  0.9709
  121MOL    H1124251   4.141   2.982   3.087  0.6833 -0.6022 -0.0144
  121MOL    C1224252   4.225   2.981   3.347  0.1077  0.5696 -0.0980
  121MOL    C1324253   4.278   3.124   3.366  0.3353 -0.1547  0.2813
  121MOL    O1424254   4.182   3.179   3.466  0.3074  0.2844  0.2334
  121MOL    C1524255   4.178   3.321   3.479 -0.3756 -0.1015  0.3508
  121MOL    H1624256   4.286   2.929   3.274 -0.4017 -0.9110  0.5196
  121MOL    H1724257   4.234   2.934   3.445  0.7649  0.2453 -0.3161
  121MOL    H1824258   4.270   3.187   3.277 -2.7079 -1.3906 -0.3965
  121MOL    H1924259   4.269   3.353   3.529  0.1849 -1.4074  0.1807
  121MOL    H2024260   4.166   3.368   3.381  1.5292 -0.2209  0.0355
  121MOL    H2124261   4.087   3.338   3.536 -1.8802  2.1240 -2.5266
  121MOL    C2224262   4.426   3.127   3.410 -0.3454 -0.8809  0.5894
  121MOL    C2324263   4.519   3.087   3.301 -0.1437  0.6539  0.6488
  121MOL    O2424264   4.583   3.200   3.240  0.2971 -0.6094 -0.3100
  121MOL    C2524265   4.504   3.306   3.186 -0.1928 -0.5041 -0.5641
  121MOL    H2624266   4.436   3.064   3.499  0.1650 -0.8460  0.5576
  121MOL    H2724267   4.446   3.228   3.446 -2.4737 -0.8896  1.8374
  121MOL    H2824268   4.468   3.035   3.221 -0.7788  3.0098 -0.5285
  121MOL    H2924269   4.559   3.396   3.160  0.7982 -0.3713  1.7960
  121MOL    H3024270   4.462   3.276   3.090 -0.9488 -0.8319 -0.1414
  121MOL    H3124271   4.416   3.320   3.250 -1.2683 -2.6806 -1.5304
  121MOL    C3224272   4.635   2.991   3.342 -0.0787 -0.2730 -0.2107
  121MOL    C3324273   4.609   2.837   3.336 -0.2291 -1.1843 -0.0106
  121MOL    O3424274   4.650   2.785   3.205 -0.2565 -0.1581 -0.3048
  121MOL    C3524275   4.561   2.685   3.162  0.7479 -0.0615 -0.0557
  121MOL    H3624276   4.682   3.041   3.427 -0.3965  0.4304 -0.4448
  121MOL    H3724277   4.711   3.018   3.269  0.4608 -0.3989  0.3003
  121MOL    H3824278   4.501   2.829   3.343 -0.3987  0.6145 -0.3766
  121MOL    H3924279   4.626   2.605   3.127  0.8512 -0.2186  0.4922
  121MOL    H4024280   4.511   2.625   3.238 -0.3959  0.8336 -0.0944
  121MOL    H4124281   4.496   2.716   3.080 -1.2575 -0.0785  1.4909
  121MOL    C4224282   4.677   2.757   3.454 -0.2898  0.3940 -0.2317
  121MOL    C4324283   4.621   2.784   3.595 -0.1164 -0.1710 -0.1675
  121MOL    O4424284   4.497   2.724   3.593 -0.1929 -0.9698 -0.1173
  121MOL    C4524285   4.403   2.774   3.686 -0.8095  0.0978 -0.2384
  121MOL    H4624286   4.779   2.795   3.450 -1.6805  4.2168 -2.0633
  121MOL    H4724287   4.683   2.655   3.417 -1.9671  0.1253  0.1866
  121MOL    H4824288   4.603   2.890   3.616 -2.5597 -0.5745 -0.0820
  121MOL    H4924289   4.449   2.766   3.784  0.3322  0.0682 -0.7573
  121MOL    H5024290   4.375   2.877   3.664 -1.4529 -0.1976 -0.8500
  121MOL    H5124291   4.318   2.706   3.679  1.5348 -2.8793 -1.0970
  121MOL    C5224292   4.722   2.729   3.700 -0.5088 -0.3569 -0.0127
  121MOL    C5324293   4.779   2.834   3.797  0.4806  0.0086  0.1893
  121MOL    O5424294   4.687   2.854   3.902  0.2317  0.0994 -0.7698
  121MOL    C5524295   4.644   2.986   3.913 -0.3545 -0.0608 -0.1281
  121MOL    H5624296   4.806   2.683   3.647  1.0889  1.0363  1.2550
  121MOL    H5724297   4.684   2.642   3.753  0.7741  0.1747  1.8321
  121MOL    H5824298   4.804   2.924   3.742  1.6455 -0.2653  0.2567
  121MOL    H5924299   4.578   2.987   3.826  0.2317  1.4741 -0.5789
  121MOL    H6024300   4.586   3.008   4.002  1.2174 -0.5630  1.0334
  121MOL    H6124301   4.735   3.047   3.911  1.0883 -2.1237  0.7604
  121MOL    C6224302   4.902   2.795   3.870  0.0999 -0.2336 -0.0321
  121MOL    C6324303   5.032   2.802   3.788  0.3553  0.4405 -0.3519
  121MOL    O6424304   5.136   2.882   3.843  0.0083 -0.3684  0.2751
  121MOL    C6524305   5.106   3.022   3.845  0.0004  0.3114  0.0480
  121MOL    H6624306   4.878   2.697   3.911 -2.0804 -0.2012 -1.1530
  121MOL    H6724307   4.915   2.857   3.959 -0.5588 -0.8826  0.5220
  121MOL    H6824308   5.026   2.849   3.690  0.2530  0.8968 -0.1288
  121MOL    H6924309   5.187   3.086   3.879  0.2056  0.1848 -0.2055
  121MOL    H7024310   5.071   3.048   3.745 -0.9327 -1.1542 -0.0162
  121MOL    H7124311   5.023   3.044   3.913 -0.4384 -2.2898  0.3953
  121MOL    C7224312   5.096   2.658   3.755  0.2728  0.0127  0.3116
  121MOL    C7324313   5.160   2.648   3.617  0.6613  0.1050 -0.1120
  121MOL    O7424314   5.285   2.722   3.619 -0.1597  0.0399  0.1789
  121MOL    C7524315   5.324   2.818   3.521  0.0996  0.8388  0.0625
  121MOL    H7624316   5.003   2.602   3.746 -1.3021  2.6714 -0.5939
  121MOL    H7724317   5.157   2.616   3.835  1.0202  0.4255 -0.0344
  121MOL    H7824318   5.089   2.682   3.542 -1.1131 -1.6529  0.7446
  121MOL    H7924319   5.432   2.816   3.531  0.2243 -0.6770 -1.3648
  121MOL    H8024320   5.284   2.790   3.424  0.4517  1.5636 -0.2919
  121MOL    H8124321   5.287   2.918   3.541  4.4243  2.7752 -1.1184
  121MOL    C8224322   5.199   2.499   3.596  0.2038  0.2495 -0.3280
  121MOL    C8324323   5.236   2.469   3.452  0.1149 -0.1303  0.5179
  121MOL    O8424324   5.277   2.334   3.432 -0.1027 -0.3372 -0.6166
  121MOL    C8524325   5.420   2.314   3.439  0.1267 -0.1088 -0.4514
  121MOL    H8624326   5.114   2.435   3.622 -2.2605  3.0227 -1.2437
  121MOL    H8724327   5.280   2.465   3.660 -0.2867  0.3528  0.3570
  121MOL    H8824328   5.324   2.531   3.436  2.1289 -2.0824  3.6362
  121MOL    H8924329   5.464   2.322   3.538  2.5948 -0.6053 -1.4516
  121MOL    H9024330   5.445   2.216   3.397  0.1460 -0.2915 -0.0148
  121MOL    H9124331   5.474   2.383   3.374  1.4551  0.4778  1.2592
  121MOL    C9224332   5.135   2.500   3.344  0.0425  0.2010 -0.2096
  121MOL    C9324333   5.006   2.426   3.363  0.1529 -0.4688  0.2912
  121MOL    O9424334   4.936   2.486   3.472  0.2011  0.0792  0.6774
  121MOL    C9524335   4.856   2.391   3.544 -0.2041  0.1898  0.2962
  121MOL    H9624336   5.185   2.468   3.253 -1.8531  0.8682 -1.5000
  121MOL    H9724337   5.109   2.605   3.329  0.2703  0.3750  0.5555
  121MOL    H9824338   5.029   2.324   3.391 -0.6541 -0.9353 -0.6915
  121MOL    H9924339   4.906   2.300   3.575  1.2081  0.7147 -0.3575
  121MOL   H10024340   4.811   2.451   3.623 -0.0963  0.0991  0.4285
  121MOL   H10124341   4.780   2.355   3.475  0.4418 -0.6917  0.0373
  121MOL   C10224342   4.919   2.432   3.233 -0.0623  0.2703  0.8156
  121MOL   C10324343   4.838   2.301   3.190 -0.0922  0.0346 -0.3758
  121MOL   O10424344   4.722   2.339   3.126 -0.1065  0.4437 -0.1852
  121MOL   C10524345   4.602   2.336   3.206 -0.6713 -0.5975  0.5670
  121MOL   H10624346   4.991   2.458   3.156 -0.2107 -0.9817  0.2358
  121MOL   H10724347   4.853   2.519   3.232  0.0447  0.4119  3.6322
  121MOL   H10824348   4.814   2.236   3.274 -1.9880 -0.5041 -1.3246
  121MOL   H10924349   4.598   2.240   3.258 -0.4043 -0.0620  1.5981
  121MOL   H11024350   4.599   2.409   3.288  0.1314  1.2518 -1.0146
  121MOL   H11124351   4.511   2.353   3.149  0.0303  1.6831  0.0834
  121MOL   C11224352   4.908   2.212   3.091  0.8048  0.0572 -0.4511
  121MOL   C11324353   5.039   2.148   3.146  0.3034 -1.2152  0.1312
  121MOL   O11424354   4.995   2.070   3.253 -0.1631  0.2714  0.1012
  121MOL   C11524355   5.091   2.005   3.334  0.2117 -0.2071  0.1085
  121MOL   H11624356   4.919   2.262   2.995 -0.3369  0.2694 -0.4846
  121MOL   H11724357   4.837   2.135   3.059 -0.1614  0.5354  0.5071
  121MOL   H11824358   5.100   2.223   3.195 -2.1628 -0.1285  1.6735
  121MOL   H11924359   5.156   1.929   3.291 -0.0830 -0.6823  0.4986
  121MOL   H12024360   5.156   2.073   3.389  0.4127 -0.5259  0.2658
  121MOL   H12124361   5.039   1.952   3.414  1.0184  1.1522  1.5702
  121MOL   C12224362   5.110   2.056   3.044 -0.4790 -0.0726  0.5141
  121MOL   C12324363   5.200   2.138   2.944 -0.4121  0.1726 -0.5959
  121MOL   O12424364   5.342   2.108   2.964 -0.3262 -0.2017  0.0054
  121MOL   C12524365   5.393   2.187   3.077 -0.6178 -0.3249  0.0587
  121MOL   H12624366   5.029   2.010   2.987 -0.0356  0.0905 -0.2536
  121MOL   H12724367   5.169   1.970   3.078  0.6558  0.2776 -0.5239
  121MOL   H12824368   5.174   2.241   2.964 -0.5003 -0.0889  0.6473
  121MOL   H12924369   5.362   2.292   3.074 -0.9697 -0.4398 -0.5672
  121MOL   H13024370   5.352   2.151   3.171  0.0446  1.2310  0.9624
  121MOL   H13124371   5.501   2.182   3.088 -0.4145  1.3058 -0.9074
  121MOL   C13224372   5.177   2.090   2.796 -0.3176 -0.2400  0.3746
  121MOL   C13324373   5.264   2.158   2.696 -0.1981 -0.1190  0.4015
  121MOL   O13424374   5.237   2.096   2.572  0.0971 -0.0529 -0.2527
  121MOL   C13524375   5.340   2.097   2.474  0.0592  0.4998  0.0081
  121MOL   H13624376   5.075   2.111   2.762 -1.2236 -2.7537  1.3580
  121MOL   H13724377   5.197   1.983   2.788 -0.9697 -0.5240  2.2299
  121MOL   H13824378   5.367   2.131   2.720  0.1396 -0.1393 -1.0195
  121MOL   H13924379   5.296   2.058   2.383  0.2794  0.6431 -0.1610
  121MOL   H14024380   5.378   2.199   2.465  0.3783  0.2700 -1.3202
  121MOL   H14124381   5.419   2.031   2.510  0.9961 -0.1030 -3.0640
  121MOL   C14224382   5.260   2.316   2.683 -0.2859 -0.0791  0.1473
  121MOL   C14324383   5.127   2.380   2.658  0.6155 -0.3268  0.1109
  121MOL   O14424384   5.076   2.445   2.774 -0.6580 -0.8041  0.0696
  121MOL   C14524385   4.929   2.454   2.775 -0.4992 -0.1165  0.6209
  121MOL   H14624386   5.334   2.348   2.610  1.0824 -0.5270  1.3047
  121MOL   H14724387   5.292   2.357   2.779  2.0176 -1.7517  0.1364
  121MOL   H14824388   5.056   2.303   2.628  1.8742 -1.3166 -0.3288
  121MOL   H14924389   4.892   2.354   2.795  1.3332 -0.2151  3.9546
  121MOL   H15024390   4.901   2.509   2.865 -0.2744 -0.2509  0.7728
  121MOL   H15124391   4.890   2.495   2.682 -2.0214  2.3289  2.2434
  121MOL   C15224392   5.125   2.481   2.537 -0.1992  0.5083 -0.2892
  121MOL   C15324393   5.142   2.418   2.401  0.0911 -0.3277  0.4771
  121MOL   O15424394   5.009   2.391   2.349  0.0638 -0.0760  0.3056
  121MOL   C15524395   4.977   2.254   2.325 -0.1202  0.9978 -0.0162
  121MOL   H15624396   5.205   2.549   2.565 -1.7176  0.6821  4.1214
  121MOL   H15724397   5.038   2.546   2.531 -0.6450  0.1863  2.0800
  121MOL   H15824398   5.202   2.327   2.399  2.1090  0.9898 -0.2977
  121MOL   H15924399   5.059   2.214   2.266 -0.1000  1.1653 -0.1013
  121MOL   H16024400   4.976   2.192   2.415 -1.9649  0.5652 -0.3273
  121MOL   H16124401   4.876   2.242   2.286  0.9029 -2.7041 -1.7380
  121MOL   C16224402   5.198   2.525   2.312  0.2739 -0.7472 -0.2129
  121MOL   C16324403   5.351   2.532   2.325  0.6045  0.2489  0.0711
  121MOL   O16424404   5.398   2.402   2.287  0.4629  0.2397 -0.0643
  121MOL   C16524405   5.534   2.378   2.328  0.5633  0.5491  0.0455
  121MOL   H16624406   5.148   2.618   2.339  0.9899 -0.0413 -1.2740
  121MOL   H16724407   5.171   2.506   2.208  1.1184  1.2051 -0.8038
  121MOL   H16824408   5.385   2.552   2.427 -2.3751  1.9467  0.7909
  121MOL   H16924409   5.553   2.399   2.433 -0.7210  2.2393 -0.0536
  121MOL   H17024410   5.571   2.276   2.314 -0.6936  0.2877 -1.4440
  121MOL   H17124411   5.609   2.444   2.285  0.6470 -0.3525 -1.2236
  121MOL   C17224412   5.412   2.635   2.231 -0.2480 -0.2493 -0.2645
  121MOL   C17324413   5.394   2.791   2.249 -0.1270  0.4655  0.3402
  121MOL   O17424414   5.453   2.827   2.372 -0.4205 -0.2019 -0.0960
  121MOL   C17524415   5.365   2.919   2.434 -0.1734 -0.7405  0.6238
  121MOL   H17624416   5.382   2.606   2.130  0.0435 -1.1966 -0.0869
  121MOL   H17724417   5.519   2.613   2.240 -0.7442 -3.0589 -0.6848
  121MOL   H17824418   5.285   2.798   2.248 -0.1127  0.8180 -1.0070
  121MOL   H17924419   5.268   2.871   2.450 -1.1255  1.5783  2.0746
  121MOL   H18024420   5.398   2.937   2.536 -1.0239  0.8503  0.6316
  121MOL   H18124421   5.363   3.017   2.386 -2.4930 -0.4758  1.1770
  121MOL   C18224422   5.458   2.879   2.132 -0.0462  0.6091  0.0399
  121MOL   C18324423   5.387   2.873   1.991  0.0037 -0.5734  0.3333
  121MOL   O18424424   5.247   2.914   1.994  0.4080  0.0591  0.0316
  121MOL   C18524425   5.218   3.048   2.027  0.5294  0.2439  0.5595
  121MOL   H18624426   5.563   2.851   2.124 -0.1214 -0.6909  3.0202
  121MOL   H18724427   5.464   2.982   2.168  0.8164 -0.1051  2.0413
  121MOL   H18824428   5.391   2.765   1.978 -2.6538 -0.6202 -0.5647
  121MOL   H18924429   5.243   3.119   1.948  0.5904 -1.4461 -0.9662
  121MOL   H19024430   5.110   3.051   2.041  0.0578 -2.3302 -1.9258
  121MOL   H19124431   5.265   3.073   2.122  0.2907  1.0445  0.4665
  121MOL   C19224432   5.466   2.961   1.879  0.7227  0.3218  0.4976
  121MOL   C19324433   5.424   2.928   1.738  0.0828 -0.1527 -0.6196
  121MOL   O19424434   5.526   2.978   1.648 -0.1040 -0.0407  0.5441
  121MOL   C19524435   5.506   2.949   1.510  0.1900  0.0690 -0.2173
  121MOL   H19624436   5.564   2.916   1.893  1.5932  1.1827 -2.5160
  121MOL   H19724437   5.461   3.068   1.898 -0.0487  0.4603 -0.4688
  121MOL   H19824438   5.317   2.952   1.733 -0.5224 -1.5472  3.5964
  121MOL   H19924439   5.405   2.975   1.479 -0.2705  0.1655  1.3202
  121MOL   H20024440   5.576   3.017   1.462  2.0842  0.3804  2.8365
  121MOL   H20124441   5.526   2.843   1.492  2.1947 -0.0922  2.6952
  121MOL   H20224442   5.425   2.819   1.733 -0.7845 -0.2196  0.5262
  122MOL     C124443   5.956   1.828   0.897  0.6639 -0.2908  0.0895
  122MOL     C224444   6.011   1.958   0.967  0.2531  0.5292 -0.0679
  122MOL     O324445   5.911   2.042   1.037  0.7003  0.4354 -0.3095
  122MOL     C424446   5.818   2.087   0.936 -0.3255  0.4609  0.7082
  122MOL     H524447   5.894   1.848   0.810  0.3179  1.3583  0.6889
  122MOL     H624448   6.039   1.768   0.860 -1.0991 -0.0472 -4.6153
  122MOL     H724449   6.067   2.012   0.890  0.2361 -0.6568 -0.9160
  122MOL     H824450   5.866   2.106   0.840 -1.0972  0.0669  0.2461
  122MOL     H924451   5.743   2.009   0.925  1.0641 -0.6126 -1.4816
  122MOL    H1024452   5.785   2.184   0.973 -1.4093 -0.4553  2.2152
  122MOL    H1124453   5.897   1.776   0.971 -0.5205  0.3243 -0.4115
  122MOL    C1224454   6.112   1.915   1.077 -0.1136 -0.4660 -0.1200
  122MOL    C1324455   6.205   2.028   1.139 -0.8289  0.0632  0.1358
  122MOL    O1424456   6.137   2.108   1.232  0.3486  0.6334  0.4034
  122MOL    C1524457   6.113   2.240   1.194 -0.9415 -0.3183 -0.5795
  122MOL    H1624458   6.168   1.829   1.039  1.9525 -0.2393  2.2833
  122MOL    H1724459   6.059   1.875   1.164 -0.5528 -1.3281 -0.7718
  122MOL    H1824460   6.255   2.072   1.052 -2.0938  0.1184 -0.5815
  122MOL    H1924461   6.075   2.293   1.281 -0.7591 -1.7567  0.3899
  122MOL    H2024462   6.200   2.293   1.155 -0.6989 -1.6982 -1.9455
  122MOL    H2124463   6.040   2.245   1.113 -0.4096 -0.5035 -1.0776
  122MOL    C2224464   6.319   1.958   1.219  0.9777 -0.7462 -0.9383
  122MOL    C2324465   6.433   2.052   1.253  0.3631  0.8467  0.3025
  122MOL    O2424466   6.475   2.120   1.133 -0.0866 -0.3854 -0.5758
  122MOL    C2524467   6.548   2.038   1.039 -0.5889  0.2806 -0.0102
  122MOL    H2624468   6.362   1.879   1.157  1.3700 -2.0554  0.9728
  122MOL    H2724469   6.268   1.905   1.299 -0.8744  1.4307 -0.6409
  122MOL    H2824470   6.518   1.993   1.286 -1.2118 -2.1379 -0.8314
  122MOL    H2924471   6.490   1.965   0.983  0.1426  1.3726 -2.2380
  122MOL    H3024472   6.586   2.097   0.956  0.0132 -0.3662 -0.2036
  122MOL    H3124473   6.631   1.976   1.074  0.1075  0.3355 -1.5325
  122MOL    C3224474   6.423   2.159   1.366 -0.1774 -0.0250  0.7930
  122MOL    C3324475   6.437   2.125   1.516  0.0699  0.0455 -0.0273
  122MOL    O3424476   6.358   2.005   1.533  0.0004 -0.2787  0.1683
  122MOL    C3524477   6.215   2.004   1.564 -0.8022  0.0770  0.3585
  122MOL    H3624478   6.329   2.214   1.358 -0.1062 -0.2546 -2.3916
  122MOL    H3724479   6.499   2.235   1.346 -0.6376  1.0106  2.8334
  122MOL    H3824480   6.395   2.209   1.572  0.2857  0.6732 -0.7895
  122MOL    H3924481   6.222   2.076   1.645  0.2603  0.2077  0.1561
  122MOL    H4024482   6.150   2.057   1.494 -0.1470 -0.5684 -0.7535
  122MOL    H4124483   6.170   1.911   1.598  0.2450 -0.0512  1.3966
  122MOL    C4224484   6.583   2.079   1.557 -0.0514 -0.2890  0.1704
  122MOL    C4324485   6.618   2.131   1.701  0.3575  0.6681  0.3132
  122MOL    O4424486   6.744   2.067   1.732  0.2946 -0.3155 -0.4899
  122MOL    C4524487   6.736   1.948   1.799  0.4457  0.0595  0.4261
  122MOL    H4624488   6.659   2.100   1.482  0.5569  0.7509  1.0661
  122MOL    H4724489   6.588   1.971   1.570 -1.2336 -0.3503  0.1645
  122MOL    H4824490   6.542   2.095   1.770  1.3844 -2.3455 -0.0794
  122MOL    H4924491   6.830   1.907   1.838  1.0053  0.5144 -0.4275
  122MOL    H5024492   6.674   1.975   1.884  0.7725 -1.3358  1.1188
  122MOL    H5124493   6.693   1.875   1.730 -0.0864 -0.3601  1.1951
  122MOL    C5224494   6.620   2.290   1.721 -0.2060 -0.5968 -0.0227
  122MOL    C5324495   6.725   2.353   1.628  0.4035 -0.0009 -0.4292
  122MOL    O5424496   6.664   2.365   1.498  0.1608  0.4655 -0.0679
  122MOL    C5524497   6.756   2.394   1.388 -0.2609 -0.5229  0.5046
  122MOL    H5624498   6.645   2.310   1.825  0.4072  0.9998 -0.4691
  122MOL    H5724499   6.520   2.331   1.707  1.1842  2.6146 -1.0105
  122MOL    H5824500   6.814   2.289   1.632  0.5789  0.3035  0.6899
  122MOL    H5924501   6.824   2.474   1.417  0.0476 -0.4273 -0.4577
  122MOL    H6024502   6.805   2.299   1.366  0.1500 -0.5102  1.3482
  122MOL    H6124503   6.706   2.407   1.292 -1.6008  0.7500  1.3492
  122MOL    C6224504   6.770   2.491   1.675  0.5404  0.0610 -0.5739
  122MOL    C6324505   6.658   2.596   1.684  0.4982  0.1602  0.0686
  122MOL    O6424506   6.596   2.588   1.816  0.7934  0.3532 -0.5836
  122MOL    C6524507   6.465   2.640   1.815 -0.4853 -0.1148  0.2067
  122MOL    H6624508   6.851   2.525   1.611  0.4867 -0.8408 -1.1250
  122MOL    H6724509   6.809   2.493   1.777 -1.1494  1.0804  0.0910
  122MOL    H6824510   6.587   2.573   1.605 -0.8937  0.4829  1.2244
  122MOL    H6924511   6.407   2.613   1.727 -0.2700  1.3038 -0.3772
  122MOL    H7024512   6.417   2.617   1.911  0.8751  0.7359  1.0993
  122MOL    H7124513   6.459   2.748   1.812 -2.7729 -0.2260 -0.3456
  122MOL    C7224514   6.702   2.741   1.661 -0.3121  0.3838  0.8413
  122MOL    C7324515   6.760   2.790   1.523 -0.3212 -0.1929  0.2076
  122MOL    O7424516   6.660   2.774   1.426  0.2506 -0.1086 -0.7614
  122MOL    C7524517   6.700   2.763   1.290 -0.2089  0.5938 -0.1050
  122MOL    H7624518   6.787   2.751   1.728  1.4934 -0.9153 -1.1962
  122MOL    H7724519   6.620   2.806   1.690 -0.9039  0.8849 -1.8266
  122MOL    H7824520   6.840   2.717   1.511 -0.5805 -0.8356  2.1875
  122MOL    H7924521   6.760   2.849   1.260  0.1995 -0.4472 -2.4392
  122MOL    H8024522   6.777   2.687   1.274  0.9012  1.5231  0.7999
  122MOL    H8124523   6.608   2.745   1.234 -0.9998 -0.7668  1.5900
  122MOL    C8224524   6.813   2.937   1.533  0.0497 -0.3345  0.3830
  122MOL    C8324525   6.939   2.964   1.616  0.2402  0.5574  0.4243
  122MOL    O8424526   7.036   2.864   1.578  0.3056 -0.1967  0.2819
  122MOL    C8524527   7.068   2.768   1.669 -0.4564 -0.0726 -0.3032
  122MOL    H8624528   6.728   3.006   1.531 -1.3845 -2.0668 -0.5282
  122MOL    H8724529   6.848   2.962   1.433  0.1794  3.2532  1.2562
  122MOL    H8824530   6.908   2.960   1.720  2.3370 -0.3704  1.0389
  122MOL    H8924531   7.134   2.697   1.620  0.5824  0.8255 -0.2299
  122MOL    H9024532   7.126   2.802   1.755  0.5026 -0.4433 -0.7917
  122MOL    H9124533   6.988   2.706   1.708 -3.2632  2.5856 -1.6669
  122MOL    C9224534   6.991   3.111   1.583  0.1720 -0.7341  0.3292
  122MOL    C9324535   7.127   3.143   1.650  0.7089 -0.3438 -0.5985
  122MOL    O9424536   7.192   3.254   1.593 -0.0123 -0.1925  0.3289
  122MOL    C9524537   7.308   3.225   1.506  0.3308 -1.0990 -0.4449
  122MOL    H9624538   6.918   3.186   1.612  2.2005  0.9076  1.3459
  122MOL    H9724539   6.982   3.128   1.475  2.1395  0.3549  0.3119
  122MOL    H9824540   7.199   3.063   1.632  1.2397 -0.1582  0.6479
  122MOL    H9924541   7.268   3.191   1.411  0.0299  0.4227 -0.8764
  122MOL   H10024542   7.364   3.316   1.483 -1.5298  0.3093  0.4319
  122MOL   H10124543   7.370   3.143   1.543  0.1971 -0.9667  0.0846
  122MOL   C10224544   7.111   3.161   1.801 -0.1428 -0.1267  0.0696
  122MOL   C10324545   7.241   3.176   1.880 -0.0212  0.0417 -0.6520
  122MOL   O10424546   7.212   3.248   2.003 -0.3466  0.5101 -0.2613
  122MOL   C10524547   7.217   3.383   1.981  0.2874 -0.1743  0.1487
  122MOL   H10624548   7.055   3.077   1.842 -3.5270  1.3325 -1.2836
  122MOL   H10724549   7.051   3.246   1.836  0.1036 -0.4404  1.2930
  122MOL   H10824550   7.323   3.220   1.823  2.0358  0.0262  2.1787
  122MOL   H10924551   7.200   3.429   2.079 -1.8311 -0.8288  0.1115
  122MOL   H11024552   7.309   3.414   1.930 -1.1383 -0.7011 -2.8648
  122MOL   H11124553   7.142   3.420   1.911  0.2231 -0.0276  0.2928
  122MOL   C11224554   7.290   3.032   1.925 -0.5575  0.5951 -0.2488
  122MOL   C11324555   7.410   3.039   2.028  0.0823 -0.4136 -0.0162
  122MOL   O11424556   7.416   2.917   2.092 -0.0061  0.2794  0.0927
  122MOL   C11524557   7.437   2.918   2.230 -0.2621  0.3084  1.0537
  122MOL   H11624558   7.299   2.966   1.839 -0.6362  1.5682 -1.0273
  122MOL   H11724559   7.208   2.992   1.984  0.9614 -0.7586  0.9650
  122MOL   H11824560   7.373   3.111   2.102 -0.2194  0.4616 -1.0082
  122MOL   H11924561   7.525   2.974   2.262 -0.1148  2.3327 -2.6222
  122MOL   H12024562   7.347   2.954   2.279 -2.5974 -0.9317 -2.1578
  122MOL   H12124563   7.445   2.813   2.259  0.2018 -0.7986 -2.7982
  122MOL   C12224564   7.541   3.087   1.981  0.4583 -0.6220  0.7381
  122MOL   C12324565   7.595   3.005   1.863 -0.1009  0.4735  0.1577
  122MOL   O12424566   7.528   3.040   1.744  0.4089 -0.1610  1.0008
  122MOL   C12524567   7.524   2.927   1.651  0.5127  0.6760 -0.7583
  122MOL   H12624568   7.610   3.092   2.065  1.1182  0.8961  0.0998
  122MOL   H12724569   7.520   3.188   1.949  2.1803 -0.5808 -0.3282
  122MOL   H12824570   7.573   2.899   1.880 -0.7275  0.7517  1.1560
  122MOL   H12924571   7.505   2.963   1.550  0.2166  0.8322 -0.6483
  122MOL   H13024572   7.616   2.869   1.659 -0.0682 -0.0209  1.2240
  122MOL   H13124573   7.438   2.864   1.674 -0.4160  1.6120 -1.5572
  122MOL   C13224574   7.753   3.029   1.847  0.1781  0.4475 -0.0504
  122MOL   C13324575   0.029   2.921   1.917  0.0053  0.6733 -0.6146
  122MOL   O13424576   0.165   2.969   1.921 -0.6747 -0.4227 -0.4872
  122MOL   C13524577   0.231   2.975   1.792  0.3228 -0.5042 -0.4374
  122MOL   H13624578   7.783   3.124   1.891  1.0200  0.7336 -1.2430
  122MOL   H13724579   7.784   3.033   1.743 -1.1785 -0.5218 -0.5111
  122MOL   H13824580   0.026   2.829   1.859 -1.8783 -2.4607  4.0681
  122MOL   H13924581   0.215   3.070   1.742 -0.5215 -0.4425 -0.0561
  122MOL   H14024582   0.338   2.961   1.806  0.6502  2.1772 -0.0124
  122MOL   H14124583   0.198   2.890   1.732 -1.3290 -1.6601  1.9986
  122MOL   C14224584   7.806   2.869   2.052 -0.0408 -0.6235 -0.5604
  122MOL   C14324585   0.088   2.750   2.094 -0.0016  0.2214  0.0429
  122MOL   O14424586   0.031   2.715   2.216 -0.3382  0.2847  0.1673
  122MOL   C14524587   0.113   2.651   2.313 -0.6895  0.5799 -0.4125
  122MOL   H14624588   7.708   2.823   2.050  0.0144 -0.8247  0.9116
  122MOL   H14724589   7.810   2.943   2.131  1.0756 -3.6663  2.3338
  122MOL   H14824590   0.193   2.780   2.098  0.4356 -1.4566  3.0967
  122MOL   H14924591   0.213   2.695   2.317 -0.3720 -0.1858  0.1780
  122MOL   H15024592   0.064   2.662   2.409 -0.8441  0.5050 -0.4832
  122MOL   H15124593   0.123   2.544   2.292 -2.5779 -0.0239  1.5673
  122MOL   C15224594   0.072   2.619   2.011 -0.1883 -0.1608  0.0967
  122MOL   C15324595   7.740   2.567   1.994  0.3174  0.1686  0.5576
  122MOL   O15424596   7.747   2.464   1.894  0.0209  0.9637  0.4266
  122MOL   C15524597   7.712   2.500   1.759  0.5789  0.2683  0.3917
  122MOL   H15624598   0.134   2.539   2.052 -0.9597 -1.9368 -2.0872
  122MOL   H15724599   0.094   2.642   1.907 -0.9332  0.1507  0.0059
  122MOL   H15824600   7.678   2.644   1.947  1.3458 -1.6262 -4.0256
  122MOL   H15924601   7.603   2.505   1.752  0.4241 -1.0201  1.5906
  122MOL   H16024602   7.760   2.590   1.719  0.1188  0.2125 -0.2959
  122MOL   H16124603   7.744   2.414   1.701 -2.0682 -1.8354  1.9470
  122MOL   C16224604   7.677   2.506   2.120  0.0750 -0.3770  0.0485
  122MOL   C16324605   7.546   2.433   2.084  0.0111 -0.3054  0.0500
  122MOL   O16424606   7.480   2.386   2.202 -0.9384  0.0237 -0.0800
  122MOL   C16524607   7.527   2.264   2.256 -0.1998  0.1728  0.3693
  122MOL   H16624608   7.659   2.587   2.190 -2.0451 -1.4505  0.8054
  122MOL   H16724609   7.741   2.438   2.176  0.0017 -0.3252  0.1927
  122MOL   H16824610   7.571   2.340   2.031 -1.5474 -0.9866  0.4950
  122MOL   H16924611   7.484   2.195   2.184  2.5220  0.2930 -1.4588
  122MOL   H17024612   7.636   2.262   2.260  0.0863  6.6205  0.8355
  122MOL   H17124613   7.495   2.248   2.359 -0.3699 -0.6121  0.1978
  122MOL   C17224614   7.439   2.521   2.015 -0.0286  0.4561 -0.1828
  122MOL   C17324615   7.308   2.445   1.972  0.0292 -0.3708 -0.2880
  122MOL   O17424616   7.214   2.542   1.924  0.4010  0.0862  0.1560
  122MOL   C17524617   7.162   2.639   2.023 -0.2749  0.3111 -0.1508
  122MOL   H17624618   7.461   2.593   1.936 -0.3599 -2.5371 -3.1248
  122MOL   H17724619   7.401   2.583   2.096 -0.3408  0.9484 -0.6916
  122MOL   H17824620   7.273   2.397   2.064  0.3703  2.3345  1.3095
  122MOL   H17924621   7.142   2.580   2.113 -0.7622  1.0047  0.1953
  122MOL   H18024622   7.238   2.716   2.035  3.5784 -3.4944  1.1221
  122MOL   H18124623   7.069   2.684   1.988 -1.6784 -0.5775  2.3217
  122MOL   C18224624   7.344   2.334   1.867  0.4497  0.6472 -0.7055
  122MOL   C18324625   7.226   2.239   1.854 -0.0090  0.9208 -1.0087
  122MOL   O18424626   7.196   2.205   1.720  0.4170 -0.0300  0.5714
  122MOL   C18524627   7.053   2.198   1.695 -0.3350  0.1471  0.0500
  122MOL   H18624628   7.427   2.270   1.897  1.5795  1.6199 -1.7065
  122MOL   H18724629   7.357   2.390   1.775 -1.2732  2.8465  0.3498
  122MOL   H18824630   7.133   2.277   1.896 -0.2539  0.7728 -1.4174
  122MOL   H18924631   6.996   2.134   1.763  0.2302 -1.7351 -1.1839
  122MOL   H19024632   7.012   2.299   1.696 -0.7377 -0.0164  0.3396
  122MOL   H19124633   7.037   2.173   1.590 -0.4533  0.7384 -0.0725
  122MOL   C19224634   7.257   2.110   1.931  0.4701 -0.3610 -0.0499
  122MOL   C19324635   7.144   2.000   1.940 -0.9496  0.4320 -0.6686
  122MOL   O19424636   7.195   1.911   2.048 -0.0194  0.6212 -0.1257
  122MOL   C19524637   7.267   1.797   2.009  0.1026  0.1105  0.2801
  122MOL   H19624638   7.285   2.145   2.031 -0.6044  0.3614  0.0042
  122MOL   H19724639   7.349   2.066   1.892  0.3275 -2.3423  1.7743
  122MOL   H19824640   7.138   1.945   1.847 -0.4686  0.0421 -0.4746
  122MOL   H19924641   7.303   1.736   2.092 -1.0457  0.7457  1.2649
  122MOL   H20024642   7.204   1.730   1.950  0.6395  0.8469 -1.1594
  122MOL   H20124643   7.363   1.821   1.965  0.2910 -0.1940  0.5270
  122MOL   H20224644   7.053   2.052   1.970 -1.1937 -1.0875  1.3896
  123MOL     C124645   5.365   1.078   6.311 -0.1595  1.0796  0.4613
  123MOL     C224646   5.509   1.023   6.274 -0.2846  0.1760  0.9808
  123MOL     O324647   5.578   1.045   6.395  0.5176  0.6881  0.3893
  123MOL     C424648   5.657   1.165   6.395  0.2409  0.1041  0.0392
  123MOL     H524649   5.296   1.076   6.227 -0.4271  0.3540  0.6947
  123MOL     H624650   5.310   1.022   6.387 -1.5219  1.6796 -0.0598
  123MOL     H724651   5.541   1.077   6.184  0.5166  1.0077  1.7451
  123MOL     H824652   5.592   1.252   6.394  0.4080  0.2529  1.1199
  123MOL     H924653   5.703   1.162   6.494 -1.2458 -0.1761  0.7264
  123MOL    H1024654   5.735   1.170   6.319  0.4773 -1.0998  0.1944
  123MOL    H1124655   5.371   1.180   6.347  0.4726  1.0052  0.5706
  123MOL    C1224656   5.526   0.873   6.235  0.2410 -0.0228  0.9591
  123MOL    C1324657   5.667   0.828   6.174 -1.2796 -0.1557 -0.5839
  123MOL    O1424658   5.698   0.918   6.068  0.3512  0.0313  0.2321
  123MOL    C1524659   5.641   0.887   5.943  0.2883 -0.0954 -0.4835
  123MOL    H1624660   5.449   0.854   6.160 -0.7156  2.6478  1.1989
  123MOL    H1724661   5.493   0.818   6.324  0.3338  0.2694  1.1741
  123MOL    H1824662   5.662   0.726   6.136  0.7777 -1.5813  2.6412
  123MOL    H1924663   5.662   0.967   5.872  0.6296  1.2484  1.1241
  123MOL    H2024664   5.684   0.798   5.896 -0.6609 -0.6389 -0.3174
  123MOL    H2124665   5.533   0.882   5.934  0.0676 -0.4584  2.0308
  123MOL    C2224666   5.781   0.844   6.277 -0.0958  0.5278 -0.1212
  123MOL    C2324667   5.916   0.781   6.250 -1.3927  0.9180  0.1520
  123MOL    O2424668   5.893   0.638   6.257 -0.4799  0.0736  0.3387
  123MOL    C2524669   6.017   0.567   6.263 -0.1635 -0.3759  0.3354
  123MOL    H2624670   5.737   0.812   6.372 -0.2983  0.6824 -0.1617
  123MOL    H2724671   5.801   0.950   6.292  0.3627  0.5520 -0.8791
  123MOL    H2824672   5.981   0.792   6.337  0.1096  0.0158 -0.8256
  123MOL    H2924673   6.063   0.560   6.164  0.0126  0.7060  0.3308
  123MOL    H3024674   6.090   0.607   6.334  2.1178 -0.4144 -1.9282
  123MOL    H3124675   5.990   0.470   6.305 -1.2412 -0.5481 -0.7433
  123MOL    C3224676   5.991   0.833   6.124 -0.5556 -0.4290  0.0007
  123MOL    C3324677   6.027   0.979   6.120 -0.4702  0.4777 -0.5118
  123MOL    O3424678   6.111   1.014   6.234  0.2489  0.5866 -0.0769
  123MOL    C3524679   6.074   1.113   6.323  0.4462 -0.8881 -0.5475
  123MOL    H3624680   5.940   0.795   6.036  0.8623  0.2043 -1.1143
  123MOL    H3724681   6.091   0.790   6.120 -1.0530 -1.3904 -3.2033
  123MOL    H3824682   5.928   1.025   6.122  0.2070  1.9693 -0.4287
  123MOL    H3924683   5.984   1.071   6.369  1.9119 -3.8161 -0.2377
  123MOL    H4024684   6.147   1.109   6.404 -1.4039 -1.7619  1.1452
  123MOL    H4124685   6.066   1.210   6.274  1.5219  0.6630  2.2254
  123MOL    C4224686   6.099   1.029   5.993  0.2683  0.2613  0.2502
  123MOL    C4324687   6.087   1.189   5.966  0.8834 -0.2454  0.4022
  123MOL    O4424688   6.156   1.213   5.842  1.4380  0.2648  0.3480
  123MOL    C4524689   6.295   1.240   5.856 -0.4380  0.2595  0.5311
  123MOL    H4624690   6.051   0.977   5.910  2.5820 -1.6911  0.0965
  123MOL    H4724691   6.201   0.992   5.996 -0.1624 -1.0728 -0.7280
  123MOL    H4824692   6.137   1.228   6.055  4.7748 -2.0095 -0.8621
  123MOL    H4924693   6.352   1.149   5.874 -0.2161  1.0435  4.1361
  123MOL    H5024694   6.322   1.279   5.758 -2.8623  1.5137  0.3236
  123MOL    H5124695   6.316   1.312   5.936  0.6544 -1.2137  1.5949
  123MOL    C5224696   5.945   1.250   5.956  0.3676 -0.4300 -0.1818
  123MOL    C5324697   5.939   1.397   5.915 -0.7089 -0.3995 -0.0186
  123MOL    O5424698   5.803   1.426   5.913  0.3675 -0.5033  0.4001
  123MOL    C5524699   5.758   1.443   5.781 -0.0077  0.2242  0.0389
  123MOL    H5624700   5.884   1.230   6.045 -1.0741 -1.9259 -1.4867
  123MOL    H5724701   5.891   1.204   5.874 -1.2090  1.0893 -0.0085
  123MOL    H5824702   5.992   1.399   5.820 -0.3648 -0.6800  0.1672
  123MOL    H5924703   5.652   1.469   5.780 -0.1438 -0.2332 -3.5557
  123MOL    H6024704   5.810   1.520   5.724 -2.3047  1.9822  0.2369
  123MOL    H6124705   5.775   1.345   5.738  0.7729  0.1346  0.5467
  123MOL    C6224706   6.006   1.479   6.026  0.0565 -0.1627  0.2478
  123MOL    C6324707   6.032   1.635   5.997  0.2804  0.5922 -0.7475
  123MOL    O6424708   6.090   1.700   6.108  0.7765  0.4459  0.1805
  123MOL    C6524709   6.007   1.742   6.209 -0.0666 -0.6995  0.0123
  123MOL    H6624710   6.099   1.435   6.063  1.8685  1.6942 -1.9671
  123MOL    H6724711   5.939   1.487   6.112 -0.0101  0.9631  0.0967
  123MOL    H6824712   5.948   1.698   5.967 -0.1119  0.1749 -0.5410
  123MOL    H6924713   5.928   1.676   6.242 -0.1520  0.0143  1.2726
  123MOL    H7024714   6.077   1.774   6.287 -1.7834  2.4126  0.3717
  123MOL    H7124715   5.949   1.828   6.174  1.2591  0.6036  0.9372
  123MOL    C7224716   6.129   1.637   5.875  0.3991 -0.0532  0.0928
  123MOL    C7324717   6.195   1.779   5.849 -0.3065  0.0101 -0.3363
  123MOL    O7424718   6.287   1.766   5.737 -0.0262 -0.2971 -0.3849
  123MOL    C7524719   6.414   1.708   5.758 -0.7722  0.2151  0.1227
  123MOL    H7624720   6.086   1.609   5.780  0.9972  0.2709 -0.2764
  123MOL    H7724721   6.202   1.557   5.886 -0.7771 -1.3075 -1.0644
  123MOL    H7824722   6.259   1.797   5.936  0.9039 -1.0035 -1.0074
  123MOL    H7924723   6.462   1.782   5.822  1.0379 -0.2951 -0.6346
  123MOL    H8024724   6.426   1.609   5.802  3.2410  1.5756  2.3135
  123MOL    H8124725   6.466   1.702   5.662 -2.2294 -0.3608 -0.6521
  123MOL    C8224726   6.101   1.890   5.816  0.5355  0.3013 -0.0758
  123MOL    C8324727   6.162   2.023   5.779 -0.5584 -0.2747 -0.1688
  123MOL    O8424728   6.057   2.107   5.739 -0.5423 -0.0096 -0.4018
  123MOL    C8524729   6.076   2.154   5.608  0.5027 -0.2032 -0.7928
  123MOL    H8624730   6.034   1.910   5.900 -0.6474  0.1720 -0.9865
  123MOL    H8724731   6.043   1.852   5.732 -1.2143  1.7293  0.4566
  123MOL    H8824732   6.234   2.004   5.701  0.3716  0.6980  0.4318
  123MOL    H8924733   6.156   2.224   5.583 -1.2504  2.7577  1.5257
  123MOL    H9024734   6.094   2.069   5.542  0.1994  0.6535 -1.9960
  123MOL    H9124735   5.980   2.197   5.581 -0.1679  0.0837  1.8725
  123MOL    C9224736   6.233   2.095   5.904 -0.3190 -0.7367  0.5086
  123MOL    C9324737   6.292   2.233   5.875 -0.8328 -0.0549 -0.2780
  123MOL    O9424738   6.350   2.275   5.998 -0.1147 -0.7438 -0.5248
  123MOL    C9524739   6.258   2.347   6.083 -0.1551  0.0937 -0.7546
  123MOL    H9624740   6.307   2.036   5.959 -1.1447 -1.5374  0.7738
  123MOL    H9724741   6.156   2.107   5.980 -0.3695 -2.4939  0.7569
  123MOL    H9824742   6.208   2.296   5.848 -0.3104  0.4547 -0.7323
  123MOL    H9924743   6.208   2.429   6.030 -1.0303 -0.2984 -0.5530
  123MOL   H10024744   6.179   2.285   6.125  0.1612 -0.6351 -1.2393
  123MOL   H10124745   6.316   2.387   6.166 -2.5258  0.3955  0.8231
  123MOL   C10224746   6.400   2.250   5.764 -0.2779 -0.0043  0.0452
  123MOL   C10324747   6.424   2.388   5.707  0.1943  0.2263 -0.7252
  123MOL   O10424748   6.296   2.437   5.657  0.1727  0.1562 -0.4649
  123MOL   C10524749   6.301   2.519   5.546 -0.0621 -0.5213 -0.3985
  123MOL   H10624750   6.369   2.188   5.679  0.5510  0.5521 -0.6609
  123MOL   H10724751   6.494   2.206   5.797 -1.7374 -0.8757  3.2654
  123MOL   H10824752   6.486   2.378   5.618 -0.9229  0.6160 -1.5627
  123MOL   H10924753   6.205   2.563   5.521  1.0315  1.5246 -1.0823
  123MOL   H11024754   6.353   2.614   5.558  0.3618 -1.0038  1.7444
  123MOL   H11124755   6.343   2.469   5.458 -1.0752  0.6535 -1.5656
  123MOL   C11224756   6.484   2.490   5.814  0.2244  0.2700  0.6218
  123MOL   C11324757   6.623   2.467   5.850 -0.8108  0.1063  0.3833
  123MOL   O11424758   6.693   2.481   5.721 -0.0660 -0.6074  0.3225
  123MOL   C11524759   6.819   2.409   5.711 -0.1033  0.9216 -0.6376
  123MOL   H11624760   6.428   2.494   5.907  0.9155  2.1809  0.9727
  123MOL   H11724761   6.489   2.583   5.757  0.0673 -1.1064 -1.6966
  123MOL   H11824762   6.640   2.364   5.879 -1.3868 -0.1879 -0.3160
  123MOL   H11924763   6.896   2.442   5.782  0.0901 -1.0520  0.0960
  123MOL   H12024764   6.805   2.303   5.731 -0.3341  1.1022  0.2167
  123MOL   H12124765   6.853   2.402   5.608  1.2124  0.4194 -0.1781
  123MOL   C12224766   6.675   2.555   5.964  0.2851  0.1252  0.5563
  123MOL   C12324767   6.647   2.501   6.106 -0.1580  0.7995  0.1534
  123MOL   O12424768   6.728   2.386   6.108 -0.0001  0.1773 -0.3361
  123MOL   C12524769   6.666   2.275   6.172  0.4535  0.3283 -0.6591
  123MOL   H12624770   6.636   2.656   5.950  0.7712  0.3792  1.0415
  123MOL   H12724771   6.783   2.568   5.957  0.5718 -2.4095 -0.3744
  123MOL   H12824772   6.543   2.469   6.108  0.1717 -0.2287  1.2328
  123MOL   H12924773   6.664   2.289   6.280  1.7140 -2.3001 -0.2621
  123MOL   H13024774   6.587   2.229   6.114 -0.9245  0.1871  1.2862
  123MOL   H13124775   6.738   2.193   6.172  1.4814  1.2101  0.1976
  123MOL   C13224776   6.690   2.598   6.221 -0.1610 -0.2980 -0.1600
  123MOL   C13324777   6.571   2.674   6.287  0.3929  0.7568 -0.3953
  123MOL   O13424778   6.467   2.584   6.323 -0.1697  0.3636  0.1162
  123MOL   C13524779   6.479   2.505   6.437 -0.3230 -0.4307 -0.4352
  123MOL   H13624780   6.748   2.681   6.180  0.2029 -0.5250 -0.1007
  123MOL   H13724781   6.753   2.549   6.295 -0.4680 -0.4840 -0.0171
  123MOL   H13824782   6.549   2.735   6.199 -0.0954  1.0405 -0.0797
  123MOL   H13924783   6.560   2.432   6.435  1.2751  1.3272 -1.0978
  123MOL   H14024784   6.494   2.557   6.531 -0.0616  0.8475 -1.1652
  123MOL   H14124785   6.384   2.451   6.438 -1.2132  1.0374 -2.0570
  123MOL   C14224786   6.602   2.777   6.400  0.6912  0.1851  0.6754
  123MOL   C14324787   6.479   2.858   6.450 -0.4383  0.3352 -0.1399
  123MOL   O14424788   6.545   2.923   6.560 -0.5845 -0.1823  0.0345
  123MOL   C14524789   6.472   2.944   6.675 -0.3040  0.2465 -0.1021
  123MOL   H14624790   6.682   2.835   6.355 -0.0082 -0.5033 -1.5435
  123MOL   H14724791   6.650   2.728   6.484  3.2609  0.4084 -0.6349
  123MOL   H14824792   6.408   2.784   6.488  0.6249  0.0808  1.3915
  123MOL   H14924793   6.539   3.005   6.737  0.7978 -0.1946 -0.8456
  123MOL   H15024794   6.388   3.005   6.641 -1.7092 -0.7256  1.5768
  123MOL   H15124795   6.452   2.856   6.736 -0.0616  0.1836 -0.1101
  123MOL   C15224796   6.420   2.963   6.353  0.1733 -0.7265 -0.3712
  123MOL   C15324797   6.295   2.911   6.282  0.8448  0.1254  0.2692
  123MOL   O15424798   6.189   2.889   6.380  0.5537 -0.7184  0.1788
  123MOL   C15524799   6.111   2.774   6.346  0.5161 -0.1815 -0.2195
  123MOL   H15624800   6.492   3.018   6.292 -0.9623  3.3779  1.8471
  123MOL   H15724801   6.375   3.043   6.411  0.1486 -1.5192  0.7078
  123MOL   H15824802   6.327   2.816   6.239  2.4068  0.6355  0.2446
  123MOL   H15924803   6.022   2.777   6.409  0.0290  1.4189 -0.9451
  123MOL   H16024804   6.082   2.784   6.241 -0.6582  1.9310  0.2661
  123MOL   H16124805   6.161   2.678   6.357 -1.0091 -0.7753  1.8487
  123MOL   C16224806   6.252   3.000   6.167 -0.2675 -0.4355 -0.1932
  123MOL   C16324807   6.335   2.953   6.044  0.2996 -0.5547 -0.4502
  123MOL   O16424808   6.242   2.854   5.984 -0.0299 -0.1681  0.4376
  123MOL   C16524809   6.296   2.726   5.967  0.1511  0.3454  0.6420
  123MOL   H16624810   6.272   3.104   6.194 -1.5913  0.5362 -2.8243
  123MOL   H16724811   6.148   2.984   6.138 -0.3151  0.2609 -0.4154
  123MOL   H16824812   6.426   2.903   6.077  0.1994  1.1176  2.5396
  123MOL   H16924813   6.356   2.731   5.876 -0.3504  1.2722  0.3609
  123MOL   H17024814   6.359   2.683   6.045  2.6772  0.0855 -1.4511
  123MOL   H17124815   6.219   2.654   5.942  0.1963  0.0098  1.4512
  123MOL   C17224816   6.357   3.059   5.939  0.3588  0.4936  0.9880
  123MOL   C17324817   6.480   3.036   5.853 -0.0009  0.3392 -0.0753
  123MOL   O17424818   6.599   3.024   5.928 -0.1423 -0.0028 -0.2297
  123MOL   C17524819   6.639   3.142   5.996  0.8807  0.6681  0.7137
  123MOL   H17624820   6.367   3.154   5.991  1.0001  0.5099  0.8394
  123MOL   H17724821   6.270   3.066   5.873  0.7562  2.7416  0.6644
  123MOL   H17824822   6.489   3.128   5.795 -0.9912 -2.0587 -4.1675
  123MOL   H17924823   6.665   3.231   5.938 -0.3015  1.0021  0.6875
  123MOL   H18024824   6.574   3.163   6.081  0.0851 -1.5282  0.6681
  123MOL   H18124825   6.730   3.112   6.048 -0.5929 -0.1578  2.8937
  123MOL   C18224826   6.472   2.927   5.745  0.4846  0.2312 -0.1961
  123MOL   C18324827   6.539   2.961   5.613  0.1191  0.1645  0.4650
  123MOL   O18424828   6.534   2.838   5.535  0.7152 -0.0832 -0.4377
  123MOL   C18524829   6.648   2.754   5.531 -0.0109  0.0416  0.4014
  123MOL   H18624830   6.365   2.915   5.731 -0.0608  1.5680  2.4516
  123MOL   H18724831   6.512   2.830   5.776 -0.1096  0.1468  0.3214
  123MOL   H18824832   6.642   2.975   5.645  0.4141 -0.5301 -0.1569
  123MOL   H18924833   6.681   2.740   5.635  0.8668 -2.1781 -0.1465
  123MOL   H19024834   6.607   2.658   5.501  1.7844 -1.0100  1.2243
  123MOL   H19124835   6.719   2.796   5.460  1.2256 -2.3096  0.1837
  123MOL   C19224836   6.487   3.070   5.523  0.4068 -0.4080 -0.6599
  123MOL   C19324837   6.336   3.076   5.515  0.2498 -0.1554 -0.0808
  123MOL   O19424838   6.308   3.197   5.455 -0.6958  0.2577 -0.1547
  123MOL   C19524839   6.177   3.223   5.416  0.2221  0.1652 -0.2459
  123MOL   H19624840   6.534   3.055   5.426  0.2578 -0.6444 -0.6956
  123MOL   H19724841   6.530   3.157   5.574  1.0056 -0.7168 -0.6308
  123MOL   H19824842   6.301   3.088   5.617  1.9895  2.0703  0.2965
  123MOL   H19924843   6.156   3.152   5.337  1.2617  0.7005 -1.0257
  123MOL   H20024844   6.114   3.198   5.501 -0.0447 -1.7761 -1.0120
  123MOL   H20124845   6.163   3.326   5.384  0.8050  0.1353 -0.5897
  123MOL   H20224846   6.290   2.990   5.467  0.6269 -0.5536  0.2582
  124MOL     C124847   0.540   1.517   7.152  0.1711  0.2515 -0.0121
  124MOL     C224848   0.385   1.542   7.182 -1.0993  0.1962 -0.1598
  124MOL     O324849   0.373   1.658   7.259 -0.1645 -0.3331  0.1025
  124MOL     C424850   0.413   1.650   7.397 -0.0249 -0.4886 -0.4265
  124MOL     H524851   0.585   1.604   7.106 -1.0043  0.7865 -0.1731
  124MOL     H624852   0.605   1.506   7.238  1.8959  1.5737 -1.1022
  124MOL     H724853   0.351   1.458   7.242  0.6000 -1.3463 -1.2852
  124MOL     H824854   0.356   1.728   7.448  0.6891 -0.1630 -0.1195
  124MOL     H924855   0.366   1.561   7.439  0.4619 -0.8310 -0.6068
  124MOL    H1024856   0.518   1.651   7.424 -0.0064 -2.1132 -0.4066
  124MOL    H1124857   0.542   1.422   7.097  0.8422 -0.0943  0.6017
  124MOL    C1224858   0.309   1.562   7.049  0.3341 -0.4382 -0.7117
  124MOL    C1324859   0.345   1.453   6.941  0.5095 -0.3063  0.1604
  124MOL    O1424860   0.320   1.326   6.987 -0.0760  0.3258  0.1717
  124MOL    C1524861   0.383   1.224   6.910  0.3518 -0.0818  0.5207
  124MOL    H1624862   0.338   1.653   6.997  1.1604  0.2410  0.9022
  124MOL    H1724863   0.203   1.587   7.060 -0.0259 -0.5465 -3.5043
  124MOL    H1824864   0.449   1.461   6.911  0.4687 -0.3624  0.0027
  124MOL    H1924865   0.347   1.126   6.940 -2.3742  0.7237  0.0306
  124MOL    H2024866   0.371   1.234   6.802  0.0263  0.6801  0.6276
  124MOL    H2124867   0.490   1.228   6.932  0.2105  0.8377  1.0839
  124MOL    C2224868   0.267   1.482   6.815 -0.0911 -0.1812 -0.1966
  124MOL    C2324869   0.113   1.451   6.834  0.8318  0.2108  0.1801
  124MOL    O2424870   0.044   1.530   6.735 -0.0513 -0.1401  0.4029
  124MOL    C2524871   7.771   1.633   6.795 -0.1689  0.7674 -0.3835
  124MOL    H2624872   0.312   1.425   6.733  2.0815 -0.0854  0.8851
  124MOL    H2724873   0.284   1.586   6.789 -0.8134  0.0022  0.0589
  124MOL    H2824874   0.077   1.461   6.936 -2.0143  1.0628 -0.8436
  124MOL    H2924875   0.018   1.696   6.862  1.6944 -1.0513 -0.2335
  124MOL    H3024876   7.736   1.697   6.713  0.2753  1.0104 -0.3856
  124MOL    H3124877   7.677   1.598   6.838  0.6709 -1.5547 -0.3985
  124MOL    C3224878   0.070   1.299   6.801  0.1221 -0.7365  0.1336
  124MOL    C3324879   7.736   1.263   6.807 -0.0852  0.0047  1.2647
  124MOL    O3424880   7.736   1.134   6.750  0.6905  0.6286  0.0261
  124MOL    C3524881   7.661   1.128   6.628  0.2143 -1.2699 -0.2937
  124MOL    H3624882   0.123   1.225   6.861  0.3783 -1.1435 -0.5789
  124MOL    H3724883   0.119   1.274   6.706 -0.5515 -1.6980  0.0365
  124MOL    H3824884   7.687   1.347   6.757 -0.9247 -0.5324  1.1688
  124MOL    H3924885   7.707   1.196   6.555  0.9582 -0.9386  0.4812
  124MOL    H4024886   7.668   1.022   6.605 -1.5097 -1.2670 -0.8643
  124MOL    H4124887   7.558   1.153   6.653  0.5789 -0.9901  0.9346
  124MOL    C4224888   7.683   1.248   6.952 -0.1701 -0.0444  0.2574
  124MOL    C4324889   7.536   1.201   6.957  0.0990  0.1698 -0.0651
  124MOL    O4424890   7.497   1.179   7.093 -0.3025 -0.2083 -0.4252
  124MOL    C4524891   7.534   1.050   7.155 -0.1032 -0.6418  0.6349
  124MOL    H4624892   7.697   1.329   7.024 -1.7598  0.1367  0.3798
  124MOL    H4724893   7.743   1.171   7.000  0.2798 -0.2053 -0.5506
  124MOL    H4824894   7.518   1.105   6.908 -0.1390  0.4160 -0.4662
  124MOL    H4924895   7.636   1.017   7.134 -0.2212  0.0555 -1.0756
  124MOL    H5024896   7.522   1.039   7.263 -0.9737 -2.1706  0.3927
  124MOL    H5124897   7.471   0.970   7.117 -0.6135  0.2787 -0.4753
  124MOL    C5224898   7.432   1.304   6.898 -0.3662 -0.4387 -0.2888
  124MOL    C5324899   7.399   1.413   6.999  0.1943  0.2002  0.2836
  124MOL    O5424900   7.506   1.504   7.004 -0.7031 -0.1573 -0.0092
  124MOL    C5524901   7.549   1.543   7.142  0.4615 -0.4079 -0.4485
  124MOL    H5624902   7.346   1.242   6.876 -0.1951 -1.2248  1.1755
  124MOL    H5724903   7.473   1.337   6.802 -1.9115 -0.7029 -1.0483
  124MOL    H5824904   7.378   1.376   7.099  2.0236 -0.0231  0.6145
  124MOL    H5924905   7.472   1.575   7.213 -0.2841 -0.1050 -1.3741
  124MOL    H6024906   7.617   1.473   7.190  1.4643  0.7631 -0.1471
  124MOL    H6124907   7.609   1.632   7.125  2.7765 -1.9333 -0.4458
  124MOL    C6224908   7.272   1.489   6.957 -0.2623 -0.2912 -0.1543
  124MOL    C6324909   7.206   1.583   7.061  0.2254  0.5395 -0.8964
  124MOL    O6424910   7.097   1.653   7.002  0.5761  0.1382  0.2482
  124MOL    C6524911   7.136   1.766   6.925 -1.1476 -0.4268 -0.1133
  124MOL    H6624912   7.196   1.419   6.922 -1.7518  0.2110  1.9530
  124MOL    H6724913   7.286   1.556   6.873  0.8501 -0.8695 -0.4446
  124MOL    H6824914   7.285   1.655   7.081 -0.1536  0.4388  1.0855
  124MOL    H6924915   7.212   1.834   6.963 -2.3929 -0.2955  2.2312
  124MOL    H7024916   7.174   1.729   6.830  0.0952 -3.2682  1.4481
  124MOL    H7124917   7.047   1.820   6.893  0.1654  1.8501 -0.0106
  124MOL    C7224918   7.149   1.506   7.187  0.6693  0.7154 -0.3281
  124MOL    C7324919   7.155   1.595   7.316 -0.1773 -0.2187 -0.0172
  124MOL    O7424920   7.099   1.721   7.288 -0.2395  0.0158 -0.7647
  124MOL    C7524921   7.189   1.830   7.294  0.0235  0.7819  0.3162
  124MOL    H7624922   7.192   1.406   7.189  1.9965  1.2401 -1.7761
  124MOL    H7724923   7.045   1.482   7.166  1.0301 -1.0688 -0.1945
  124MOL    H7824924   7.259   1.606   7.344 -0.1875  1.8961 -0.7365
  124MOL    H7924925   7.135   1.923   7.277  3.2537  2.5378 -0.9621
  124MOL    H8024926   7.235   1.835   7.392  1.9086  0.5403 -0.5328
  124MOL    H8124927   7.271   1.823   7.222  1.7347  0.6828  2.2478
  124MOL    C8224928   7.065   1.535   7.433 -0.4401  0.1301  0.2920
  124MOL    C8324929   7.102   1.394   7.479  0.3344  0.8993 -0.3517
  124MOL    O8424930   7.234   1.402   7.527 -0.2390  0.3954  1.0194
  124MOL    C8524931   7.317   1.286   7.510 -0.2337  0.2826 -0.2052
  124MOL    H8624932   6.961   1.516   7.403  0.1929 -3.1325  0.0470
  124MOL    H8724933   7.056   1.606   7.515  2.2327  2.1969 -1.1152
  124MOL    H8824934   7.101   1.319   7.399 -1.5925 -0.1122  0.5753
  124MOL    H8924935   7.414   1.313   7.552 -0.7470  1.6328  0.1414
  124MOL    H9024936   7.271   1.208   7.569 -0.2907  0.7715  0.3993
  124MOL    H9124937   7.325   1.254   7.406  2.2900  1.2106 -0.3497
  124MOL    C9224938   7.019   1.337   7.590  0.1076  0.5595 -0.2676
  124MOL    C9324939   6.894   1.270   7.537  0.1987  0.0827  0.2230
  124MOL    O9424940   6.928   1.174   7.434 -0.0374 -0.7747 -0.0986
  124MOL    C9524941   6.828   1.136   7.337 -0.0623  0.7149 -0.1191
  124MOL    H9624942   6.979   1.417   7.652  0.1042 -0.2800  0.8180
  124MOL    H9724943   7.086   1.275   7.649  0.3753  2.8912  1.9085
  124MOL    H9824944   6.827   1.345   7.495 -0.7679 -0.5138  0.6848
  124MOL    H9924945   6.806   1.220   7.270 -1.7494  0.8509  0.5770
  124MOL   H10024946   6.861   1.051   7.277  0.9664 -0.6783  2.3617
  124MOL   H10124947   6.743   1.093   7.390 -0.9634  1.0636 -1.2613
  124MOL   C10224948   6.807   1.198   7.643  0.3841 -0.4432  0.5008
  124MOL   C10324949   6.735   1.291   7.739  0.5660  0.0984 -0.0595
  124MOL   O10424950   6.649   1.366   7.655  0.0710 -0.0893 -0.1621
  124MOL   C10524951   6.583   1.484   7.720 -1.0127 -0.0444  0.2854
  124MOL   H10624952   6.882   1.138   7.694  1.3487  0.1564 -0.2020
  124MOL   H10724953   6.739   1.136   7.585  0.5662 -0.0653 -0.1245
  124MOL   H10824954   6.803   1.355   7.795  0.6802  1.0278 -1.2657
  124MOL   H10924955   6.519   1.459   7.804 -1.1445 -1.4778 -0.2132
  124MOL   H11024956   6.665   1.546   7.754  0.0653 -0.6939 -1.0593
  124MOL   H11124957   6.529   1.538   7.643 -0.4881 -0.7027 -0.5619
  124MOL   C11224958   6.651   1.202   0.024  0.1754 -0.3490 -0.2163
  124MOL   C11324959   6.711   1.092   0.114  0.0364  0.1297 -0.0243
  124MOL   O11424960   6.762   0.985   0.036 -0.0520 -0.0947 -0.2260
  124MOL   C11524961   6.664   0.885   0.007  0.3378 -0.4798  0.4189
  124MOL   H11624962   6.580   1.146   7.773  0.3333 -2.8790  1.7748
  124MOL   H11724963   6.593   1.269   0.087  0.3172 -2.5599  2.3731
  124MOL   H11824964   6.623   1.050   0.162  0.3933 -0.5371  0.0556
  124MOL   H11924965   6.573   0.922   7.771 -0.6027  0.3485  2.8678
  124MOL   H12024966   6.711   0.826   7.738  0.0910  0.1099 -0.1629
  124MOL   H12124967   6.637   0.821   0.091 -0.1812 -0.4941  0.2416
  124MOL   C12224968   6.795   1.149   0.225  0.3184  0.2896  0.0701
  124MOL   C12324969   6.863   1.051   0.324  0.8002 -0.6360 -0.1404
  124MOL   O12424970   6.958   1.123   0.408  0.5112 -0.2251  0.6952
  124MOL   C12524971   7.086   1.127   0.352  0.7594 -0.0825 -0.0022
  124MOL   H12624972   6.730   1.219   0.278 -1.5057 -0.3013 -1.3274
  124MOL   H12724973   6.877   1.202   0.176  0.1510 -0.4176 -1.0022
  124MOL   H12824974   6.919   0.979   0.264  0.1651 -0.7936 -0.5449
  124MOL   H12924975   7.152   1.206   0.388  0.0444  0.9080 -0.8030
  124MOL   H13024976   7.146   1.040   0.375  3.7367  1.0919 -2.9871
  124MOL   H13124977   7.100   1.163   0.250  0.0159  1.3239  0.3768
  124MOL   C13224978   6.764   0.975   0.413 -0.3273  0.4101  0.0584
  124MOL   C13324979   6.794   0.819   0.417  0.1514 -1.6167 -0.0399
  124MOL   O13424980   6.927   0.792   0.473  0.0769 -0.2858  0.2563
  124MOL   C13524981   6.926   0.798   0.614 -0.0061  0.0072  0.3282
  124MOL   H13624982   6.667   1.000   0.371  0.8628  2.4235 -1.6125
  124MOL   H13724983   6.761   1.021   0.512 -3.1581  1.9190 -0.6773
  124MOL   H13824984   6.794   0.783   0.314  0.9655 -1.1129 -0.2274
  124MOL   H13924985   6.879   0.710   0.660  1.5016 -0.9663  0.0406
  124MOL   H14024986   7.030   0.792   0.643  0.0922 -0.6573 -0.1502
  124MOL   H14124987   6.883   0.890   0.653  2.6156  0.5991  1.9217
  124MOL   C14224988   6.690   0.723   0.487 -0.9845  0.4156  0.6772
  124MOL   C14324989   6.560   0.699   0.400 -0.3122  0.7180 -0.1264
  124MOL   O14424990   6.574   0.652   0.268  0.0830 -0.0032 -0.1305
  124MOL   C14524991   6.656   0.538   0.231 -0.1793 -0.1166  1.3620
  124MOL   H14624992   6.664   0.750   0.589 -0.2741  0.3869  0.8722
  124MOL   H14724993   6.749   0.635   0.511  0.3984  1.0980 -0.1224
  124MOL   H14824994   6.517   0.799   0.399 -2.3537 -0.1455 -0.0713
  124MOL   H14924995   6.638   0.520   0.125  1.5307  3.7635  0.3079
  124MOL   H15024996   6.762   0.561   0.235 -0.2856  0.5707  0.4580
  124MOL   H15124997   6.635   0.453   0.295 -4.6435 -0.7002 -0.6375
  124MOL   C15224998   6.471   0.605   0.481  0.0184  0.3014  0.4622
  124MOL   C15324999   6.326   0.592   0.419 -0.2094  0.2871  0.3066
  124MOL   O15425000   6.280   0.467   0.457 -0.1406 -0.3774  0.2010
  124MOL   C15525001   6.304   0.360   0.356 -0.6144  0.6401  0.0099
  124MOL   H15625002   6.457   0.655   0.577 -0.3425  0.8182  0.1406
  124MOL   H15725003   6.513   0.505   0.490  1.2127  0.5805 -1.6535
  124MOL   H15825004   6.339   0.595   0.311  0.0972 -4.5180  0.1216
  124MOL   H15925005   6.408   0.339   0.331 -0.4768  1.0735  0.2212
  124MOL   H16025006   6.256   0.270   0.394 -1.8955  0.2696 -2.3914
  124MOL   H16125007   6.261   0.385   0.260  1.2706 -2.3130 -1.6961
  124MOL   C16225008   6.223   0.699   0.475  0.0830 -0.2137  0.4428
  124MOL   C16325009   6.236   0.843   0.417 -0.7870  0.4312  0.6119
  124MOL   O16425010   6.264   0.839   0.278  0.5461  0.5370 -0.1478
  124MOL   C16525011   6.310   0.956   0.211 -0.2283 -0.0926  0.0996
  124MOL   H16625012   6.230   0.706   0.584 -0.7011 -0.8719  0.5350
  124MOL   H16725013   6.122   0.659   0.466  0.6110 -1.7196  1.1255
  124MOL   H16825014   6.323   0.888   0.466  0.5156  0.8375 -1.9724
  124MOL   H16925015   6.383   1.003   0.277 -1.4326  0.3601  1.1372
  124MOL   H17025016   6.349   0.926   0.114  0.9657  0.1049  0.5074
  124MOL   H17125017   6.228   1.024   0.188 -2.4946 -2.8711 -0.3505
  124MOL   C17225018   6.093   0.917   0.439  0.3583 -0.0656  0.1268
  124MOL   C17325019   6.128   1.061   0.480  0.0289  0.3434 -0.3848
  124MOL   O17425020   6.020   1.150   0.465  0.1388  0.9139  0.2281
  124MOL   C17525021   5.980   1.169   0.331  0.1480  0.0389  0.1254
  124MOL   H17625022   6.043   0.869   0.522  0.7616 -2.5995 -1.0552
  124MOL   H17725023   6.036   0.902   0.347  2.8479 -1.7007 -1.2209
  124MOL   H17825024   6.218   1.096   0.430  1.9680 -0.5291  2.3439
  124MOL   H17925025   5.892   1.232   0.339  0.1567  0.1164 -0.3860
  124MOL   H18025026   6.062   1.218   0.279  0.8012 -3.6125 -2.4945
  124MOL   H18125027   5.963   1.068   0.292  0.4669 -0.3916  1.0775
  124MOL   C18225028   6.155   1.065   0.633  0.7304  0.1089 -0.3424
  124MOL   C18325029   6.243   1.190   0.680  0.2838  0.0059  0.0577
  124MOL   O18425030   6.369   1.176   0.621  0.0653  0.7608  0.1245
  124MOL   C18525031   6.457   1.069   0.672 -0.7480 -0.0756  0.5736
  124MOL   H18625032   6.209   0.974   0.662 -0.5152 -0.9674 -1.3219
  124MOL   H18725033   6.060   1.048   0.683  0.7564 -0.3331 -0.4363
  124MOL   H18825034   6.243   1.186   0.789  0.2989  0.3686  0.0722
  124MOL   H18925035   6.543   1.067   0.606 -1.5855 -1.6708 -0.5221
  124MOL   H19025036   6.491   1.089   0.774 -0.0245 -0.6656  0.4478
  124MOL   H19125037   6.426   0.965   0.676 -1.5230  0.0300 -1.7973
  124MOL   C19225038   6.192   1.330   0.651  0.0691  0.0692  0.0575
  124MOL   C19325039   6.071   1.374   0.723  0.0073  0.5317 -0.4215
  124MOL   O19425040   6.048   1.516   0.721 -0.5205 -0.0419 -0.2941
  124MOL   C19525041   6.018   1.573   0.593 -0.9917 -0.0460 -0.9712
  124MOL   H19625042   6.163   1.344   0.547 -2.3035 -0.3950  0.6230
  124MOL   H19725043   6.276   1.395   0.674 -0.2596  1.0581 -1.4967
  124MOL   H19825044   6.087   1.337   0.825 -2.4166  1.3389  0.2844
  124MOL   H19925045   5.933   1.540   0.534 -1.0386 -1.4706 -0.1357
  124MOL   H20025046   6.002   1.681   0.601 -0.3157 -0.0193  0.2187
  124MOL   H20125047   6.108   1.560   0.533 -1.1244  0.6427 -1.3243
  124MOL   H20225048   5.985   1.311   0.697  1.7297 -1.0751 -2.3976
  125MOL     C125049   5.878   2.426   7.014  0.4553 -0.0214  0.6960
  125MOL     C225050   5.808   2.404   7.150 -0.1521 -1.0344 -0.2838
  125MOL     O325051   5.705   2.498   7.165 -0.2646  0.2648  0.1272
  125MOL     C425052   5.741   2.637   7.168  0.2556  0.1166 -0.5309
  125MOL     H525053   5.945   2.512   7.010 -0.4107  0.7180  1.7449
  125MOL     H625054   5.939   2.340   6.987 -3.1757 -1.7553 -2.4162
  125MOL     H725055   5.880   2.420   7.230  0.9694 -1.0976 -1.2742
  125MOL     H825056   5.653   2.697   7.190  0.9215  0.5885  0.9265
  125MOL     H925057   5.816   2.661   7.242  1.2295 -1.4087 -0.9909
  125MOL    H1025058   5.785   2.686   7.081  2.1803  0.3097  0.5320
  125MOL    H1125059   5.805   2.434   6.933 -0.5181 -1.2804  1.4186
  125MOL    C1225060   5.746   2.261   7.150 -0.3431 -0.0060  0.5881
  125MOL    C1325061   5.826   2.136   7.186 -0.8144  0.3566  0.5120
  125MOL    O1425062   5.867   2.150   7.322 -0.2363 -0.2361 -0.0215
  125MOL    C1525063   6.007   2.115   7.346 -0.1534 -0.3641  0.2916
  125MOL    H1625064   5.702   2.257   7.050 -1.4284 -1.0601  1.1036
  125MOL    H1725065   5.669   2.268   7.226 -1.9333  2.2412 -1.1544
  125MOL    H1825066   5.911   2.126   7.119  0.0293 -0.9743  1.7287
  125MOL    H1925067   6.031   2.011   7.322 -1.5430 -0.5016 -0.5846
  125MOL    H2025068   6.082   2.175   7.296 -1.7679  0.6086 -1.0423
  125MOL    H2125069   6.015   2.123   7.454  0.3046  0.4680  0.1994
  125MOL    C2225070   5.738   2.009   7.175 -0.4565 -0.0450 -0.0461
  125MOL    C2325071   5.681   1.962   7.037  0.2601 -0.3543  0.1806
  125MOL    O2425072   5.785   1.966   6.939 -0.8333  0.8469  0.4543
  125MOL    C2525073   5.762   2.050   6.825 -0.5996  0.0788  0.5246
  125MOL    H2625074   5.656   2.020   7.246 -2.0795 -0.4367 -1.8183
  125MOL    H2725075   5.787   1.926   7.225 -1.4185 -1.0949 -0.8351
  125MOL    H2825076   5.609   2.038   7.004  2.1780  1.4829  0.1186
  125MOL    H2925077   5.686   1.993   6.772 -1.6751  1.1375  0.8877
  125MOL    H3025078   5.723   2.151   6.833  0.0344  0.4081 -0.4657
  125MOL    H3125079   5.856   2.046   6.770 -0.0195  2.0188  1.3391
  125MOL    C3225080   5.635   1.814   7.041 -0.3037 -0.0534  0.4423
  125MOL    C3325081   5.509   1.787   7.119 -0.5613 -0.0719  0.2937
  125MOL    O3425082   5.411   1.832   7.029  0.0579 -0.4049  0.4344
  125MOL    C3525083   5.279   1.859   7.078  0.0864 -0.1710  0.6684
  125MOL    H3625084   5.716   1.759   7.089  0.6754  0.0168 -1.0977
  125MOL    H3725085   5.619   1.780   6.939 -1.4085  0.3902  0.4683
  125MOL    H3825086   5.491   1.850   7.206 -3.4168  2.3765 -1.9740
  125MOL    H3925087   5.238   1.777   7.138  0.5165 -1.8824 -1.3275
  125MOL    H4025088   5.260   1.942   7.145  0.9461  0.6660 -0.1210
  125MOL    H4125089   5.222   1.883   6.989  1.5787 -0.1369 -0.2897
  125MOL    C4225090   5.490   1.638   7.141 -0.6232 -0.3755 -0.1614
  125MOL    C4325091   5.543   1.573   7.271  0.5709 -0.2106  0.0388
  125MOL    O4425092   5.467   1.622   7.376  0.0780 -0.3890 -0.3650
  125MOL    C4525093   5.545   1.628   7.500 -0.1673  0.2440 -0.1366
  125MOL    H4625094   5.524   1.586   7.051  1.4619 -0.7465  0.8015
  125MOL    H4725095   5.382   1.627   7.144 -0.6123 -0.5317 -0.2947
  125MOL    H4825096   5.648   1.598   7.288  1.3149 -2.6983 -0.7143
  125MOL    H4925097   5.591   1.532   7.524 -1.6476 -0.1684  1.1074
  125MOL    H5025098   5.618   1.708   7.496 -0.7309  0.6887 -2.4180
  125MOL    H5125099   5.477   1.642   7.584 -1.5299  3.6542 -1.7151
  125MOL    C5225100   5.543   1.414   7.278  0.4442 -0.2835  0.0498
  125MOL    C5325101   5.596   1.332   7.165 -0.1113 -0.4191  0.9138
  125MOL    O5425102   5.496   1.327   7.057  0.2997  0.0682 -0.2489
  125MOL    C5525103   5.399   1.224   7.073  0.2833 -0.0426 -0.2176
  125MOL    H5625104   5.442   1.377   7.299  0.5960 -0.1495  1.0106
  125MOL    H5725105   5.604   1.386   7.363  1.8969  1.8959 -0.2451
  125MOL    H5825106   5.614   1.233   7.205 -0.8532 -0.5783  0.8606
  125MOL    H5925107   5.334   1.242   7.159  1.0157  0.6247  0.2112
  125MOL    H6025108   5.331   1.230   6.988  1.2882 -0.2735 -1.0476
  125MOL    H6125109   5.440   1.124   7.087 -0.3195 -0.3593 -0.7262
  125MOL    C6225110   5.728   1.379   7.102  0.1184  0.3430  0.1438
  125MOL    C6325111   5.845   1.368   7.208  0.2441 -0.2241  0.5474
  125MOL    O6425112   5.852   1.237   7.262 -0.2906  0.4553 -0.0995
  125MOL    C6525113   5.928   1.213   7.378 -0.2380 -0.0903  0.1804
  125MOL    H6625114   5.716   1.482   7.069  0.7071 -0.0185 -1.2823
  125MOL    H6725115   5.734   1.316   7.013 -1.5633  0.9788 -0.4356
  125MOL    H6825116   5.837   1.443   7.287 -1.5527  0.9263 -0.6881
  125MOL    H6925117   5.884   1.120   7.416 -0.3476  0.3002  1.0235
  125MOL    H7025118   6.034   1.200   7.358  0.1256  0.9227  1.3852
  125MOL    H7125119   5.895   1.282   7.456 -1.4395 -0.2609 -0.1712
  125MOL    C7225120   5.978   1.413   7.151  0.6928  0.1848 -0.3564
  125MOL    C7325121   5.999   1.564   7.128 -0.1318  0.1532  0.0770
  125MOL    O7425122   5.942   1.601   7.002  0.2200  0.0932  0.4748
  125MOL    C7525123   6.013   1.712   6.938  0.4945 -0.5092  0.0105
  125MOL    H7625124   5.986   1.362   7.055 -2.5226  0.7061 -0.9466
  125MOL    H7725125   6.058   1.382   7.219  0.0491  1.2505  0.8920
  125MOL    H7825126   6.106   1.574   7.110 -0.3740  1.3873 -0.7056
  125MOL    H7925127   6.115   1.684   6.914  0.8577 -0.4227  1.4292
  125MOL    H8025128   5.962   1.757   6.852 -0.7609 -0.5325  0.7292
  125MOL    H8125129   6.015   1.799   7.003 -1.4595 -0.4760  0.0490
  125MOL    C8225130   5.966   1.661   7.246  0.2491  0.1979  0.3209
  125MOL    C8325131   6.019   1.617   7.381  0.8160 -0.2307 -0.8348
  125MOL    O8425132   6.158   1.644   7.379 -0.0098 -0.0631  0.4033
  125MOL    C8525133   6.247   1.537   7.397  0.2776 -0.3812  0.2775
  125MOL    H8625134   5.858   1.668   7.259  0.3160 -0.4252  1.2052
  125MOL    H8725135   6.005   1.759   7.217  2.0511 -0.5095  0.2926
  125MOL    H8825136   5.998   1.510   7.386 -1.4011  0.0888 -2.3305
  125MOL    H8925137   6.267   1.484   7.304 -0.3398 -1.4702  0.7474
  125MOL    H9025138   6.340   1.565   7.447 -0.2749 -1.7956  2.2047
  125MOL    H9125139   6.208   1.453   7.455  3.2677 -1.2447  1.1487
  125MOL    C9225140   5.949   1.687   7.497  0.2391  0.0765 -0.3264
  125MOL    C9325141   5.998   1.658   7.641  0.8612  0.8010 -0.0239
  125MOL    O9425142   5.922   1.744   7.719 -0.0041 -0.5928 -0.1510
  125MOL    C9525143   5.980   1.870   7.755 -0.0419  0.0843  0.4246
  125MOL    H9625144   5.846   1.653   7.504 -0.2109  1.3615 -0.5967
  125MOL    H9725145   5.934   1.794   7.484  2.6448  0.2852 -1.6917
  125MOL    H9825146   6.104   1.682   7.649  1.0673  0.4504 -1.6036
  125MOL    H9925147   6.038   1.929   7.684  0.6399 -0.6180  0.3956
  125MOL   H10025148   5.903   1.935   7.797  0.4594  0.1490  1.2488
  125MOL   H10125149   6.057   1.849   0.019  0.0731  2.1367  0.9134
  125MOL   C10225150   5.969   1.517   7.691  0.0178 -0.3465  0.6791
  125MOL   C10325151   5.998   1.490   0.031 -0.3251  0.0127  0.1310
  125MOL   O10425152   5.923   1.380   0.069  0.4533  0.2810  0.1736
  125MOL   C10525153   5.811   1.413   0.153 -0.1785 -0.4134  0.1754
  125MOL   H10625154   6.025   1.441   7.636 -0.5754 -1.4193  1.5436
  125MOL   H10725155   5.863   1.496   7.683  0.0432 -0.5554  0.8746
  125MOL   H10825156   5.988   1.579   0.093  0.2288  0.0283  0.2036
  125MOL   H10925157   5.752   1.327   0.186 -0.3996 -0.3125  0.0405
  125MOL   H11025158   5.838   1.468   0.243 -3.1812  0.3127  0.6886
  125MOL   H11125159   5.737   1.475   0.104 -0.2549 -0.3960  0.3148
  125MOL   C11225160   6.157   1.455   0.032  0.5753 -0.6326 -0.0813
  125MOL   C11325161   6.212   1.463   0.176 -0.3090  0.6632  0.3366
  125MOL   O11425162   6.338   1.399   0.175 -0.0604 -0.5090 -0.3252
  125MOL   C11525163   6.376   1.332   0.290  0.0073  0.4528  0.8576
  125MOL   H11625164   6.214   1.515   7.772  1.0028 -2.1854 -1.0760
  125MOL   H11725165   6.166   1.352   7.809 -0.1741 -0.8442  0.3589
  125MOL   H11825166   6.143   1.407   0.239 -0.5751 -2.1588 -2.3126
  125MOL   H11925167   6.353   1.392   0.378 -2.5495  0.3048  0.3367
  125MOL   H12025168   6.316   1.242   0.301  0.9474 -0.0542  1.9865
  125MOL   H12125169   6.478   1.294   0.294  0.1141  0.6115 -0.1420
  125MOL   C12225170   6.222   1.611   0.226  0.1871 -0.6200  1.3916
  125MOL   C12325171   6.334   1.690   0.163 -0.3514 -0.6566 -0.1070
  125MOL   O12425172   6.274   1.755   0.053 -0.3763 -0.2401 -0.1002
  125MOL   C12525173   6.365   1.778   7.757 -0.0313  0.0915 -1.4270
  125MOL   H12625174   6.245   1.617   0.332  1.4652  0.5498  1.0702
  125MOL   H12725175   6.125   1.659   0.216  0.1067 -1.0351  0.0911
  125MOL   H12825176   6.420   1.634   0.127  0.5695  0.5671  0.1475
  125MOL   H12925177   6.370   1.685   7.701 -1.4947  0.4311 -2.1493
  125MOL   H13025178   6.321   1.861   7.701 -2.2323 -1.4975 -2.1100
  125MOL   H13125179   6.456   1.823   7.799 -0.1124 -0.5697 -0.5336
  125MOL   C13225180   6.393   1.786   0.264 -0.2316 -0.3770 -0.0126
  125MOL   C13325181   6.488   1.730   0.366  0.5166  0.0496 -0.1255
  125MOL   O13425182   6.594   1.665   0.305 -0.1966  0.4182  0.3984
  125MOL   C13525183   6.660   1.562   0.386  0.6136 -0.2431  0.5355
  125MOL   H13625184   6.308   1.840   0.306 -0.2097 -1.0525  0.8996
  125MOL   H13725185   6.451   1.861   0.209  1.2659 -0.7863  0.9665
  125MOL   H13825186   6.431   1.663   0.431 -3.1328 -0.3700 -3.5068
  125MOL   H13925187   6.746   1.537   0.324 -0.5227  2.3775 -2.2221
  125MOL   H14025188   6.697   1.600   0.481  1.1900  0.3983  0.0563
  125MOL   H14125189   6.596   1.473   0.394 -0.8914  0.5518 -2.0280
  125MOL   C14225190   6.557   1.849   0.452 -0.1919  0.2663 -0.5575
  125MOL   C14325191   6.462   1.938   0.534 -0.1627 -0.3010  0.9333
  125MOL   O14425192   6.396   1.842   0.618  0.1012 -0.7985  0.0897
  125MOL   C14525193   6.266   1.880   0.633  0.3458  0.1956 -0.4020
  125MOL   H14625194   6.615   1.915   0.387  0.5310 -0.2748 -0.4636
  125MOL   H14725195   6.629   1.809   0.523 -0.2957 -0.5313 -0.8998
  125MOL   H14825196   6.388   1.982   0.467 -1.1591 -1.0716  1.5248
  125MOL   H14925197   6.262   1.988   0.651  2.5708  0.4666 -1.3554
  125MOL   H15025198   6.217   1.845   0.543 -1.2345  1.6336 -0.1197
  125MOL   H15125199   6.230   1.835   0.726 -0.9153  0.3462 -0.8143
  125MOL   C15225200   6.518   2.037   0.636  0.0649 -0.0659  0.1584
  125MOL   C15325201   6.570   2.167   0.587 -0.1823 -0.0816 -0.3015
  125MOL   O15425202   6.677   2.130   0.492  0.0649  0.6040 -0.1273
  125MOL   C15525203   6.774   2.228   0.468  0.2032  0.4467 -0.4157
  125MOL   H15625204   6.592   1.985   0.697 -1.0791  1.0861  2.5681
  125MOL   H15725205   6.445   2.061   0.713  1.2604  0.1367  1.2467
  125MOL   H15825206   6.605   2.223   0.674 -0.3732  0.6430 -0.6910
  125MOL   H15925207   6.796   2.210   0.362  0.9438  2.2386 -0.5856
  125MOL   H16025208   6.741   2.331   0.477 -1.8603 -0.0154 -2.1681
  125MOL   H16125209   6.862   2.217   0.531 -1.4677  1.1304  2.1004
  125MOL   C16225210   6.455   2.253   0.521  0.2027 -0.7871 -0.0911
  125MOL   C16325211   6.414   2.383   0.587 -0.6611 -0.2084 -0.2529
  125MOL   O16425212   6.345   2.471   0.497  0.1619  0.6367  0.1999
  125MOL   C16525213   6.430   2.555   0.414  0.4692  0.3403  0.7242
  125MOL   H16625214   6.361   2.198   0.509 -0.7030  0.6465  0.2973
  125MOL   H16725215   6.486   2.280   0.420 -0.6948  1.2847  0.1733
  125MOL   H16825216   6.502   2.426   0.633 -0.3041 -0.4984 -0.6494
  125MOL   H16925217   6.500   2.490   0.361  1.4770  1.1460  1.0456
  125MOL   H17025218   6.373   2.618   0.346 -0.7488  0.0100  1.4186
  125MOL   H17125219   6.490   2.622   0.475  0.2426  1.5437 -0.3558
  125MOL   C17225220   6.313   2.351   0.700  0.1144  0.4921  0.0879
  125MOL   C17325221   6.288   2.462   0.811  0.3505 -0.6939 -0.3618
  125MOL   O17425222   6.406   2.506   0.880 -0.3854  0.0572  0.3589
  125MOL   C17525223   6.462   2.412   0.975  0.7837 -0.2248  0.3581
  125MOL   H17625224   6.341   2.260   0.753 -2.1540 -1.1235 -1.4414
  125MOL   H17725225   6.216   2.328   0.658  0.2136  1.5865 -0.7672
  125MOL   H17825226   6.226   2.410   0.884  1.1957 -0.4099  0.5655
  125MOL   H17925227   6.531   2.471   1.034 -0.3108 -0.7923  2.2553
  125MOL   H18025228   6.387   2.373   1.044  2.9642 -0.6853  2.5619
  125MOL   H18125229   6.519   2.337   0.920  1.8223  0.8875 -0.1029
  125MOL   C18225230   6.203   2.573   0.752  0.1797 -0.8540  0.5538
  125MOL   C18325231   6.101   2.629   0.855  0.1850  0.5971  0.4245
  125MOL   O18425232   5.997   2.524   0.853 -0.5295 -0.3461  0.0265
  125MOL   C18525233   5.892   2.542   0.943  0.6553  0.3224  0.3819
  125MOL   H18625234   6.146   2.535   0.666  1.5821 -0.2000 -0.6908
  125MOL   H18725235   6.278   2.644   0.719 -0.2231 -0.3258  0.7765
  125MOL   H18825236   6.054   2.717   0.809 -1.0529 -0.5211 -0.5098
  125MOL   H18925237   5.911   2.582   1.042 -1.0684  1.3957  0.3096
  125MOL   H19025238   5.818   2.604   0.893 -0.1283  0.8442  2.1555
  125MOL   H19125239   5.844   2.446   0.958 -2.1341  1.5280 -0.4543
  125MOL   C19225240   6.161   2.666   0.993 -0.0153  0.2435  0.0964
  125MOL   C19325241   6.256   2.790   0.981  0.0729  0.6744 -0.3914
  125MOL   O19425242   6.286   2.834   1.112  0.2148  0.5744  0.0114
  125MOL   C19525243   6.351   2.956   1.127  0.9585  0.6488  0.2352
  125MOL   H19625244   6.215   2.575   1.020 -1.5569 -0.8402 -0.3849
  125MOL   H19725245   6.089   2.680   1.072  0.8774 -3.0070  1.6020
  125MOL   H19825246   6.205   2.871   0.929  0.1126  0.4869 -0.7257
  125MOL   H19925247   6.382   2.955   1.232  1.6612  0.2501  0.0300
  125MOL   H20025248   6.444   2.982   1.075 -0.8519  1.0169 -2.9273
  125MOL   H20125249   6.272   3.030   1.133  2.3459  2.0907  1.3295
  125MOL   H20225250   6.346   2.771   0.922  1.1051  2.1882  0.6374
  126MOL     C125251   6.050   6.138   0.619 -0.3919 -0.0462 -0.3746
  126MOL     C225252   5.973   6.036   0.703 -0.2555  0.4706 -0.0805
  126MOL     O325253   5.835   6.068   0.687 -0.2666 -0.3128 -0.6441
  126MOL     C425254   5.789   6.177   0.765 -0.8882 -0.3869  0.2069
  126MOL     H525255   6.014   6.160   0.519 -0.8796  1.1126  0.0356
  126MOL     H625256   6.051   6.232   0.676 -3.2065 -0.7416  0.9157
  126MOL     H725257   6.012   6.060   0.802  1.1877 -0.8378 -0.2979
  126MOL     H825258   5.683   6.200   0.752 -0.3590  1.4437 -1.1504
  126MOL     H925259   5.794   6.159   0.872 -4.0980  1.6663  0.7650
  126MOL    H1025260   5.840   6.271   0.746 -1.5298 -0.3044 -1.1935
  126MOL    H1125261   6.157   6.116   0.615 -0.2077  1.0616 -2.3801
  126MOL    C1225262   5.996   5.889   0.663  0.0076 -0.2871  0.1595
  126MOL    C1325263   6.120   5.828   0.723  0.7658  0.0585 -1.2870
  126MOL    O1425264   6.116   5.846   0.865  0.3315  0.7186 -0.1177
  126MOL    C1525265   6.235   5.840   0.943 -0.2321  0.5283 -0.1138
  126MOL    H1625266   6.002   5.891   0.554 -0.3702  2.2093  0.1647
  126MOL    H1725267   5.917   5.820   0.692 -1.3502  0.3764 -1.8044
  126MOL    H1825268   6.210   5.881   0.691  1.1613 -0.3932 -0.9217
  126MOL    H1925269   6.217   5.828   1.050  2.1720 -0.8969  0.1921
  126MOL    H2025270   6.293   5.751   0.918  0.8194  1.3130 -0.5240
  126MOL    H2125271   6.297   5.928   0.926 -0.4946  0.6479 -0.4472
  126MOL    C2225272   6.128   5.680   0.685 -0.4858 -0.2707 -0.2928
  126MOL    C2325273   6.138   5.644   0.537 -0.0408 -0.4762 -0.1207
  126MOL    O2425274   6.260   5.686   0.480  0.1470  0.1048 -0.6356
  126MOL    C2525275   6.259   5.737   0.349  0.2705 -0.6284  0.0319
  126MOL    H2625276   6.039   5.630   0.722  1.6803 -3.6314  0.6167
  126MOL    H2725277   6.216   5.641   0.737 -1.3520  2.3344  3.2424
  126MOL    H2825278   6.053   5.699   0.497 -2.4371 -1.0532  3.9192
  126MOL    H2925279   6.239   5.669   0.267 -1.5497  1.9527 -1.7452
  126MOL    H3025280   6.195   5.825   0.336  3.0950  1.6514  1.0315
  126MOL    H3125281   6.360   5.771   0.329  0.9186 -1.2895  2.0490
  126MOL    C3225282   6.109   5.498   0.501  0.6780  0.0161  0.5787
  126MOL    C3325283   5.980   5.437   0.550  0.8194  0.2859  0.2415
  126MOL    O3425284   5.876   5.527   0.516  0.2027  0.6269  0.5276
  126MOL    C3525285   5.766   5.533   0.601 -0.0514 -0.2189  0.1255
  126MOL    H3625286   6.188   5.433   0.540  0.3900  0.7635  2.4758
  126MOL    H3725287   6.111   5.502   0.392 -1.0650 -1.2190  0.4898
  126MOL    H3825288   5.980   5.414   0.657  0.9083  1.8728  0.5956
  126MOL    H3925289   5.802   5.570   0.697  1.4470  0.9877 -0.8740
  126MOL    H4025290   5.695   5.611   0.574 -0.1996 -0.0245  1.0393
  126MOL    H4125291   5.714   5.437   0.608  0.8851 -0.6619  1.2188
  126MOL    C4225292   5.953   5.309   0.465  0.7211 -0.0156  0.0038
  126MOL    C4325293   6.018   5.178   0.519 -0.0384  0.0304  0.0058
  126MOL    O4425294   5.966   5.146   0.655  0.2433 -0.4345 -0.3469
  126MOL    C4525295   6.058   5.095   0.749  0.0352 -0.6871  0.3918
  126MOL    H4625296   5.970   5.316   0.358 -4.8441  0.1667 -1.0144
  126MOL    H4725297   5.844   5.309   0.457  0.6821 -0.9893  0.4636
  126MOL    H4825298   6.125   5.196   0.507 -0.1356  0.3921 -0.3330
  126MOL    H4925299   6.106   5.005   0.712 -1.3388 -1.1545 -0.2534
  126MOL    H5025300   6.141   5.164   0.770 -1.1522  0.2776  2.0310
  126MOL    H5125301   6.005   5.078   0.843 -2.0795  0.8408 -0.4825
  126MOL    C5225302   5.980   5.058   0.429 -0.4208  0.1021  0.1933
  126MOL    C5325303   5.830   5.016   0.419  0.3015  0.8228  0.6678
  126MOL    O5425304   5.835   4.935   0.302 -0.3820  0.1945 -0.9598
  126MOL    C5525305   5.757   4.983   0.201 -0.3332 -0.2021  0.0667
  126MOL    H5625306   6.033   4.969   0.462  2.9937  2.8856  2.5878
  126MOL    H5725307   6.010   5.079   0.326 -1.6169 -0.0966 -0.2057
  126MOL    H5825308   5.763   5.101   0.412 -1.5538 -0.4097  2.7383
  126MOL    H5925309   5.772   4.929   0.108  0.5477  1.0890 -0.5423
  126MOL    H6025310   5.649   4.982   0.218 -0.3319  1.3891  0.3096
  126MOL    H6125311   5.797   5.084   0.190  0.0348 -0.1544  1.6802
  126MOL    C6225312   5.793   4.927   0.531  0.1118  0.5020 -0.6194
  126MOL    C6325313   5.655   4.844   0.515 -0.1300 -1.0803 -0.3035
  126MOL    O6425314   5.674   4.713   0.567 -0.2275 -0.5102  0.7605
  126MOL    C6525315   5.638   4.607   0.479 -0.5441 -0.3307 -0.2802
  126MOL    H6625316   5.797   4.989   0.620 -1.1294  0.5888 -0.6112
  126MOL    H6725317   5.866   4.848   0.548 -0.7446 -0.3879 -1.0312
  126MOL    H6825318   5.630   4.847   0.409 -1.8737  0.5025  0.1363
  126MOL    H6925319   5.533   4.580   0.489 -0.6515  0.5915  1.1636
  126MOL    H7025320   5.656   4.643   0.378 -1.0998 -1.4456 -0.7925
  126MOL    H7125321   5.698   4.518   0.499  1.5032  1.0836  0.0348
  126MOL    C7225322   5.537   4.899   0.593  0.1240 -0.8510 -0.1383
  126MOL    C7325323   5.519   5.048   0.576 -0.4960 -0.5729 -0.5003
  126MOL    O7425324   5.470   5.063   0.439 -0.3318 -0.0811 -0.2247
  126MOL    C7525325   5.493   5.186   0.383 -0.0019 -0.0305 -0.2410
  126MOL    H7625326   5.569   4.866   0.691  4.0000 -0.1199 -1.0633
  126MOL    H7725327   5.445   4.852   0.557  1.7750 -3.2216 -1.3879
  126MOL    H7825328   5.618   5.093   0.581 -1.0592  0.7639 -0.9916
  126MOL    H7925329   5.595   5.224   0.389 -0.0667  0.0914  0.0975
  126MOL    H8025330   5.464   5.173   0.279 -1.5010  0.0055  0.1713
  126MOL    H8125331   5.422   5.258   0.422  1.0652  0.6206  0.5282
  126MOL    C8225332   5.408   5.102   0.670 -0.0727 -0.1315 -0.6801
  126MOL    C8325333   5.463   5.209   0.772  0.1313  0.0383 -0.5876
  126MOL    O8425334   5.352   5.295   0.820  0.5859 -0.6313  0.0451
  126MOL    C8525335   5.321   5.399   0.737  0.6193  0.2100 -0.5117
  126MOL    H8625336   5.389   5.014   0.732  1.3166 -0.3617 -0.5573
  126MOL    H8725337   5.324   5.140   0.614 -0.6521 -0.6796 -0.1922
  126MOL    H8825338   5.529   5.268   0.707  0.1056  0.7055 -0.0182
  126MOL    H8925339   5.407   5.463   0.717  1.8697 -1.4247 -0.4401
  126MOL    H9025340   5.301   5.367   0.635  1.4979 -1.8870 -0.0488
  126MOL    H9125341   5.244   5.467   0.774 -0.9455 -0.7725 -1.8869
  126MOL    C9225342   5.539   5.141   0.888  0.1951  0.0097 -0.4301
  126MOL    C9325343   5.591   5.238   0.997  0.3362 -0.1744  0.4799
  126MOL    O9425344   5.628   5.164   1.110 -0.2493 -0.0305  0.7950
  126MOL    C9525345   5.541   5.186   1.223 -0.4913  0.2048 -0.7747
  126MOL    H9625346   5.610   5.078   0.835 -0.2471 -0.0665 -0.9344
  126MOL    H9725347   5.470   5.072   0.937 -1.0595  1.1812 -0.5212
  126MOL    H9825348   5.523   5.318   1.026 -0.9620 -0.7989 -0.7891
  126MOL    H9925349   5.534   5.292   1.247  0.6673 -0.1388  1.1684
  126MOL   H10025350   5.443   5.147   1.196  1.3072 -4.1619 -1.3433
  126MOL   H10125351   5.584   5.138   1.311  0.3485  1.6313 -0.3841
  126MOL   C10225352   5.722   5.298   0.938  0.1764 -0.3003  0.2706
  126MOL   C10325353   5.782   5.421   1.009  0.4924  0.1901  0.1023
  126MOL   O10425354   5.903   5.448   0.938  0.0023  0.4832  0.3414
  126MOL   C10525355   6.022   5.432   1.016  0.6429  0.1090 -0.1762
  126MOL   H10625356   5.694   5.335   0.839 -1.4679  0.0875  0.8598
  126MOL   H10725357   5.799   5.222   0.926 -0.2042 -1.1457  2.8028
  126MOL   H10825358   5.800   5.388   1.111 -2.0347  0.1093  0.5573
  126MOL   H10925359   6.036   5.329   1.049  2.1707  0.5506  0.6290
  126MOL   H11025360   6.115   5.454   0.964  0.6146 -0.8068 -0.6197
  126MOL   H11125361   6.029   5.496   1.105 -1.2737 -1.7496  1.3760
  126MOL   C11225362   5.694   5.544   1.021  0.0599  0.7693 -0.0142
  126MOL   C11325363   5.774   5.663   1.089 -0.1394 -0.7703 -0.4181
  126MOL   O11425364   5.707   5.784   1.061  0.0857  0.0816 -0.6461
  126MOL   C11525365   5.753   5.850   0.942  0.2508 -0.4386  0.8677
  126MOL   H11625366   5.599   5.526   1.072 -1.7362 -0.7092 -3.6868
  126MOL   H11725367   5.661   5.573   0.921 -1.6924 -1.0990 -0.0281
  126MOL   H11825368   5.877   5.662   1.053 -0.1677 -1.5556 -0.4941
  126MOL   H11925369   5.862   5.858   0.949  0.4008  0.1343 -1.8195
  126MOL   H12025370   5.731   5.794   0.851  0.8652  0.4174  0.1899
  126MOL   H12125371   5.722   5.951   0.919  0.9367 -0.5126 -0.4592
  126MOL   C12225372   5.794   5.644   1.234  0.5737 -0.4324  0.0437
  126MOL   C12325373   5.827   5.761   1.317 -0.0946  0.1713 -0.3452
  126MOL   O12425374   5.813   5.733   1.456 -0.7143  0.2358  0.0581
  126MOL   C12525375   5.673   5.741   1.498 -0.6501  0.5833  0.1198
  126MOL   H12625376   5.865   5.566   1.262  1.1208 -0.4044 -1.2394
  126MOL   H12725377   5.694   5.619   1.268  0.8524  0.0503  1.2398
  126MOL   H12825378   5.759   5.844   1.299  0.0814  0.5886  0.8924
  126MOL   H12925379   5.599   5.773   1.425 -1.2339  0.4734  0.6545
  126MOL   H13025380   5.647   5.645   1.543 -1.0242  0.9057  0.5958
  126MOL   H13125381   5.662   5.812   1.580  1.2282 -0.1411  1.0223
  126MOL   C13225382   5.973   5.816   1.293  0.9751  0.0795 -0.0555
  126MOL   C13325383   5.984   5.969   1.321 -0.2180  0.1872  0.0030
  126MOL   O13425384   6.120   5.997   1.337  0.9174 -0.2166 -0.2321
  126MOL   C13525385   6.166   5.980   1.467 -0.5615 -0.5121 -0.6340
  126MOL   H13625386   6.012   5.784   1.196 -0.0188  0.9174 -0.7322
  126MOL   H13725387   6.042   5.756   1.353  0.2688 -1.1111 -0.4162
  126MOL   H13825388   5.923   5.985   1.410  1.3949  1.2680  0.9305
  126MOL   H13925389   6.147   5.878   1.500  1.4258 -0.3021  1.2956
  126MOL   H14025390   6.273   6.003   1.459 -0.8144  0.2813 -1.9059
  126MOL   H14125391   6.111   6.050   1.530 -1.6792  1.4437 -3.6845
  126MOL   C14225392   5.924   6.037   1.191  0.2158 -0.4771 -0.3801
  126MOL   C14325393   5.902   6.184   1.208  0.6449  0.1759 -0.4314
  126MOL   O14425394   5.865   6.242   1.084 -0.5981  0.2207  0.1940
  126MOL   C14525395   5.972   6.303   1.010 -0.0779 -0.4406 -0.0386
  126MOL   H14625396   5.832   5.990   1.155  2.2705 -2.9929 -2.5493
  126MOL   H14725397   5.981   6.014   1.102 -0.2610  0.8221 -1.0292
  126MOL   H14825398   5.994   6.227   1.247  1.4107 -1.6776 -0.1436
  126MOL   H14925399   6.033   6.216   0.984  1.8140  0.5365  0.9763
  126MOL   H15025400   5.959   6.365   0.921  2.6964  1.9333  1.1092
  126MOL   H15125401   6.029   6.368   1.076  0.3866 -1.1464  0.2617
  126MOL   C15225402   5.786   6.224   1.305  0.0200  0.1089 -0.1350
  126MOL   C15325403   5.654   6.135   1.294 -0.0560  0.5474 -0.0655
  126MOL   O15425404   5.565   6.186   1.392 -0.2681  0.3678  0.1889
  126MOL   C15525405   5.583   6.111   1.514 -0.1918  0.4486  0.5852
  126MOL   H15625406   5.761   6.329   1.289  0.1364  0.2180  0.4175
  126MOL   H15725407   5.832   6.217   1.403 -1.6238  0.2966  0.6494
  126MOL   H15825408   5.672   6.028   1.299 -0.9877  0.4248  0.6900
  126MOL   H15925409   5.518   6.150   1.593  0.9376  2.6298  0.4707
  126MOL   H16025410   5.543   6.010   1.507 -0.7997  0.7342 -0.0924
  126MOL   H16125411   5.685   6.104   1.551 -0.3521 -0.4217  0.8650
  126MOL   C16225412   5.585   6.156   1.155 -0.0175  0.1438  0.6809
  126MOL   C16325413   5.442   6.099   1.126 -0.0746 -0.8764 -0.2209
  126MOL   O16425414   5.398   6.129   0.991  0.2177 -0.0549  0.0508
  126MOL   C16525415   5.354   6.265   0.976  0.2978  0.1010 -0.3652
  126MOL   H16625416   5.654   6.106   1.087 -0.1489  0.2038  0.5054
  126MOL   H16725417   5.575   6.262   1.135  1.8900  0.4743  1.3226
  126MOL   H16825418   5.387   6.151   1.205 -0.1080 -0.2305 -0.6632
  126MOL   H16925419   5.443   6.328   0.970  0.5423 -0.2456 -0.3868
  126MOL   H17025420   5.290   6.270   0.888 -1.0985 -1.9554  0.5082
  126MOL   H17125421   5.294   6.301   1.059 -0.3934 -0.6478 -0.5351
  126MOL   C17225422   5.435   5.948   1.143 -0.4250  0.2856  0.4026
  126MOL   C17325423   5.295   5.886   1.134  0.8692 -0.1029  0.1351
  126MOL   O17425424   5.300   5.744   1.138 -0.1125 -0.1871 -0.3807
  126MOL   C17525425   5.312   5.687   1.009 -0.0870  0.0842  0.4036
  126MOL   H17625426   5.482   5.917   1.236  1.1659 -1.3148 -0.9001
  126MOL   H17725427   5.496   5.902   1.065 -0.1228  1.0807  0.1590
  126MOL   H17825428   5.224   5.930   1.064  2.0885  0.7968 -0.5568
  126MOL   H17925429   5.224   5.704   0.947 -0.4192 -0.5940  0.6773
  126MOL   H18025430   5.404   5.714   0.957 -0.4812  0.8575  0.0963
  126MOL   H18125431   5.313   5.579   1.020  1.7762 -0.2704 -2.5034
  126MOL   C18225432   5.229   5.914   1.271  0.0551  0.2481 -0.1436
  126MOL   C18325433   5.078   5.895   1.285 -0.4154 -0.1680  0.8045
  126MOL   O18425434   5.046   5.879   1.424 -0.5489 -0.3840  0.0936
  126MOL   C18525435   5.030   5.745   1.464 -0.1162  0.5783 -0.0330
  126MOL   H18625436   5.249   6.013   1.314  2.6454 -0.6154  0.7493
  126MOL   H18725437   5.267   5.844   1.346 -1.5744 -1.7367 -1.1267
  126MOL   H18825438   5.050   5.806   1.227 -0.3595  1.1469 -1.2861
  126MOL   H18925439   4.947   5.708   1.405  1.1792  0.7136 -1.9956
  126MOL   H19025440   5.113   5.675   1.452 -1.9328 -1.5747 -0.2964
  126MOL   H19125441   5.001   5.750   1.569  3.0194  0.9466  0.8978
  126MOL   C19225442   4.997   6.011   1.227  0.1892  0.5746 -0.6332
  126MOL   C19325443   4.845   5.983   1.245  0.1276  0.0542  0.2548
  126MOL   O19425444   4.775   6.099   1.192 -0.6903 -0.1021  0.0470
  126MOL   C19525445   4.635   6.095   1.222  0.2125  0.4869  0.0433
  126MOL   H19625446   5.027   6.038   1.126  2.6754  3.6953  0.8744
  126MOL   H19725447   5.025   6.099   1.285  0.2075 -0.0350  0.2892
  126MOL   H19825448   4.821   5.962   1.349 -0.8726  0.8240  0.1882
  126MOL   H19925449   4.590   6.007   1.175  0.3762  1.9079 -2.9038
  126MOL   H20025450   4.612   6.079   1.327 -2.9675  1.5297 -0.4180
  126MOL   H20125451   4.573   6.181   1.196 -4.0065 -2.6078 -0.6888
  126MOL   H20225452   4.819   5.894   1.188  0.9296  0.3401 -0.5835
  127MOL     C125453   3.437   2.205   2.931  0.5425  0.0913 -0.5074
  127MOL     C225454   3.387   2.340   3.007  0.6033  0.2917  0.0709
  127MOL     O325455   3.468   2.450   2.988 -0.5799 -0.1201 -0.5750
  127MOL     C425456   3.584   2.448   3.072 -0.0145 -0.2609  0.1738
  127MOL     H525457   3.460   2.223   2.826  0.5059 -0.3232 -0.5883
  127MOL     H625458   3.529   2.163   2.974 -0.1863  0.1458  1.1284
  127MOL     H725459   3.358   2.320   3.111  1.0788 -0.3970  0.0759
  127MOL     H825460   3.640   2.354   3.072 -0.2044 -0.3965  2.0197
  127MOL     H925461   3.659   2.524   3.047  0.3529 -0.5497  0.3800
  127MOL    H1025462   3.564   2.456   3.179  1.1476 -1.2814  0.4868
  127MOL    H1125463   3.360   2.129   2.939 -0.3943  0.8364 -2.2203
  127MOL    C1225464   3.254   2.386   2.932  0.3050  0.4625  0.6072
  127MOL    C1325465   3.181   2.507   2.991  0.4875 -0.3672  0.0165
  127MOL    O1425466   3.151   2.586   2.873  0.4403  0.2685 -0.1084
  127MOL    C1525467   3.122   2.723   2.894 -0.1073  0.1105 -0.6501
  127MOL    H1625468   3.186   2.304   2.908  1.8317 -0.1656 -1.6953
  127MOL    H1725469   3.294   2.422   2.837  0.3918  0.5154  0.6638
  127MOL    H1825470   3.243   2.562   3.062  1.8015  1.7405 -2.6621
  127MOL    H1925471   3.065   2.745   2.985  0.1855 -0.9856 -0.1983
  127MOL    H2025472   3.222   2.766   2.905 -0.1357 -0.3717  2.0092
  127MOL    H2125473   3.073   2.769   2.809  0.3169 -1.2553 -1.6544
  127MOL    C2225474   3.049   2.471   3.065 -0.2002  0.5593 -0.6463
  127MOL    C2325475   3.060   2.405   3.210  0.0308 -0.2834 -0.0342
  127MOL    O2425476   3.089   2.511   3.297  1.1195 -0.7071 -0.4846
  127MOL    C2525477   3.221   2.496   3.350 -0.6857 -0.1291 -0.5107
  127MOL    H2625478   2.991   2.396   3.011 -0.5979  1.7834 -1.9479
  127MOL    H2725479   2.980   2.555   3.077  0.7414  1.1131  1.0317
  127MOL    H2825480   3.145   2.337   3.213  0.4108  0.1020 -1.4705
  127MOL    H2925481   3.224   2.405   3.411 -0.7712  0.7297  0.7845
  127MOL    H3025482   3.308   2.512   3.286 -0.9210  2.0309 -0.3271
  127MOL    H3125483   3.238   2.585   3.411 -2.5892  0.6327 -1.0848
  127MOL    C3225484   2.939   2.312   3.248 -0.4063 -0.5251 -0.3912
  127MOL    C3325485   2.952   2.220   3.379  0.5101 -0.2487 -0.9826
  127MOL    O3425486   2.822   2.163   3.396 -0.3526 -0.0164 -0.0342
  127MOL    C3525487   2.783   2.163   3.535  0.1367 -0.1631 -0.5077
  127MOL    H3625488   2.915   2.248   3.163 -0.5268 -2.4153  1.0263
  127MOL    H3725489   2.852   2.377   3.258  1.2982  1.8572 -0.7445
  127MOL    H3825490   2.974   2.272   3.473 -0.1558 -2.5906  0.5138
  127MOL    H3925491   2.817   2.248   3.594 -2.1032 -1.4045  2.7143
  127MOL    H4025492   2.674   2.169   3.527 -0.2246 -3.2400  1.6262
  127MOL    H4125493   2.807   2.065   3.574 -1.8723 -1.1035 -1.5585
  127MOL    C4225494   3.043   2.091   3.363  0.2313  1.0583 -0.2928
  127MOL    C4325495   3.004   2.009   3.232 -0.6168 -0.0522 -0.7356
  127MOL    O4425496   3.073   2.076   3.124 -0.4332 -0.0488  0.1732
  127MOL    C4525497   3.014   2.051   2.997  0.4213 -0.0256  0.2718
  127MOL    H4625498   3.012   2.029   3.447 -1.1303  0.8207 -0.9679
  127MOL    H4725499   3.142   2.137   3.369 -0.9040  3.5500  0.1865
  127MOL    H4825500   2.896   2.014   3.217 -1.2092  1.0821  3.2368
  127MOL    H4925501   3.030   1.950   2.957  1.4565  0.1631  0.1912
  127MOL    H5025502   2.907   2.070   2.998  0.4352  0.0355  0.5017
  127MOL    H5125503   3.067   2.120   2.931  3.1982 -2.4292 -0.1466
  127MOL    C5225504   3.059   1.867   3.250 -0.6295 -0.0429  0.1484
  127MOL    C5325505   2.980   1.776   3.347  0.2778  0.5346 -0.0525
  127MOL    O5425506   2.841   1.783   3.292  0.1584 -0.0034  0.4703
  127MOL    C5525507   2.735   1.755   3.383 -0.0613  0.3772  0.6115
  127MOL    H5625508   3.168   1.876   3.260 -0.5591 -0.4836 -0.2365
  127MOL    H5725509   3.055   1.816   3.154 -3.2752  0.3267  0.0336
  127MOL    H5825510   2.990   1.809   3.450  1.3846  1.9124 -0.5685
  127MOL    H5925511   2.746   1.806   3.478  1.7541  0.5442  0.3213
  127MOL    H6025512   2.632   1.777   3.354 -0.9669 -1.3906  2.3408
  127MOL    H6125513   2.733   1.652   3.420  2.9501  0.4456  1.1225
  127MOL    C6225514   3.025   1.624   3.339  0.0121  0.2267 -0.3719
  127MOL    C6325515   3.160   1.595   3.416 -0.4365  0.1249  0.4393
  127MOL    O6425516   3.135   1.641   3.550 -0.0595 -0.0608  0.3410
  127MOL    C6525517   3.252   1.650   3.630  0.2772 -0.2003 -1.2111
  127MOL    H6625518   3.032   1.601   3.232  0.4217 -1.1674 -0.0564
  127MOL    H6725519   2.941   1.564   3.373  1.3679 -0.4928  1.7667
  127MOL    H6825520   3.238   1.656   3.370  0.8057 -1.6539  0.0867
  127MOL    H6925521   3.223   1.679   3.731  1.4465 -0.7170 -0.7258
  127MOL    H7025522   3.294   1.551   3.644  0.2449 -0.0066  0.3764
  127MOL    H7125523   3.325   1.717   3.583  0.5216  1.3579  1.2933
  127MOL    C7225524   3.195   1.445   3.397 -0.2433  0.4434  0.1790
  127MOL    C7325525   3.255   1.390   3.263  0.1558  0.5141 -0.1540
  127MOL    O7425526   3.372   1.306   3.288 -0.3653 -0.4250  0.0044
  127MOL    C7525527   3.454   1.287   3.173  0.0294  0.4520 -0.0831
  127MOL    H7625528   3.112   1.380   3.423  0.1053  0.0524  0.3265
  127MOL    H7725529   3.276   1.431   3.469  0.8693  3.1035 -0.4820
  127MOL    H7825530   3.290   1.477   3.206 -1.2562  1.3383  0.2159
  127MOL    H7925531   3.546   1.345   3.178  0.6756 -0.5143 -0.5205
  127MOL    H8025532   3.494   1.186   3.182  1.9516  1.2119  0.0789
  127MOL    H8125533   3.398   1.304   3.080 -5.0880  0.0676  2.7555
  127MOL    C8225534   3.147   1.315   3.188 -0.9231  0.2082  0.3104
  127MOL    C8325535   3.112   1.172   3.234  0.4632 -0.4868  0.2629
  127MOL    O8425536   2.975   1.156   3.212 -1.1495  0.2294  0.5967
  127MOL    C8525537   2.900   1.173   3.329  0.0718  0.3963 -0.3262
  127MOL    H8625538   3.171   1.318   3.081 -1.1753 -0.1614  0.2417
  127MOL    H8725539   3.058   1.379   3.186 -1.7350 -0.8176  2.4061
  127MOL    H8825540   3.147   1.178   3.337  0.9977  0.5210  0.0310
  127MOL    H8925541   2.913   1.277   3.359 -1.2641  0.8462 -1.2494
  127MOL    H9025542   2.796   1.160   3.300 -0.7128  1.3046  1.9185
  127MOL    H9125543   2.930   1.114   3.416 -0.8750  2.5115  1.4944
  127MOL    C9225544   3.201   1.052   3.180 -0.0387  0.1624  0.1776
  127MOL    C9325545   3.117   0.918   3.150  0.5680  0.1391 -0.2499
  127MOL    O9425546   3.195   0.814   3.092  0.4860 -0.5018  0.1965
  127MOL    C9525547   3.236   0.846   2.957 -0.3175  0.5736 -0.2643
  127MOL    H9625548   3.272   1.038   3.262  0.3820 -3.1248 -0.6906
  127MOL    H9725549   3.266   1.087   3.100 -0.3100  1.3411  0.4609
  127MOL    H9825550   3.030   0.934   3.085 -0.4970 -1.2356  0.7839
  127MOL    H9925551   3.287   0.941   2.948  1.2616 -0.1845  0.4771
  127MOL   H10025552   3.310   0.777   2.915  0.2558  0.9166  0.1782
  127MOL   H10125553   3.157   0.847   2.882 -0.7724 -1.5014  0.1454
  127MOL   C10225554   3.068   0.859   3.287 -0.0844 -0.1826 -0.0630
  127MOL   C10325555   2.950   0.761   3.298  0.5164 -0.1091 -0.4783
  127MOL   O10425556   2.933   0.719   3.435  0.5549  0.5106 -0.2264
  127MOL   C10525557   2.946   0.585   3.467 -0.2574  0.2859  0.3772
  127MOL   H10625558   3.051   0.937   3.361  0.1142  1.6650 -1.9168
  127MOL   H10725559   3.156   0.815   3.334  2.7022  3.8205 -1.2923
  127MOL   H10825560   2.958   0.678   3.228 -0.3576  0.3103 -1.0879
  127MOL   H10925561   3.039   0.544   3.427  0.2879 -0.1067  2.0297
  127MOL   H11025562   2.933   0.574   3.575 -0.5066 -4.0458 -0.0302
  127MOL   H11125563   2.866   0.538   3.410 -0.5220 -0.7785  1.6050
  127MOL   C11225564   2.812   0.827   3.273 -0.1569  0.4080  0.2473
  127MOL   C11325565   2.687   0.734   3.243 -0.6615  0.5903 -0.5368
  127MOL   O11425566   2.582   0.828   3.230  0.0170 -0.5477  0.1910
  127MOL   C11525567   2.507   0.845   3.353  0.5969 -0.4891 -0.1194
  127MOL   H11625568   2.814   0.897   3.190  1.1275 -1.9705 -1.7951
  127MOL   H11725569   2.783   0.895   3.353  3.2228  1.4337  0.6389
  127MOL   H11825570   2.672   0.670   3.330  1.3046 -2.2072 -2.1831
  127MOL   H11925571   2.446   0.935   3.353  0.0532 -0.8546 -0.6937
  127MOL   H12025572   2.429   0.770   3.364 -1.8909  1.9628 -0.6043
  127MOL   H12125573   2.566   0.837   3.444  1.2907 -0.3278 -0.5529
  127MOL   C12225574   2.704   0.659   3.111 -0.2445 -0.2929 -0.4655
  127MOL   C12325575   2.590   0.559   3.091 -0.4198  0.2413 -0.0779
  127MOL   O12425576   2.560   0.566   2.950 -0.6876  0.3079 -0.2961
  127MOL   C12525577   2.473   0.660   2.904  0.2156 -0.4884  0.2518
  127MOL   H12625578   2.802   0.612   3.104  0.3782  0.9056 -0.0810
  127MOL   H12725579   2.708   0.735   3.032  0.4403  1.3452  1.0983
  127MOL   H12825580   2.510   0.592   3.156 -0.0062  3.4487 -1.1110
  127MOL   H12925581   2.516   0.755   2.935 -2.0790  0.2277  1.3201
  127MOL   H13025582   2.468   0.658   2.795 -1.2692  1.6792  0.2627
  127MOL   H13125583   2.376   0.635   2.946 -0.8862  0.6694 -1.5350
  127MOL   C13225584   2.617   0.410   3.105  0.3659  0.4036  0.2547
  127MOL   C13325585   2.655   0.364   3.249 -0.4050  0.4369 -0.5064
  127MOL   O13425586   2.544   0.389   3.331  0.5416 -0.6112  0.6084
  127MOL   C13525587   2.585   0.401   3.472  0.4647  0.0326  0.4871
  127MOL   H13625588   2.673   0.364   3.023 -1.8363 -0.2022 -0.9325
  127MOL   H13725589   2.516   0.371   3.098  1.1798 -1.8421  0.2917
  127MOL   H13825590   2.734   0.434   3.276 -1.2140  1.0563  0.3220
  127MOL   H13925591   2.510   0.352   3.535 -0.9725  1.1533 -0.3085
  127MOL   H14025592   2.683   0.356   3.487 -0.3424 -1.7455  0.5253
  127MOL   H14125593   2.580   0.509   3.487 -0.8636  0.0011  0.3970
  127MOL   C14225594   2.700   0.212   3.256  0.4655 -0.0963 -0.8265
  127MOL   C14325595   2.847   0.185   3.223  0.1518 -0.3748  0.5233
  127MOL   O14425596   2.873   0.044   3.224  0.2001  0.0182 -0.0375
  127MOL   C14525597   2.853   7.801   3.353  0.0120 -0.3299 -0.3218
  127MOL   H14625598   2.641   0.158   3.183 -1.1292  1.3404 -0.6146
  127MOL   H14725599   2.675   0.172   3.355  2.5371  2.8405  0.9732
  127MOL   H14825600   2.910   0.244   3.290  0.1875 -0.1840  0.3240
  127MOL   H14925601   2.886   7.697   3.354  1.0199 -0.0150 -0.5401
  127MOL   H15025602   2.914   0.039   3.429 -2.2650  0.8850  0.7918
  127MOL   H15125603   2.752   7.806   3.393 -0.6031 -1.9864 -1.6212
  127MOL   C15225604   2.904   0.227   3.089  0.5676  0.7969  0.2112
  127MOL   C15325605   3.054   0.185   3.055 -0.4459 -0.1221  0.1476
  127MOL   O15425606   3.077   0.210   2.922  1.1094 -0.8045  0.3467
  127MOL   C15525607   3.041   0.111   2.831 -0.1084  0.9567 -0.0181
  127MOL   H15625608   2.898   0.335   3.080  3.3466  1.0743  1.1668
  127MOL   H15725609   2.831   0.189   3.018  0.6398 -0.1172  0.6122
  127MOL   H15825610   3.083   0.082   3.078  0.2615 -0.2255 -1.1655
  127MOL   H15925611   3.051   0.147   2.728 -1.4201  1.3263 -0.0242
  127MOL   H16025612   3.099   0.022   2.857 -1.3820  0.2733  0.5231
  127MOL   H16125613   2.936   0.094   2.854 -0.2372  0.3792 -1.0090
  127MOL   C16225614   3.160   0.265   3.138  0.0073  0.0790  0.2027
  127MOL   C16325615   3.296   0.285   3.077 -0.7072  0.2791 -0.0317
  127MOL   O16425616   3.364   0.397   3.141  0.2464  0.3687  0.1425
  127MOL   C16525617   3.333   0.524   3.079 -0.4471 -0.6892 -0.2995
  127MOL   H16625618   3.170   0.231   3.241 -3.3943  3.0106  1.6231
  127MOL   H16725619   3.115   0.362   3.159 -0.4015 -0.5165  2.1956
  127MOL   H16825620   3.284   0.305   2.970  0.4928  0.1778 -0.1873
  127MOL   H16925621   3.385   0.591   3.148  0.6773 -0.1886 -1.6203
  127MOL   H17025622   3.387   0.533   2.985  2.9304  0.0374  1.6427
  127MOL   H17125623   3.227   0.541   3.057 -0.6576  0.0901  1.2066
  127MOL   C17225624   3.391   0.160   3.089  0.3623 -0.5890  0.5330
  127MOL   C17325625   3.498   0.159   2.977 -0.2835  0.4615  0.1012
  127MOL   O17425626   3.600   0.060   2.997  0.5035  0.0439 -0.2847
  127MOL   C17525627   3.715   0.118   3.050  0.5431 -0.6769 -0.1450
  127MOL   H17625628   3.340   0.064   3.094  0.4453 -0.7739 -1.6905
  127MOL   H17725629   3.442   0.163   3.185 -0.4581 -1.6620  1.0127
  127MOL   H17825630   3.541   0.259   2.967 -0.2979  0.5383  0.8247
  127MOL   H17925631   3.767   0.172   2.971 -2.9298 -0.4696 -2.3874
  127MOL   H18025632   3.705   0.162   3.149  1.1938  1.1694 -0.8751
  127MOL   H18125633   3.794   0.044   3.060  0.6128 -0.5425  0.3239
  127MOL   C18225634   3.445   0.130   2.836 -0.0661  0.5657  0.6803
  127MOL   C18325635   3.547   0.138   2.722  0.7402  0.2799 -0.1514
  127MOL   O18425636   3.490   0.068   2.605 -0.2428 -0.7645  0.0858
  127MOL   C18525637   3.495   7.737   2.609 -0.5034  0.1830  0.2884
  127MOL   H18625638   3.361   0.196   2.815 -1.2833 -0.5355  1.9476
  127MOL   H18725639   3.400   0.030   2.843  0.9253  0.0981  0.4116
  127MOL   H18825640   3.632   0.076   2.750  1.2739  0.8383 -0.5267
  127MOL   H18925641   3.421   7.710   2.684 -1.6661  1.4008 -0.4026
  127MOL   H19025642   3.463   7.701   2.511  3.3753 -5.4601  0.8667
  127MOL   H19125643   3.594   7.697   2.630 -1.0419 -0.2808  2.0314
  127MOL   C19225644   3.585   0.283   2.691 -0.4816  0.1440  0.2779
  127MOL   C19325645   3.708   0.290   2.600 -0.2389  0.1897  0.5741
  127MOL   O19425646   3.756   0.425   2.586 -0.6986 -0.3436 -0.1502
  127MOL   C19525647   3.864   0.439   2.482  0.1117  0.2082 -0.3067
  127MOL   H19625648   3.624   0.347   2.770  1.3873  1.1151 -1.3571
  127MOL   H19725649   3.503   0.336   2.643 -0.5189 -0.6795 -0.5896
  127MOL   H19825650   3.675   0.257   2.501  0.7294  3.1282 -0.8109
  127MOL   H19925651   3.942   0.368   2.509 -0.0345  0.4285  0.6957
  127MOL   H20025652   3.827   0.421   2.381  0.8903  0.8775 -0.7156
  127MOL   H20125653   3.906   0.540   2.481 -1.9633  1.1032 -0.3013
  127MOL   H20225654   3.792   0.226   2.627  1.1693  1.5256 -0.5520
  128MOL     C125655   3.815   5.241   5.417  0.1630 -0.2171 -0.3194
  128MOL     C225656   3.935   5.185   5.342  0.5761  0.3533 -0.2931
  128MOL     O325657   3.943   5.236   5.213 -0.0065  0.4626  0.0139
  128MOL     C425658   4.045   5.181   5.122  0.4484 -0.8002  0.8137
  128MOL     H525659   3.826   5.345   5.446  1.6371 -0.0533 -1.4304
  128MOL     H625660   3.728   5.237   5.351  1.9839  0.2319 -2.8067
  128MOL     H725661   3.920   5.078   5.326  1.5218  0.2555 -0.5731
  128MOL     H825662   4.004   5.207   5.024 -0.4421  1.7921  1.8250
  128MOL     H925663   4.144   5.225   5.125  0.4972 -0.7104 -1.2998
  128MOL    H1025664   4.053   5.072   5.129 -1.7204 -0.9087  2.1163
  128MOL    H1125665   3.792   5.191   5.511 -0.4063 -1.2148 -0.9793
  128MOL    C1225666   4.070   5.221   5.414  0.0691  0.6794  0.4226
  128MOL    C1325667   4.097   5.165   5.560 -0.3552  0.1484 -0.5129
  128MOL    O1425668   4.081   5.021   5.567  0.7656 -0.4820  0.6784
  128MOL    C1525669   4.035   4.983   5.700  0.0215 -0.6166  0.4477
  128MOL    H1625670   4.072   5.330   5.417 -0.8593  0.7427 -1.0715
  128MOL    H1725671   4.156   5.196   5.352  1.9160 -0.6214  3.3706
  128MOL    H1825672   4.019   5.219   5.615  0.4588 -1.4807  2.3472
  128MOL    H1925673   4.084   5.046   5.774 -0.2000 -0.5981  0.5776
  128MOL    H2025674   3.927   5.003   5.697 -0.1120 -1.1743  1.3483
  128MOL    H2125675   4.058   4.879   5.722  1.8739 -1.0301 -3.1211
  128MOL    C2225676   4.234   5.201   5.628  0.3723  0.8621 -0.4591
  128MOL    C2325677   4.231   5.322   5.727  0.0540  0.0684 -0.0216
  128MOL    O2425678   4.159   5.286   5.848 -0.1748  0.8417 -0.6047
  128MOL    C2525679   4.071   5.371   5.913 -0.4817 -0.1985  1.2112
  128MOL    H2625680   4.296   5.215   5.539 -0.5226 -1.0559 -1.3960
  128MOL    H2725681   4.284   5.119   5.678 -1.7156 -0.0679  0.1458
  128MOL    H2825682   4.180   5.412   5.693 -2.9579 -0.7419  2.1953
  128MOL    H2925683   3.994   5.391   5.838  1.3348  2.3477 -0.0411
  128MOL    H3025684   4.023   5.342   6.006  0.8110  1.3195  2.3760
  128MOL    H3125685   4.125   5.464   5.932  0.9798 -1.0530  1.2692
  128MOL    C3225686   4.374   5.362   5.772  0.1246 -0.2959  0.2829
  128MOL    C3325687   4.468   5.425   5.657  0.2104  0.1115  0.3398
  128MOL    O3425688   4.416   5.559   5.644 -0.0427 -0.7069 -0.1418
  128MOL    C3525689   4.402   5.601   5.507  0.1597 -0.0737  0.7572
  128MOL    H3625690   4.416   5.266   5.805  2.7770  0.1054 -1.7661
  128MOL    H3725691   4.365   5.428   5.858 -2.4922 -1.3737  0.8903
  128MOL    H3825692   4.448   5.362   5.570 -1.3632 -0.6786  1.2555
  128MOL    H3925693   4.371   5.704   5.489 -0.3047 -0.2418  0.5653
  128MOL    H4025694   4.495   5.580   5.455  0.0256 -0.3986  0.6453
  128MOL    H4125695   4.338   5.534   5.449  0.9136  0.0306 -0.2013
  128MOL    C4225696   4.622   5.426   5.699  0.5230  0.0373  0.2442
  128MOL    C4325697   4.694   5.299   5.648 -0.0381 -0.2200 -1.0544
  128MOL    O4425698   4.693   5.297   5.509 -0.1305 -0.6346  0.0864
  128MOL    C4525699   4.725   5.162   5.459 -0.0428 -0.2269  0.3327
  128MOL    H4625700   4.622   5.443   5.807  1.1861 -0.1563  0.2792
  128MOL    H4725701   4.665   5.513   5.649 -1.5526  1.3860  0.7336
  128MOL    H4825702   4.656   5.203   5.683 -1.0919  1.2778  2.0720
  128MOL    H4925703   4.639   5.098   5.474 -0.5097  0.5937  1.1954
  128MOL    H5025704   4.758   5.160   5.355  0.7934  0.8200  0.5637
  128MOL    H5125705   4.804   5.112   5.515  1.3196 -0.4189 -1.6860
  128MOL    C5225706   4.842   5.312   5.689 -0.2010 -0.3518  0.4109
  128MOL    C5325707   4.856   5.274   5.841  0.5242 -0.0206 -0.1787
  128MOL    O5425708   4.841   5.128   5.849 -0.0643 -0.2149 -0.0656
  128MOL    C5525709   4.762   5.085   5.955 -0.4869  0.6295  0.5543
  128MOL    H5625710   4.870   5.414   5.665  1.0136 -0.2727  2.1016
  128MOL    H5725711   4.928   5.264   5.643  0.0990  0.6066 -0.0412
  128MOL    H5825712   4.792   5.330   5.910  1.5689 -0.4354  1.1474
  128MOL    H5925713   4.800   5.092   6.057  0.5635  1.1181  0.1414
  128MOL    H6025714   4.667   5.138   5.954 -0.7212  0.2014 -0.5039
  128MOL    H6125715   4.740   4.979   5.947 -0.4824  0.6058  0.8482
  128MOL    C6225716   5.002   5.296   5.893 -0.2214 -0.2476 -0.3009
  128MOL    C6325717   5.031   5.444   5.902 -0.2806 -0.2670  0.2302
  128MOL    O6425718   4.960   5.483   6.020  0.0870  0.3896 -0.3770
  128MOL    C6525719   4.921   5.616   6.000  0.2927 -0.1025 -0.2992
  128MOL    H6625720   5.070   5.231   5.838  1.3164 -0.4113  1.7424
  128MOL    H6725721   5.001   5.258   5.995 -0.2069  0.6055  0.0222
  128MOL    H6825722   4.998   5.492   5.811 -0.2591  0.9759  0.8694
  128MOL    H6925723   5.003   5.687   6.013  0.0711 -0.3561  3.0053
  128MOL    H7025724   4.875   5.641   5.904  0.0809 -1.0392 -0.4541
  128MOL    H7125725   4.854   5.651   6.079  1.8937 -0.7711  1.4034
  128MOL    C7225726   5.178   5.462   5.923 -0.2541 -0.4908  0.6127
  128MOL    C7325727   5.252   5.463   5.788  0.3559 -0.6196  0.2413
  128MOL    O7425728   5.207   5.582   5.715  0.2544 -0.1011  0.0332
  128MOL    C7525729   5.196   5.563   5.573  0.0250 -0.1393  0.3815
  128MOL    H7625730   5.225   5.390   5.990  0.6718 -0.6221 -0.1713
  128MOL    H7725731   5.196   5.564   5.959 -3.5347  0.3738 -0.0444
  128MOL    H7825732   5.215   5.371   5.743 -0.3244  0.3759 -1.2917
  128MOL    H7925733   5.114   5.492   5.560 -0.6268  0.7002 -0.1024
  128MOL    H8025734   5.156   5.655   5.530  1.4584  0.0476 -0.5930
  128MOL    H8125735   5.286   5.527   5.521  0.2559 -0.1955  0.8167
  128MOL    C8225736   5.403   5.454   5.808  0.7396  0.2072 -0.4293
  128MOL    C8325737   5.463   5.385   5.685 -0.4824 -0.5943  0.6372
  128MOL    O8425738   5.591   5.447   5.664  0.2097  0.5055  0.1543
  128MOL    C8525739   5.592   5.563   5.583  0.9352 -0.1710  0.6159
  128MOL    H8625740   5.418   5.390   5.895 -0.6938  0.4933  0.0473
  128MOL    H8725741   5.443   5.553   5.824 -0.0234  0.1062  2.3357
  128MOL    H8825742   5.404   5.389   5.594  1.1755 -0.9669 -0.4837
  128MOL    H8925743   5.531   5.647   5.615  1.3567  0.4799 -0.2818
  128MOL    H9025744   5.691   5.609   5.579  0.3941  1.0427  0.9302
  128MOL    H9125745   5.555   5.544   5.483 -1.1335  1.5838  1.0235
  128MOL    C9225746   5.480   5.235   5.708  0.2056  0.1095  0.8528
  128MOL    C9325747   5.354   5.144   5.719 -0.1934  0.7089  0.3691
  128MOL    O9425748   5.304   5.130   5.584 -0.3429 -0.7704  0.2078
  128MOL    C9525749   5.165   5.147   5.567 -0.8909 -0.5427  0.0341
  128MOL    H9625750   5.541   5.219   5.797  1.6137 -1.5513 -0.3813
  128MOL    H9725751   5.536   5.190   5.626  1.2768 -0.4261  1.8541
  128MOL    H9825752   5.284   5.195   5.785 -0.2983  2.0528 -0.7589
  128MOL    H9925753   5.114   5.071   5.627 -0.4559  1.7421  3.4042
  128MOL   H10025754   5.125   5.247   5.582  0.4558 -0.2704  1.9010
  128MOL   H10125755   5.148   5.130   5.460  0.9690  2.9058 -0.8781
  128MOL   C10225756   5.373   5.008   5.788  0.2772 -0.7696  0.6856
  128MOL   C10325757   5.396   5.007   5.940 -0.1791  0.0596  0.1482
  128MOL   O10425758   5.275   5.057   6.002  0.0768 -0.3453  0.3519
  128MOL   C10525759   5.295   5.136   6.121 -0.4613 -0.2597  0.3015
  128MOL   H10625760   5.458   4.955   5.744  0.3988  0.4655 -0.6186
  128MOL   H10725761   5.283   4.949   5.769  0.5267 -0.7864 -0.5313
  128MOL   H10825762   5.476   5.078   5.959  0.9897 -0.9645 -0.8242
  128MOL   H10925763   5.198   5.183   6.137 -0.0373  0.4797  0.7467
  128MOL   H11025764   5.317   5.075   6.209  0.5575 -0.8413 -0.3586
  128MOL   H11125765   5.369   5.215   6.106  1.3503 -1.7734  0.9720
  128MOL   C11225766   5.418   4.863   5.994 -0.2113  0.1431 -0.1067
  128MOL   C11325767   5.569   4.813   5.975  0.4281 -0.5118 -0.2749
  128MOL   O11425768   5.639   4.894   6.069  0.5601 -0.0044 -0.3523
  128MOL   C11525769   5.749   4.956   6.015  0.6173  0.4746  0.2055
  128MOL   H11625770   5.340   4.800   5.951  0.3569 -0.0942 -0.8031
  128MOL   H11725771   5.394   4.855   6.100  2.2973 -1.5294  0.3765
  128MOL   H11825772   5.605   4.823   5.873  1.6558  0.1383  0.2092
  128MOL   H11925773   5.829   4.985   6.083 -1.2457  1.6256  1.9507
  128MOL   H12025774   5.802   4.913   5.930  2.6822  1.4115  0.9819
  128MOL   H12125775   5.714   5.050   5.972 -1.0450 -0.2283 -0.0113
  128MOL   C12225776   5.581   4.667   6.023  0.8387  0.5183  0.2065
  128MOL   C12325777   5.680   4.590   5.938  0.1499  0.3924 -0.2525
  128MOL   O12425778   5.717   4.459   5.986 -0.7818 -0.1978 -0.6792
  128MOL   C12525779   5.802   4.449   6.101  0.0904 -0.1864  0.2474
  128MOL   H12625780   5.481   4.624   6.016  0.0418  2.2764  0.5798
  128MOL   H12725781   5.616   4.652   6.125  0.2023  0.9553  0.4957
  128MOL   H12825782   5.769   4.651   5.923  0.0285  0.2585 -1.6134
  128MOL   H12925783   5.750   4.475   6.193  0.9046  0.0402  0.6463
  128MOL   H13025784   5.834   4.346   6.113  0.0377 -0.5629 -2.5073
  128MOL   H13125785   5.894   4.506   6.082 -0.7894  0.9933 -0.5801
  128MOL   C13225786   5.627   4.552   5.798  0.3972 -0.0863 -0.1472
  128MOL   C13325787   5.742   4.507   5.701  0.2253  0.5697 -0.2435
  128MOL   O13425788   5.673   4.475   5.583 -0.2811 -0.0367  0.0765
  128MOL   C13525789   5.704   4.347   5.536 -0.4187 -0.7764 -0.6463
  128MOL   H13625790   5.583   4.635   5.744  0.5666 -0.4029 -0.7863
  128MOL   H13725791   5.553   4.472   5.799  0.2019  0.1111  0.8159
  128MOL   H13825792   5.783   4.421   5.754  1.6307  1.5503  0.2911
  128MOL   H13925793   5.667   4.318   5.437 -0.1671  0.8528 -1.2429
  128MOL   H14025794   5.810   4.323   5.526 -0.0188 -1.0683  3.3871
  128MOL   H14125795   5.662   4.271   5.601  1.5237 -1.3122  0.0015
  128MOL   C14225796   5.858   4.605   5.674 -0.2089 -0.5177 -0.0635
  128MOL   C14325797   5.993   4.545   5.630 -0.6551  0.0482  0.3040
  128MOL   O14425798   6.072   4.656   5.592  0.2971 -0.1263 -0.5790
  128MOL   C14525799   6.066   4.695   5.456  0.1134  0.4151  0.2830
  128MOL   H14625800   5.874   4.681   5.751 -0.3490 -0.5558  0.0039
  128MOL   H14725801   5.828   4.662   5.586 -1.0285  0.1039  0.6060
  128MOL   H14825802   5.966   4.472   5.554  0.2148  2.0157 -1.9703
  128MOL   H14925803   6.066   4.609   5.389 -1.7219  2.3277 -2.3130
  128MOL   H15025804   5.981   4.756   5.427  0.3294 -0.2115 -1.7472
  128MOL   H15125805   6.158   4.750   5.435  0.1452  0.7374  1.2376
  128MOL   C15225806   6.064   4.488   5.752  0.0962 -0.7023  0.7822
  128MOL   C15325807   6.195   4.419   5.750 -0.2011  0.2704 -0.2133
  128MOL   O15425808   6.240   4.386   5.876 -0.1743  1.0166  0.0169
  128MOL   C15525809   6.292   4.497   5.947 -0.0170 -0.3897 -0.1044
  128MOL   H15625810   5.991   4.439   5.816 -1.4791  1.3755  0.6418
  128MOL   H15725811   6.089   4.577   5.810  0.1671 -0.2559  0.0632
  128MOL   H15825812   6.263   4.494   5.709 -0.7981  1.3815  0.7892
  128MOL   H15925813   6.234   4.589   5.955  0.3362 -0.0895 -0.9065
  128MOL   H16025814   6.305   4.452   6.045  0.4583  0.4458  0.2213
  128MOL   H16125815   6.392   4.527   5.917 -0.4977  1.2685 -0.1174
  128MOL   C16225816   6.192   4.288   5.668  0.6767  0.2057  0.6568
  128MOL   C16325817   6.199   4.298   5.514  0.0057 -0.5876 -0.6274
  128MOL   O16425818   6.334   4.294   5.472 -0.1842  0.0583 -0.0282
  128MOL   C16525819   6.409   4.408   5.509  0.5832  0.5083  0.0285
  128MOL   H16625820   6.106   4.231   5.703 -0.7555  0.7918 -1.7629
  128MOL   H16725821   6.275   4.231   5.710  0.1308 -0.6112  0.6266
  128MOL   H16825822   6.161   4.398   5.496  1.2765 -0.0059 -0.1425
  128MOL   H16925823   6.428   4.392   5.615 -0.6596  0.9713  0.3282
  128MOL   H17025824   6.504   4.415   5.456  0.3251  0.9549 -0.3858
  128MOL   H17125825   6.361   4.504   5.490 -0.0273  0.3827  0.9082
  128MOL   C17225826   6.121   4.193   5.439  0.0874 -0.4115 -0.8145
  128MOL   C17325827   6.074   4.231   5.300  0.3852  0.9180 -1.0871
  128MOL   O17425828   5.971   4.336   5.312 -0.2385  0.2166  0.0801
  128MOL   C17525829   5.885   4.350   5.197  0.3245  0.5551 -0.3023
  128MOL   H17625830   6.034   4.170   5.500 -0.9242  0.1416 -2.0260
  128MOL   H17725831   6.179   4.101   5.434 -0.8115 -0.8968 -2.6670
  128MOL   H17825832   6.019   4.144   5.262  0.9116 -0.9139  2.1306
  128MOL   H17925833   5.933   4.381   5.104 -1.2925  1.1913 -0.9424
  128MOL   H18025834   5.831   4.256   5.182  0.5983  0.4305 -0.5143
  128MOL   H18125835   5.807   4.413   5.239  0.6825  0.2837  0.7883
  128MOL   C18225836   6.181   4.260   5.198  0.2557 -0.1597  0.0486
  128MOL   C18325837   6.268   4.143   5.151 -0.1051 -0.0835 -0.8198
  128MOL   O18425838   6.199   4.026   5.103  0.0968 -0.4132  0.1603
  128MOL   C18525839   6.099   4.046   5.014  0.0809 -0.0696  0.4760
  128MOL   H18625840   6.243   4.342   5.232  0.4130  0.0295 -0.6926
  128MOL   H18725841   6.137   4.304   5.108 -1.4700 -0.6500  0.6362
  128MOL   H18825842   6.313   4.101   5.241 -3.7544 -2.2025  0.1625
  128MOL   H18925843   6.095   3.949   4.964  0.5118 -0.1125  0.5237
  128MOL   H19025844   6.001   4.074   5.053  0.3661  0.2274  0.9816
  128MOL   H19125845   6.119   4.118   4.934 -4.6925 -1.8779 -2.5568
  128MOL   C19225846   6.373   4.187   5.048 -0.3833 -0.1657 -0.0891
  128MOL   C19325847   6.476   4.281   5.095 -0.9532  0.2029 -0.0054
  128MOL   O19425848   6.442   4.415   5.102 -0.1340 -0.2324  0.3997
  128MOL   C19525849   6.546   4.498   5.152 -0.4312  0.4010  0.0501
  128MOL   H19625850   6.330   4.221   4.954 -0.5582  2.7118  0.9746
  128MOL   H19725851   6.422   4.094   5.019 -2.9920 -1.8931  0.9054
  128MOL   H19825852   6.568   4.252   5.044 -0.9731  0.9749 -0.4976
  128MOL   H19925853   6.636   4.509   5.091 -1.6337  1.2681 -1.6170
  128MOL   H20025854   6.495   4.590   5.182 -3.6503 -1.2696 -0.0991
  128MOL   H20125855   6.578   4.468   5.251 -0.6050 -1.6248 -0.4847
  128MOL   H20225856   6.493   4.254   5.200  0.0752 -0.3382 -0.3060
  129MOL     C125857   7.720   4.417   3.228 -0.4078 -0.4017  0.1406
  129MOL     C225858   7.573   4.393   3.268  0.0894  0.1214 -0.2022
  129MOL     O325859   7.527   4.286   3.195 -0.7927 -0.0452  0.1545
  129MOL     C425860   7.400   4.309   3.132  0.0539 -0.2081 -0.4286
  129MOL     H525861   7.729   4.435   3.120  1.0328 -1.2184  0.1154
  129MOL     H625862   7.769   4.492   3.290  1.4862 -1.4752 -0.0433
  129MOL     H725863   7.507   4.480   3.263  0.7577  0.7199  1.3051
  129MOL     H825864   7.331   4.333   3.213  0.5744  0.3902 -0.1567
  129MOL     H925865   7.398   4.397   3.068 -0.5397  0.7920  0.9473
  129MOL    H1025866   7.366   4.234   3.061 -1.6659 -1.6789  1.8736
  129MOL    H1125867   7.784   4.330   3.236  0.3044  0.1164  0.1014
  129MOL    C1225868   7.577   4.337   3.409 -0.1364 -0.0103 -0.2206
  129MOL    C1325869   7.605   4.430   3.534 -0.7606  0.6384  0.0183
  129MOL    O1425870   7.503   4.530   3.544  0.3815 -0.6251 -0.9514
  129MOL    C1525871   7.545   4.656   3.502 -0.5596  0.1202  0.3721
  129MOL    H1625872   7.651   4.257   3.400  1.0291  1.1078 -0.7160
  129MOL    H1725873   7.485   4.283   3.431 -0.8368  0.9776 -0.6463
  129MOL    H1825874   7.706   4.470   3.519 -1.1289  1.0011 -1.5337
  129MOL    H1925875   7.601   4.644   3.409 -1.1364 -0.4762  0.1027
  129MOL    H2025876   7.456   4.718   3.493 -0.1721  0.4978 -1.0901
  129MOL    H2125877   7.599   4.697   3.587  2.1060 -1.1422 -0.6289
  129MOL    C2225878   7.586   4.345   3.662  0.0165  0.2583  0.4752
  129MOL    C2325879   7.717   4.264   3.706  0.2759  0.1404 -0.9895
  129MOL    O2425880   7.763   4.167   3.605  0.1101 -0.0045  0.5216
  129MOL    C2525881   7.685   4.047   3.597  0.1762 -0.5712 -0.5224
  129MOL    H2625882   7.502   4.278   3.644 -1.5344  2.8188 -2.2154
  129MOL    H2725883   7.549   4.406   3.743 -1.6709  0.8623 -0.7167
  129MOL    H2825884   7.693   4.194   3.787  2.7142  0.2998 -0.0673
  129MOL    H2925885   7.675   4.006   3.697 -0.0186  3.2707  1.1414
  129MOL    H3025886   7.586   4.069   3.556 -0.2333  0.4542  0.9966
  129MOL    H3125887   7.725   3.966   3.536  2.5025 -0.5901  0.9804
  129MOL    C3225888   0.022   4.348   3.761 -0.3645 -0.0980  0.4845
  129MOL    C3325889   0.142   4.272   3.823  0.5167  0.5349  0.0919
  129MOL    O3425890   0.091   4.203   3.938 -0.2534 -0.2379  0.2013
  129MOL    C3525891   0.198   4.160   4.029 -0.3620  0.1757  0.1817
  129MOL    H3625892   7.790   4.414   3.836  0.4391  0.0649  0.8102
  129MOL    H3725893   0.064   4.409   3.681  0.0897 -1.1978 -0.1299
  129MOL    H3825894   0.213   4.346   3.859 -1.3251  1.7476  1.3878
  129MOL    H3925895   0.267   4.240   4.057  1.3498 -0.8768 -0.9216
  129MOL    H4025896   0.148   4.127   4.120 -2.0041  1.1716 -0.3320
  129MOL    H4125897   0.248   4.070   3.994 -0.9545 -0.1573  0.1816
  129MOL    C4225898   0.217   4.170   3.733 -0.2702 -0.4116  0.4267
  129MOL    C4325899   0.259   4.221   3.599 -0.4548 -0.5545 -0.6179
  129MOL    O4425900   0.335   4.343   3.624 -0.5725 -0.4509  0.3871
  129MOL    C4525901   0.302   4.454   3.534 -0.0451 -0.3801  0.4049
  129MOL    H4625902   0.155   4.082   3.716  0.0686 -0.5806  0.0614
  129MOL    H4725903   0.311   4.139   3.781 -0.3170  1.5434  1.8487
  129MOL    H4825904   0.171   4.240   3.537 -0.6614  1.5730  0.2907
  129MOL    H4925905   0.354   4.542   3.574  0.9446 -0.4064 -0.7890
  129MOL    H5025906   0.328   4.443   3.429  2.7102 -1.1414  1.1344
  129MOL    H5125907   0.196   4.476   3.527 -0.3779 -1.5491  1.5970
  129MOL    C5225908   0.345   4.114   3.518 -0.4695  0.4386  0.2617
  129MOL    C5325909   0.259   3.989   3.479 -0.2307  0.2035 -0.5835
  129MOL    O5425910   0.244   4.001   3.339  0.3216 -0.2175 -0.4808
  129MOL    C5525911   0.138   4.084   3.293  0.0285  0.4127  0.1264
  129MOL    H5625912   0.430   4.080   3.576  1.6754  1.0874 -2.3861
  129MOL    H5725913   0.394   4.160   3.432 -0.2434 -1.2284 -0.5293
  129MOL    H5825914   0.163   3.989   3.530  1.3375 -0.8791  2.5042
  129MOL    H5925915   0.146   4.182   3.340 -2.5018 -0.0657  1.6288
  129MOL    H6025916   0.142   4.087   3.184  1.8853  0.0262  0.1544
  129MOL    H6125917   0.040   4.042   3.314  0.2314 -0.1488 -0.0206
  129MOL    C6225918   0.320   3.852   3.530  0.1933  0.1245  0.0309
  129MOL    C6325919   0.306   3.830   3.681  0.3380  0.3812 -0.3674
  129MOL    O6425920   0.168   3.820   3.714 -0.1176  0.0673 -0.0838
  129MOL    C6525921   0.127   3.827   3.847 -0.7242 -0.9546 -0.4314
  129MOL    H6625922   0.426   3.856   3.501  0.8060 -0.4484  2.1112
  129MOL    H6725923   0.278   3.773   3.468 -0.1301 -0.9672  1.6257
  129MOL    H6825924   0.348   3.919   3.728  1.7686 -1.5158  2.0437
  129MOL    H6925925   0.177   3.915   3.888 -0.1970  0.2410 -3.4989
  129MOL    H7025926   0.020   3.844   3.845 -0.3067  1.9255 -1.3753
  129MOL    H7125927   0.156   3.736   3.899  0.0134  0.2086  1.2153
  129MOL    C7225928   0.400   3.717   3.734 -0.3937 -0.0128 -0.6347
  129MOL    C7325929   0.548   3.754   3.748 -0.0712 -0.0786  0.2473
  129MOL    O7425930   0.564   3.844   3.863 -0.7692  0.0720 -0.4144
  129MOL    C7525931   0.660   3.951   3.857  0.3196  0.1188 -0.3085
  129MOL    H7625932   0.386   3.621   3.684  1.1712  1.4101 -3.9484
  129MOL    H7725933   0.383   3.707   3.842 -2.0483  3.6377 -0.4831
  129MOL    H7825934   0.558   3.814   3.657 -0.3591  0.3218  0.4771
  129MOL    H7925935   0.665   4.019   3.942 -0.5546 -0.6486  0.3563
  129MOL    H8025936   0.765   3.921   3.852  0.9147  1.7367  1.6642
  129MOL    H8125937   0.629   4.014   3.774  0.7824 -0.8921 -1.2514
  129MOL    C8225938   0.648   3.642   3.746 -0.0758 -0.5328  0.3724
  129MOL    C8325939   0.618   3.525   3.842  0.3356 -0.2938 -0.5322
  129MOL    O8425940   0.562   3.423   3.754 -0.2865  0.1737 -0.2632
  129MOL    C8525941   0.486   3.312   3.815  0.2804  0.1850  0.1991
  129MOL    H8625942   0.748   3.684   3.748 -0.6119  0.8087 -0.4404
  129MOL    H8725943   0.632   3.601   3.646 -0.1252  0.2334  0.0635
  129MOL    H8825944   0.545   3.528   3.923 -0.3514  0.0654 -1.1587
  129MOL    H8925945   0.546   3.242   3.872 -1.9336 -0.7894  1.3968
  129MOL    H9025946   0.400   3.341   3.876 -1.4657  1.8594 -2.9366
  129MOL    H9125947   0.431   3.254   3.741 -2.7754 -2.0265  4.0375
  129MOL    C9225948   0.751   3.474   3.907 -0.4221  0.3104 -0.6540
  129MOL    C9325949   0.830   3.563   4.005  0.3291 -0.0492  0.4342
  129MOL    O9425950   0.741   3.594   4.110  0.1028 -0.4621 -0.1424
  129MOL    C9525951   0.769   3.726   4.158  0.3503  0.1832 -1.3401
  129MOL    H9625952   0.807   3.440   3.820 -1.4641 -2.3088 -0.3288
  129MOL    H9725953   0.724   3.383   3.961 -0.2202  1.0560  0.7352
  129MOL    H9825954   0.860   3.654   3.953 -0.9055 -0.0520 -0.3304
  129MOL    H9925955   0.868   3.730   4.203  0.9606 -0.5301 -2.6049
  129MOL   H10025956   0.761   3.796   4.076  3.1509 -0.3365 -2.1180
  129MOL   H10125957   0.699   3.763   4.233  1.3615  1.7865 -1.1726
  129MOL   C10225958   0.958   3.503   4.050 -0.1310  0.3377 -0.4854
  129MOL   C10325959   1.066   3.478   3.949 -0.3659 -0.7596  0.4849
  129MOL   O10425960   1.088   3.603   3.887  0.1628  0.8658  0.4484
  129MOL   C10525961   1.160   3.586   3.761  0.0504 -0.2913  0.6753
  129MOL   H10625962   0.945   3.409   4.103 -1.7752  0.6287 -0.3428
  129MOL   H10725963   0.992   3.566   4.133  2.0033  0.4535 -1.4135
  129MOL   H10825964   1.031   3.406   3.875  1.1914 -0.0181 -1.0350
  129MOL   H10925965   1.202   3.486   3.762  2.2720  0.5653 -1.1951
  129MOL   H11025966   1.093   3.588   3.675  2.9933  1.8188 -1.6931
  129MOL   H11125967   1.240   3.660   3.747 -0.2622 -0.0949 -0.0735
  129MOL   C11225968   1.190   3.410   4.017 -0.1448  0.4063 -0.6106
  129MOL   C11325969   1.250   3.477   4.144  0.5078 -0.5443  0.4668
  129MOL   O11425970   1.357   3.401   4.186 -0.7245 -0.1468 -0.2611
  129MOL   C11525971   1.317   3.312   4.280  0.1805 -0.5634 -0.0520
  129MOL   H11625972   1.277   3.404   3.951 -0.1291  1.0344 -0.6507
  129MOL   H11725973   1.169   3.306   4.039  0.1816  0.9185  2.3485
  129MOL   H11825974   1.169   3.483   4.217  2.1150 -0.4545  2.2692
  129MOL   H11925975   1.301   3.361   4.376 -1.5833 -0.5080 -0.3641
  129MOL   H12025976   1.232   3.252   4.247 -1.9292  1.5461  1.3622
  129MOL   H12125977   1.406   3.254   4.305  1.3303  0.4294 -1.7125
  129MOL   C12225978   1.300   3.621   4.116 -0.0229  0.2074 -0.0628
  129MOL   C12325979   1.353   3.710   4.233 -0.1845  0.0730 -0.2101
  129MOL   O12425980   1.322   3.843   4.191  0.4807  0.1833  0.1881
  129MOL   C12525981   1.437   3.918   4.157 -0.3780  0.5200  0.1658
  129MOL   H12625982   1.208   3.675   4.090 -0.9875 -1.5485 -0.3957
  129MOL   H12725983   1.367   3.639   4.031  0.3707  0.1745  0.2414
  129MOL   H12825984   1.458   3.693   4.255 -0.2353 -1.4965 -1.1108
  129MOL   H12925985   1.521   3.905   4.225 -1.2065  0.0095  1.1257
  129MOL   H13025986   1.467   3.895   4.055 -2.1458  0.3948 -0.3442
  129MOL   H13125987   1.406   4.023   4.152 -0.1331  0.6155  0.5687
  129MOL   C13225988   1.269   3.707   4.366  0.3208  0.1542 -0.3688
  129MOL   C13325989   1.351   3.724   4.496 -0.1147  0.6027 -0.3576
  129MOL   O13425990   1.430   3.835   4.485 -0.3190 -0.4560  0.2485
  129MOL   C13525991   1.539   3.840   4.580 -0.2791  0.1130  0.3151
  129MOL   H13625992   1.226   3.608   4.377 -1.9805  1.2174  0.4283
  129MOL   H13725993   1.184   3.774   4.359 -0.4905 -0.9790 -1.4464
  129MOL   H13825994   1.410   3.635   4.520 -1.1741 -0.1677 -0.5418
  129MOL   H13925995   1.612   3.762   4.559 -0.6026 -0.1500  0.1486
  129MOL   H14025996   1.579   3.941   4.577 -1.8527  0.7830  0.9171
  129MOL   H14125997   1.513   3.824   4.685  0.6194 -0.8178  0.4085
  129MOL   C14225998   1.249   3.750   4.608 -0.2938  0.3788  0.3724
  129MOL   C14325999   1.177   3.614   4.646 -0.0144  0.4450  0.6735
  129MOL   O14426000   1.200   3.570   4.784 -0.7247  0.1820  0.6502
  129MOL   C14526001   1.331   3.533   4.822  0.2584 -0.2100  0.0705
  129MOL   H14626002   1.181   3.829   4.575  0.2886  0.8053  0.1771
  129MOL   H14726003   1.297   3.780   4.702  0.9979  2.8966 -1.0432
  129MOL   H14826004   1.225   3.533   4.591 -0.0261  0.8973 -0.0107
  129MOL   H14926005   1.391   3.624   4.823  0.0377 -0.0606 -0.0490
  129MOL   H15026006   1.320   3.482   4.918 -0.2923  1.1025  0.7237
  129MOL   H15126007   1.377   3.464   4.752  1.1814 -0.9382  1.3694
  129MOL   C15226008   1.023   3.628   4.637  0.0348 -0.5139  0.3306
  129MOL   C15326009   0.961   3.496   4.651  0.4958  0.3541 -0.2222
  129MOL   O15426010   0.829   3.512   4.709 -0.2085 -0.5548 -0.0872
  129MOL   C15526011   0.836   3.514   4.850  0.3888 -0.5364  0.4578
  129MOL   H15626012   0.985   3.677   4.548 -0.1836 -0.1144  0.6407
  129MOL   H15726013   0.992   3.697   4.715 -0.0163 -0.8346  0.5985
  129MOL   H15826014   1.015   3.422   4.710  2.3973  1.0752 -1.0160
  129MOL   H15926015   0.745   3.556   4.894  0.3252 -1.1979  0.9633
  129MOL   H16026016   0.857   3.414   4.888 -0.3275 -0.5376  0.8643
  129MOL   H16126017   0.917   3.572   4.894  0.0959 -0.5341  0.9988
  129MOL   C16226018   0.928   3.441   4.510  0.3227  0.0952  0.5597
  129MOL   C16326019   0.853   3.310   4.486  0.3641  0.3723 -0.0215
  129MOL   O16426020   0.810   3.299   4.353  0.0957  0.2855  0.4204
  129MOL   C16526021   0.688   3.367   4.324  0.2539  1.0187 -0.2608
  129MOL   H16626022   1.018   3.449   4.449  0.7034  1.7217  1.3076
  129MOL   H16726023   0.862   3.511   4.459  0.3355 -0.6150 -0.4398
  129MOL   H16826024   0.771   3.300   4.558  2.0629  1.9298  2.2026
  129MOL   H16926025   0.674   3.353   4.216  1.5887 -0.1217 -0.3045
  129MOL   H17026026   0.602   3.349   4.388 -0.0672 -0.2448 -1.0140
  129MOL   H17126027   0.708   3.474   4.324  1.4306  0.8209 -1.4626
  129MOL   C17226028   0.932   3.181   4.525  0.5178 -0.5409  0.2255
  129MOL   C17326029   0.862   3.047   4.541  0.0868 -0.5846 -0.3680
  129MOL   O17426030   0.971   2.954   4.549 -0.2787 -0.0177 -0.2200
  129MOL   C17526031   0.951   2.814   4.532 -0.0822 -0.3188 -0.6920
  129MOL   H17626032   0.978   3.199   4.622  0.0942 -0.9503  0.5032
  129MOL   H17726033   1.013   3.159   4.456 -0.1815  0.0061 -0.7896
  129MOL   H17826034   0.825   3.045   4.439 -1.7268  1.9947  0.1963
  129MOL   H17926035   1.043   2.757   4.519  0.8424  1.2920 -1.3646
  129MOL   H18026036   0.886   2.775   4.611  1.1146  0.0624  0.4793
  129MOL   H18126037   0.883   2.801   4.447  0.0370  2.6159 -1.2851
  129MOL   C18226038   0.757   3.029   4.655 -0.2535  0.2669 -0.0960
  129MOL   C18326039   0.807   3.001   4.795 -0.3034 -0.1890  0.3728
  129MOL   O18426040   0.859   3.120   4.853  0.4197  0.1567  0.2126
  129MOL   C18526041   0.970   3.092   4.940 -0.4485 -0.7278  0.9476
  129MOL   H18626042   0.701   2.944   4.617  0.9979 -0.6109 -0.0130
  129MOL   H18726043   0.688   3.114   4.658  0.1028  0.5313  0.8342
  129MOL   H18826044   0.884   2.926   4.775  0.9100  1.6069 -2.0396
  129MOL   H18926045   1.030   3.026   4.878 -0.5510  0.2466 -0.2066
  129MOL   H19026046   1.025   3.182   4.970 -1.1455 -0.5408  1.6708
  129MOL   H19126047   0.951   3.028   5.026 -1.9875 -1.8652 -0.2129
  129MOL   C19226048   0.690   2.961   4.887  0.7194 -0.0107 -0.0893
  129MOL   C19326049   0.614   2.831   4.853 -0.3734  0.8560  0.0692
  129MOL   O19426050   0.709   2.718   4.852 -0.0318 -0.3052  0.1090
  129MOL   C19526051   0.650   2.604   4.810 -0.8821  0.5881 -0.1652
  129MOL   H19626052   0.618   3.043   4.888 -0.0594 -0.7072  1.1218
  129MOL   H19726053   0.725   2.943   4.989  1.2131 -0.7237 -0.3752
  129MOL   H19826054   0.555   2.829   4.762 -0.1163  1.5930 -0.1172
  129MOL   H19926055   0.601   2.606   4.712 -1.3108  0.3125  0.0401
  129MOL   H20026056   0.713   2.515   4.811 -0.2215  1.0474  2.5603
  129MOL   H20126057   0.568   2.561   4.868  2.2280 -2.5877  2.1179
  129MOL   H20226058   0.539   2.827   4.932 -2.3932  0.6272 -1.8198
  130MOL     C126059   0.678   7.768   6.454 -0.6714 -0.0830  0.3995
  130MOL     C226060   0.625   7.621   6.492  0.4050 -0.6620  0.1567
  130MOL     O326061   0.723   7.528   6.526  0.2337 -0.2534 -0.1596
  130MOL     C426062   0.806   7.486   6.422  0.6732  0.3298  0.2075
  130MOL     H526063   0.708   7.754   6.350 -0.7809  1.4385  0.1576
  130MOL     H626064   0.595   0.028   6.454  1.3038  2.3287  1.1689
  130MOL     H726065   0.580   7.574   6.405  1.9241 -1.9062  0.0191
  130MOL     H826066   0.874   7.565   6.390  2.2840 -1.5621 -1.1533
  130MOL     H926067   0.868   7.406   6.462 -0.9853 -1.5865 -0.9633
  130MOL    H1026068   0.752   7.452   6.334  0.9275  0.4785 -0.0086
  130MOL    H1126069   0.765   7.805   6.507  0.1061 -0.2214 -0.7475
  130MOL    C1226070   0.523   7.624   6.613 -0.4648  0.7065  0.2648
  130MOL    C1326071   0.577   7.666   6.752 -0.9588 -0.0875 -0.4688
  130MOL    O1426072   0.460   7.704   6.827  0.0022 -0.0124  0.6898
  130MOL    C1526073   0.439   0.036   6.837 -0.6249  0.7781 -0.0776
  130MOL    H1626074   0.480   7.525   6.621  1.4956 -0.0879  1.3533
  130MOL    H1726075   0.440   7.683   6.575 -1.4245 -1.1386 -0.5592
  130MOL    H1826076   0.644   7.750   6.736 -1.8295  1.0782  1.8571
  130MOL    H1926077   0.349   0.056   6.896 -0.7183 -1.5888  0.6017
  130MOL    H2026078   0.526   0.081   6.885 -0.6239 -1.3188  1.9881
  130MOL    H2126079   0.424   0.093   6.746 -0.1100  3.2756  1.3437
  130MOL    C2226080   0.656   7.556   6.836 -0.5895 -0.9039 -0.1815
  130MOL    C2326081   0.735   7.610   6.951  0.1504 -0.2571  0.6474
  130MOL    O2426082   0.760   7.504   7.041 -0.1686  0.5111 -0.1011
  130MOL    C2526083   0.650   7.456   7.119 -0.6802 -0.1443  0.6029
  130MOL    H2626084   0.734   7.504   6.780 -0.6722 -1.5641  0.3186
  130MOL    H2726085   0.585   7.480   6.865 -0.4556 -0.6279  0.8861
  130MOL    H2826086   0.682   7.688   7.005 -1.7153 -1.0339 -0.0288
  130MOL    H2926087   0.560   7.515   7.105 -0.6984 -0.4221 -0.5529
  130MOL    H3026088   0.622   7.357   7.084  2.5473 -0.7716 -0.3913
  130MOL    H3126089   0.680   7.447   7.223 -0.8961  1.9086  0.8776
  130MOL    C3226090   0.877   7.663   6.917  0.1753  0.1045  0.4178
  130MOL    C3326091   0.944   7.740   7.025 -0.3376 -0.3733 -1.0110
  130MOL    O3426092   1.081   7.702   7.042 -0.1473 -0.4579  0.2568
  130MOL    C3526093   1.120   7.621   7.150 -0.4303  0.9549  0.3387
  130MOL    H3626094   0.884   7.716   6.822  0.9960 -1.5653 -0.4922
  130MOL    H3726095   0.940   7.578   6.890  0.8128 -0.1608  2.6720
  130MOL    H3826096   0.886   7.712   7.113 -0.7722  0.1046 -1.1349
  130MOL    H3926097   1.132   7.675   7.244  0.0218  1.3942  0.0351
  130MOL    H4026098   1.046   7.541   7.160  1.3456 -0.8239 -0.3803
  130MOL    H4126099   1.217   7.576   7.128 -0.8406  0.9149 -1.5041
  130MOL    C4226100   0.934   0.085   7.004  0.1716 -0.0444  0.0440
  130MOL    C4326101   0.798   0.153   7.028 -0.5209  0.2382 -0.2589
  130MOL    O4426102   0.777   0.156   7.170 -0.2545 -0.2260 -0.0366
  130MOL    C4526103   0.646   0.114   7.206 -0.8467  0.2930 -0.3346
  130MOL    H4626104   0.969   0.112   6.905  1.1793  0.5506  0.5500
  130MOL    H4726105   0.998   0.135   7.077  2.5492 -1.0135 -1.3056
  130MOL    H4826106   0.724   0.098   6.971 -0.2171 -0.2986 -0.1312
  130MOL    H4926107   0.570   0.136   7.132 -0.7628  0.1744 -0.4548
  130MOL    H5026108   0.629   0.007   7.214  0.3047  0.2385  2.0064
  130MOL    H5126109   0.603   0.165   7.292 -1.1706  0.2352 -0.4619
  130MOL    C5226110   0.790   0.296   6.971 -0.0873 -0.0244  1.1078
  130MOL    C5326111   0.788   0.312   6.818  0.2735 -0.5691 -0.1361
  130MOL    O5426112   0.651   0.289   6.784 -0.3463 -0.1099 -0.2745
  130MOL    C5526113   0.627   0.288   6.644 -0.0357 -0.4727  0.6715
  130MOL    H5626114   0.864   0.352   7.029 -0.4149  1.1321  0.4260
  130MOL    H5726115   0.708   0.335   7.031  0.6023  3.0119  0.1510
  130MOL    H5826116   0.840   0.228   6.772  2.8376  0.7433  0.3119
  130MOL    H5926117   0.523   0.261   6.624  0.5630 -1.4858 -1.2171
  130MOL    H6026118   0.644   0.387   6.601  0.2144 -1.8105 -2.4605
  130MOL    H6126119   0.696   0.209   6.613  2.3900  1.2893  1.4397
  130MOL    C6226120   0.855   0.445   6.769  0.5511  0.0247  0.1087
  130MOL    C6326121   1.009   0.437   6.780 -0.3573  0.1235 -0.7235
  130MOL    O6426122   1.040   0.341   6.688  0.2050  0.4362  0.5409
  130MOL    C6526123   1.153   0.256   6.719  0.0432  0.0184 -0.0728
  130MOL    H6626124   0.814   0.526   6.828 -1.2133  1.0798 -2.4560
  130MOL    H6726125   0.830   0.481   6.669 -0.6984 -0.5680  0.1991
  130MOL    H6826126   1.026   0.404   6.882 -2.2478  1.2971  0.0081
  130MOL    H6926127   1.166   0.170   6.654 -0.9411 -0.5405  0.4593
  130MOL    H7026128   1.248   0.310   6.722  1.6304 -2.5492 -1.9202
  130MOL    H7126129   1.154   0.210   6.818 -2.8411  0.0792  0.0160
  130MOL    C7226130   1.084   0.567   6.748 -0.6398  0.4107  0.2384
  130MOL    C7326131   1.076   0.669   6.866  0.1751  0.5713 -0.4396
  130MOL    O7426132   1.127   0.611   6.987  0.2636 -0.0281 -0.6562
  130MOL    C7526133   1.236   0.522   6.995  0.2920  0.7084 -0.0610
  130MOL    H7626134   1.051   0.615   6.656  0.4611 -2.0461 -1.4572
  130MOL    H7726135   1.190   0.544   6.742  0.1559  3.0825  2.4094
  130MOL    H7826136   0.967   0.670   6.876  0.1606 -1.7670 -0.1103
  130MOL    H7926137   1.316   0.572   6.939 -0.9218 -1.7027 -4.2184
  130MOL    H8026138   1.253   0.492   7.098  1.4515 -1.6931 -0.8950
  130MOL    H8126139   1.229   0.424   6.947  1.5876  1.0206 -0.9378
  130MOL    C8226140   1.133   0.798   6.842 -0.5020 -0.0040  0.2512
  130MOL    C8326141   1.135   0.881   6.967 -0.3032 -0.3297  0.7761
  130MOL    O8426142   1.185   1.009   6.933 -0.0678  0.6674  0.2627
  130MOL    C8526143   1.309   1.049   6.988  0.6650  0.2626 -0.0865
  130MOL    H8626144   1.097   0.848   6.752 -0.5073  0.2353  0.3850
  130MOL    H8726145   1.237   0.782   6.816 -0.8560  0.5471 -1.5349
  130MOL    H8826146   1.211   0.836   7.031 -0.0249 -0.9857 -0.0060
  130MOL    H8926147   1.366   1.120   6.927  0.3312  0.2828 -0.3789
  130MOL    H9026148   1.300   1.094   7.086  0.1704  2.7361 -1.2291
  130MOL    H9126149   1.379   0.965   6.987  1.7511  1.1377  1.6014
  130MOL    C9226150   0.998   0.900   7.027 -0.1186 -0.5575  0.3620
  130MOL    C9326151   1.000   0.990   7.159  0.0381  0.6449  0.0828
  130MOL    O9426152   0.868   1.054   7.164  0.6525  0.1725 -0.2640
  130MOL    C9526153   0.876   1.179   7.229  0.2287 -0.8785  0.6389
  130MOL    H9626154   0.947   0.805   7.047  0.5491 -0.8771  0.5538
  130MOL    H9726155   0.940   0.950   6.949 -0.9916 -1.3398  0.5011
  130MOL    H9826156   1.080   1.065   7.164 -0.2740  1.1054 -1.3533
  130MOL    H9926157   0.869   1.173   7.338 -2.0401  0.9290  0.6371
  130MOL   H10026158   0.961   1.239   7.198 -1.4724  2.8469  2.7917
  130MOL   H10126159   0.783   1.230   7.201  1.2818  0.0944 -1.1974
  130MOL   C10226160   0.995   0.903   7.288  0.2592 -0.3699 -0.6381
  130MOL   C10326161   1.142   0.881   7.352 -0.3441  0.2631  0.7703
  130MOL   O10426162   1.155   0.947   7.473 -0.0185 -0.0940  0.2763
  130MOL   C10526163   1.175   1.087   7.463 -0.6121 -0.1087  0.0625
  130MOL   H10626164   0.940   0.811   7.267  0.1248  0.2732 -3.3519
  130MOL   H10726165   0.933   0.945   7.367  1.2020  0.1007 -0.1471
  130MOL   H10826166   1.209   0.928   7.281 -0.3199  1.0816  1.3354
  130MOL   H10926167   1.202   1.120   7.564 -0.1525 -1.8182  0.5285
  130MOL   H11026168   1.252   1.113   7.391 -0.3885  0.7546  0.6165
  130MOL   H11126169   1.074   1.121   7.440 -0.4452  0.7447  0.5802
  130MOL   C11226170   1.175   0.731   7.374 -0.8813 -0.0943  0.4052
  130MOL   C11326171   1.068   0.661   7.464 -0.4523  0.0367  0.1228
  130MOL   O11426172   0.977   0.582   7.386 -0.4119 -0.0562  0.1037
  130MOL   C11526173   1.031   0.461   7.333  0.6960  0.3211  0.3357
  130MOL   H11626174   1.270   0.716   7.424 -0.9454  1.3355  0.9702
  130MOL   H11726175   1.178   0.677   7.279  0.8507  0.3062  0.2168
  130MOL   H11826176   0.999   0.740   7.495 -1.1101 -1.4894  2.6346
  130MOL   H11926177   1.072   0.385   7.400 -1.7059 -0.6672  0.7662
  130MOL   H12026178   0.962   0.421   7.259  0.3903  0.3885  0.5814
  130MOL   H12126179   1.123   0.479   7.279  2.1756 -1.0103  2.3155
  130MOL   C12226180   1.113   0.592   7.595 -0.3450  0.6903 -0.4101
  130MOL   C12326181   0.990   0.521   7.673  0.3500 -0.3689  0.2088
  130MOL   O12426182   1.032   0.457   7.792  1.1603  0.8413 -0.7339
  130MOL   C12526183   1.073   0.323   7.776  0.3211  0.1587  0.2121
  130MOL   H12626184   1.148   0.668   7.665  2.7210 -1.2689  0.2879
  130MOL   H12726185   1.200   0.528   7.581  0.1221  1.1453  0.3234
  130MOL   H12826186   0.938   0.450   7.609 -1.6389 -0.5463  1.9560
  130MOL   H12926187   1.154   0.325   7.703  1.1298 -2.9270  0.9509
  130MOL   H13026188   1.118   0.275   0.053  1.5893 -0.1074 -0.5717
  130MOL   H13126189   1.003   0.252   7.732  0.7456 -0.2250  0.1476
  130MOL   C13226190   0.880   0.621   7.724  0.8698 -0.4617  0.7949
  130MOL   C13326191   0.764   0.569   0.012 -0.1044 -0.2052 -0.8569
  130MOL   O13426192   0.739   0.657   0.129 -0.2511  0.5412  0.0452
  130MOL   C13526193   0.812   0.635   0.243  0.4713 -0.1546 -0.0102
  130MOL   H13626194   0.843   0.682   7.641  2.9048  1.4636  1.2679
  130MOL   H13726195   0.923   0.708   7.772 -1.8575  3.2691 -3.1271
  130MOL   H13826196   0.789   0.465   0.034 -1.2283 -0.1102  1.0401
  130MOL   H13926197   0.920   0.624   0.238  0.5040 -0.3701  1.0781
  130MOL   H14026198   0.807   0.722   0.309  0.9832  2.1906 -2.9462
  130MOL   H14126199   0.777   0.550   0.301  0.2859  0.3352  0.5990
  130MOL   C14226200   0.627   0.577   7.756 -0.2435  0.8007 -0.3859
  130MOL   C14326201   0.614   0.493   7.634  0.5971  0.9231  0.3076
  130MOL   O14426202   0.598   0.361   7.682  0.9861  0.1090 -0.2026
  130MOL   C14526203   0.683   0.258   7.636 -0.8450 -0.2365 -0.3231
  130MOL   H14626204   0.607   0.682   7.734 -0.5965  0.8835  0.3203
  130MOL   H14726205   0.544   0.549   0.010  0.6552  1.0193  0.8860
  130MOL   H14826206   0.698   0.495   7.564  0.9771 -5.5228  0.2441
  130MOL   H14926207   0.671   0.163   7.687  0.0576  0.6243  1.5370
  130MOL   H15026208   0.665   0.233   7.531 -2.1452  1.0142 -0.4216
  130MOL   H15126209   0.787   0.285   7.650 -0.9020  0.3825 -1.0412
  130MOL   C15226210   0.487   0.503   7.548 -0.8002 -0.2334 -0.0100
  130MOL   C15326211   0.504   0.449   7.409 -0.4640 -0.4628  0.0449
  130MOL   O15426212   0.370   0.454   7.362 -0.2512  0.2025  0.0976
  130MOL   C15526213   0.336   0.369   7.248  0.8178 -0.0282  0.6207
  130MOL   H15626214   0.448   0.604   7.539 -1.5562 -0.3948  1.3123
  130MOL   H15726215   0.396   0.463   7.592 -1.0541  0.0032 -0.3164
  130MOL   H15826216   0.538   0.345   7.416  0.5236 -0.0843  0.8586
  130MOL   H15926217   0.419   0.352   7.179  0.5347 -1.3630  0.6045
  130MOL   H16026218   0.293   0.274   7.278  2.7553 -1.0383  0.2490
  130MOL   H16126219   0.255   0.407   7.186  0.0040 -1.7978  0.5769
  130MOL   C16226220   0.602   0.527   7.321 -0.2223 -0.9470 -0.9314
  130MOL   C16326221   0.589   0.678   7.301 -0.0667 -0.3778  0.0263
  130MOL   O16426222   0.632   0.740   7.425 -0.3874  0.6131  0.4034
  130MOL   C16526223   0.562   0.863   7.452  0.4229 -1.1786  0.6394
  130MOL   H16626224   0.600   0.496   7.216  3.6850  0.5677 -1.5259
  130MOL   H16726225   0.705   0.505   7.348 -0.0631  0.0953 -0.6832
  130MOL   H16826226   0.481   0.694   7.295  0.1730  2.2779  2.0186
  130MOL   H16926227   0.587   0.938   7.377  0.2094 -0.0121  1.7346
  130MOL   H17026228   0.454   0.847   7.449  0.0515  1.2545 -0.4442
  130MOL   H17126229   0.581   0.894   7.555  2.8641  1.5557 -0.5675
  130MOL   C17226230   0.658   0.722   7.175  0.2002 -0.3548  0.7252
  130MOL   C17326231   0.562   0.758   7.055  0.3309  0.1053  0.6837
  130MOL   O17426232   0.651   0.805   6.943  0.6130  0.8246 -0.6871
  130MOL   C17526233   0.638   0.949   6.928 -0.6682  0.1128 -0.2344
  130MOL   H17626234   0.735   0.650   7.149  0.9094  1.2369 -1.7869
  130MOL   H17726235   0.699   0.821   7.198 -0.0666  0.0715 -0.5863
  130MOL   H17826236   0.491   0.827   7.100 -0.7782 -0.2316 -0.5386
  130MOL   H17926237   0.533   0.977   6.935 -0.7990 -0.4246 -0.0252
  130MOL   H18026238   0.696   0.989   7.011  3.1713 -3.0776 -1.1910
  130MOL   H18126239   0.676   0.975   6.829 -0.4553  0.7839  0.0179
  130MOL   C18226240   0.484   0.631   7.006  0.1180 -0.3679  0.2044
  130MOL   C18326241   0.368   0.647   6.902 -0.4334 -0.5949  0.0676
  130MOL   O18426242   0.290   0.526   6.906 -0.7110 -0.4933 -0.1158
  130MOL   C18526243   0.367   0.416   6.849  0.2040  0.7556 -0.3694
  130MOL   H18626244   0.437   0.585   7.093 -3.2802  1.6583 -0.4939
  130MOL   H18726245   0.560   0.564   6.965  0.1821 -0.2272  0.0946
  130MOL   H18826246   0.419   0.672   6.809 -0.4508 -0.6173  0.0523
  130MOL   H18926247   0.395   0.442   6.747  1.8485  2.9608  0.6175
  130MOL   H19026248   0.445   0.376   6.914  0.0077  0.3705 -0.3698
  130MOL   H19126249   0.307   0.327   6.829  1.0596 -0.2128  1.2583
  130MOL   C19226250   0.269   0.771   6.925  0.0985  0.5621  0.7063
  130MOL   C19326251   0.182   0.769   7.053 -0.1821  0.0792  0.4802
  130MOL   O19426252   0.241   0.855   7.141  0.4157  0.0333 -0.0350
  130MOL   C19526253   0.192   0.854   7.278  0.6426 -0.0588  0.3590
  130MOL   H19626254   0.190   0.766   6.850  0.4097  0.8164  0.3606
  130MOL   H19726255   0.317   0.867   6.905  1.9827  0.2039  3.3038
  130MOL   H19826256   0.169   0.674   7.104  0.7224  0.7122  1.9336
  130MOL   H19926257   0.244   0.936   7.327 -0.6069  1.2276 -0.4499
  130MOL   H20026258   0.084   0.867   7.286  0.2889 -2.0769 -0.6698
  130MOL   H20126259   0.229   0.756   7.310 -1.0159 -0.4699  1.0725
  130MOL   H20226260   0.082   0.802   7.025 -0.2518 -1.4771 -1.1757
  131MOL     C126261   3.612   1.232   5.368  0.6695 -0.2585 -0.4892
  131MOL     C226262   3.624   1.081   5.418 -0.6903 -0.1104 -0.1178
  131MOL     O326263   3.745   1.041   5.349 -0.1560 -0.0231 -0.2374
  131MOL     C426264   3.725   1.001   5.209 -0.0151  0.7544 -0.2837
  131MOL     H526265   3.512   1.268   5.391 -1.1504 -2.9414 -3.8368
  131MOL     H626266   3.678   1.300   5.422  0.0044  0.2871 -0.3593
  131MOL     H726267   3.532   1.035   5.385 -0.8905  0.0724  0.1828
  131MOL     H826268   3.812   0.949   5.169 -0.3468  0.9234 -1.2474
  131MOL     H926269   3.638   0.936   5.199 -0.2129  1.0132 -0.2725
  131MOL    H1026270   3.716   1.079   5.133 -0.6373  1.2466  0.2876
  131MOL    H1126271   3.625   1.235   5.260  1.5822  0.3945 -0.3670
  131MOL    C1226272   3.636   1.065   5.571 -0.1238 -0.1403  0.4475
  131MOL    C1326273   3.530   1.134   5.655 -0.3938 -0.1871 -0.0494
  131MOL    O1426274   3.440   1.033   5.702  0.5259  0.4478 -0.1880
  131MOL    C1526275   3.327   1.003   5.622  0.1970 -0.3183 -0.4996
  131MOL    H1626276   3.724   1.123   5.597  0.0139  0.1146 -0.5463
  131MOL    H1726277   3.649   0.959   5.592 -0.2745 -0.3734 -0.6168
  131MOL    H1826278   3.491   1.222   5.604 -0.2690 -0.8355 -1.2694
  131MOL    H1926279   3.252   1.082   5.613  0.0728 -0.2272  1.1360
  131MOL    H2026280   3.364   0.967   5.527  0.0457 -2.0177  0.0801
  131MOL    H2126281   3.280   0.914   5.663 -0.1893 -0.9920 -2.4054
  131MOL    C2226282   3.581   1.186   5.790 -0.2969  0.0979  0.4891
  131MOL    C2326283   3.491   1.273   5.874  0.7539  0.1418  0.3818
  131MOL    O2426284   3.564   1.330   5.980 -0.1794 -0.7393  0.0013
  131MOL    C2526285   3.602   1.247   6.089  0.8456  0.5789 -0.3803
  131MOL    H2626286   3.672   1.241   5.770  0.0805 -0.3296  1.0172
  131MOL    H2726287   3.609   1.103   5.855 -0.1574 -1.1156 -1.0880
  131MOL    H2826288   3.415   1.208   5.918  1.4348 -2.1889 -1.7811
  131MOL    H2926289   3.668   1.315   6.143 -1.3812  1.1907  1.6503
  131MOL    H3026290   3.522   1.215   6.156  1.7935  1.7843  1.3558
  131MOL    H3126291   3.671   1.168   6.060 -1.0652 -2.1188  2.1215
  131MOL    C3226292   3.423   1.392   5.808  0.6793  0.0025  0.4081
  131MOL    C3326293   3.287   1.418   5.875  0.2198  0.2163 -0.3800
  131MOL    O3426294   3.257   1.555   5.848 -0.1882  0.0096  0.5431
  131MOL    C3526295   3.267   1.634   5.967  1.5942  0.0314  1.0147
  131MOL    H3626296   3.409   1.385   5.700 -0.2593  0.7349  0.4751
  131MOL    H3726297   3.482   1.483   5.819 -0.5352  0.9130 -0.5188
  131MOL    H3826298   3.294   1.399   5.983  1.7895  2.0537 -0.1353
  131MOL    H3926299   3.357   1.610   6.024  4.1386  0.6802 -2.5004
  131MOL    H4026300   3.269   1.740   5.940 -0.3617 -0.0408  0.5006
  131MOL    H4126301   3.184   1.618   6.035  1.3705  0.3739  0.8254
  131MOL    C4226302   3.182   1.326   5.817  0.0382  0.2685 -0.6223
  131MOL    C4326303   3.028   1.330   5.862  0.2511 -0.6722  0.5966
  131MOL    O4426304   2.942   1.283   5.758 -0.2666  0.5631  0.0227
  131MOL    C4526305   2.917   1.392   5.668  0.0270  0.3346  0.2119
  131MOL    H4626306   3.217   1.223   5.808  0.3917  0.5634 -3.0844
  131MOL    H4726307   3.181   1.356   5.712 -1.0111  1.3559 -0.3128
  131MOL    H4826308   3.007   1.430   5.900  0.5856 -0.6904  0.8362
  131MOL    H4926309   2.864   1.474   5.717 -1.0236 -0.4239  0.3741
  131MOL    H5026310   3.004   1.444   5.628 -0.1824  1.5964  1.3445
  131MOL    H5126311   2.858   1.367   5.580 -0.1800  0.3204  0.3538
  131MOL    C5226312   3.032   1.207   5.964 -0.9021 -0.6375 -0.0540
  131MOL    C5326313   3.102   1.225   6.102  0.7002  1.1545  0.2240
  131MOL    O5426314   3.060   1.345   6.152 -0.2089  0.6110  0.0504
  131MOL    C5526315   3.124   1.400   6.269  0.0964  0.3202  0.6923
  131MOL    H5626316   3.068   1.117   5.914 -1.5671 -2.5369  2.7738
  131MOL    H5726317   2.929   1.175   5.980 -1.8598  1.5251 -1.6324
  131MOL    H5826318   3.211   1.231   6.098  0.6850  0.4919 -1.6698
  131MOL    H5926319   3.080   1.489   6.313 -0.6675  0.6478 -0.6866
  131MOL    H6026320   3.140   1.325   6.346 -2.1058 -0.9476 -0.0159
  131MOL    H6126321   3.226   1.428   6.243 -0.1169  1.8409  1.5094
  131MOL    C6226322   3.064   1.106   6.195 -0.1414 -0.9408 -0.2719
  131MOL    C6326323   3.088   0.965   6.141 -0.2474 -0.4648 -0.0433
  131MOL    O6426324   3.230   0.961   6.136 -0.0303 -0.2862 -0.0237
  131MOL    C6526325   3.282   0.896   6.018  0.2541  0.9298  0.0294
  131MOL    H6626326   2.959   1.123   6.217 -0.6105 -1.0403 -2.2787
  131MOL    H6726327   3.111   1.115   6.293  0.3918  0.6225 -0.6615
  131MOL    H6826328   3.051   0.938   6.042 -0.7090  1.2640 -0.3687
  131MOL    H6926329   3.253   0.792   6.030 -0.2976  1.0181 -0.5137
  131MOL    H7026330   3.239   0.952   5.934  2.5266  1.3390 -0.8834
  131MOL    H7126331   3.388   0.919   6.024  0.5054  0.5010 -2.1909
  131MOL    C7226332   3.040   0.867   6.243  0.1888 -0.5065  0.3079
  131MOL    C7326333   3.013   0.722   6.197  0.6720  0.6663 -0.2357
  131MOL    O7426334   2.989   0.640   6.309 -0.3853  0.3455 -0.2132
  131MOL    C7526335   3.113   0.594   6.367  0.5169  0.2042 -0.6076
  131MOL    H7626336   2.949   0.906   6.289  0.4788 -1.2194  1.5120
  131MOL    H7726337   3.107   0.857   6.328 -0.5278  1.5028  1.1264
  131MOL    H7826338   3.104   0.688   6.148 -0.6952 -1.2306 -1.5417
  131MOL    H7926339   3.095   0.560   6.468 -0.6773  1.1520 -0.4924
  131MOL    H8026340   3.140   0.507   6.308 -0.5551 -0.6227  0.1199
  131MOL    H8126341   3.198   0.662   6.359  1.5121 -1.2369 -2.8772
  131MOL    C8226342   2.878   0.712   6.115 -0.5569 -0.4861  0.0059
  131MOL    C8326343   2.856   0.586   6.044  0.4289  0.4191 -0.1343
  131MOL    O8426344   2.734   0.597   5.971  0.6929  0.0588  0.3929
  131MOL    C8526345   2.618   0.561   6.044  0.0246 -0.2286  0.1225
  131MOL    H8626346   2.897   0.779   6.032  2.2844  1.1617  1.8793
  131MOL    H8726347   2.795   0.743   6.179  1.2016  0.2295  2.0046
  131MOL    H8826348   2.858   0.501   6.114  0.5944  1.1426  0.7519
  131MOL    H8926349   2.573   0.473   6.000 -0.6139 -0.0936  0.4972
  131MOL    H9026350   2.631   0.528   6.147 -2.1940  2.1342  1.2145
  131MOL    H9126351   2.552   0.648   6.041  0.0211 -0.2297  0.1742
  131MOL    C9226352   2.962   0.553   5.937  0.3344  0.2153  0.4231
  131MOL    C9326353   2.931   0.433   5.850  0.4166 -0.1923  0.4635
  131MOL    O9426354   3.032   0.401   5.748 -0.0900  0.0321  0.1650
  131MOL    C9526355   3.020   0.495   5.647 -0.3174 -0.0221  0.1795
  131MOL    H9626356   3.056   0.530   5.988  0.5394  2.3658  1.0554
  131MOL    H9726357   2.976   0.636   5.869  2.9026 -0.0123  0.6365
  131MOL    H9826358   2.840   0.462   5.798 -0.8372  0.0003  2.6916
  131MOL    H9926359   2.918   0.509   5.611 -0.1252  0.7709 -0.0784
  131MOL   H10026360   3.057   0.593   5.676 -1.1137  0.0932  0.8235
  131MOL   H10126361   3.092   0.478   5.567  0.3720  2.3838  0.2388
  131MOL   C10226362   2.904   0.306   5.934  0.8360  0.1586 -0.1234
  131MOL   C10326363   2.893   0.171   5.863  0.4831 -0.2911  0.4597
  131MOL   O10426364   2.864   0.073   5.958 -0.1314  0.3683  0.6875
  131MOL   C10526365   2.981   0.017   6.020  0.6480  0.1002 -0.1285
  131MOL   H10626366   2.812   0.321   5.991  0.4492 -0.0047 -0.7060
  131MOL   H10726367   2.977   0.310   6.015 -0.4897  0.2489  1.1014
  131MOL   H10826368   2.977   0.154   5.796  1.4125  0.6761  1.3506
  131MOL   H10926369   3.049   0.083   6.073 -1.7652  1.1165  1.7920
  131MOL   H11026370   2.954   7.754   6.096  2.5697 -0.9379 -0.4113
  131MOL   H11126371   3.037   7.784   5.936 -0.5349  1.0060 -1.4150
  131MOL   C11226372   2.781   0.178   5.760  0.2815  0.4216 -0.1291
  131MOL   C11326373   2.790   0.086   5.633  0.8549 -0.5893 -0.7594
  131MOL   O11426374   2.669   0.102   5.560 -0.2386 -0.0896  0.2324
  131MOL   C11526375   2.583   7.800   5.581 -0.5340  0.9884 -0.0024
  131MOL   H11626376   2.761   0.277   5.720  1.4454 -0.7686 -3.8064
  131MOL   H11726377   2.687   0.164   5.815 -0.2385 -0.9705 -1.3342
  131MOL   H11826378   2.809   7.794   5.666  2.8659 -0.2398 -0.8031
  131MOL   H11926379   2.572   7.790   5.689  1.5426 -0.3839  0.1203
  131MOL   H12026380   2.491   0.009   5.526 -1.5676  1.4421  1.8518
  131MOL   H12126381   2.623   7.708   5.538 -0.5266 -0.0639  2.2201
  131MOL   C12226382   2.900   0.144   5.544  0.1876 -0.0578 -0.3616
  131MOL   C12326383   2.889   0.070   5.404 -0.2008 -0.5459 -0.4961
  131MOL   O12426384   2.958   0.125   5.299 -0.1909  0.0035  0.3645
  131MOL   C12526385   2.901   0.244   5.242 -0.0231  0.8888  0.0827
  131MOL   H12626386   2.992   0.116   5.595 -0.7160 -0.3610  1.1401
  131MOL   H12726387   2.898   0.251   5.525 -0.0346  0.4707  2.3737
  131MOL   H12826388   2.789   0.068   5.362 -0.4483 -1.6049  0.1098
  131MOL   H12926389   2.978   0.285   5.176  1.6102 -0.6736  0.9777
  131MOL   H13026390   2.808   0.213   5.193  1.2275 -0.7843 -1.2897
  131MOL   H13126391   2.866   0.315   5.316 -3.3388 -2.2801  1.7082
  131MOL   C13226392   2.924   7.725   5.415  0.3776  0.2453  0.3096
  131MOL   C13326393   2.903   7.648   5.280  0.6829 -0.4137  0.1256
  131MOL   O13426394   2.959   7.516   5.286  0.1161  0.2586  0.1000
  131MOL   C13526395   3.093   7.503   5.232  0.3087 -0.0180 -1.0626
  131MOL   H13626396   2.855   7.679   5.485 -0.7741  1.6989  0.1363
  131MOL   H13726397   3.026   7.706   5.451  1.2162  1.9030 -1.1065
  131MOL   H13826398   2.965   7.699   5.206  0.3127 -1.0052 -0.5933
  131MOL   H13926399   3.086   7.499   5.123 -0.0616  0.0917 -1.0422
  131MOL   H14026400   3.150   7.589   5.267  0.5038 -0.2848 -0.7234
  131MOL   H14126401   3.145   7.409   5.251 -0.7108  0.1386  2.7424
  131MOL   C14226402   2.756   7.635   5.228 -0.6983 -0.1159 -0.2603
  131MOL   C14326403   2.706   7.726   5.118 -0.2992  0.2083  0.7210
  131MOL   O14426404   2.806   7.740   5.022  0.2541 -0.1496 -0.1056
  131MOL   C14526405   2.796   0.047   4.939  0.2529 -0.1244  0.4645
  131MOL   H14626406   2.682   7.610   5.304 -1.8149  1.3970 -0.8214
  131MOL   H14726407   2.771   7.538   5.180  0.8347 -0.0999  0.1451
  131MOL   H14826408   2.700   0.015   5.162  0.2331  0.2702  0.6522
  131MOL   H14926409   2.724   0.123   4.968 -0.7471 -0.9290  0.1549
  131MOL   H15026410   2.894   0.093   4.927  0.0601 -0.2739 -1.9156
  131MOL   H15126411   2.767   0.018   4.838 -0.7777  2.9615 -0.1821
  131MOL   C15226412   2.576   7.685   5.053 -0.1109 -0.5360  0.5582
  131MOL   C15326413   2.574   7.544   4.994  0.4396  0.2973 -0.0484
  131MOL   O15426414   2.444   7.518   4.950  0.1201  0.0447  0.0920
  131MOL   C15526415   2.360   7.464   5.043 -0.5730  0.3693 -0.2636
  131MOL   H15626416   2.556   7.752   4.969  1.7122 -0.5701  0.0828
  131MOL   H15726417   2.502   7.689   5.133 -1.2842 -1.4142 -0.4539
  131MOL   H15826418   2.604   7.465   5.062 -1.0478  1.6076  2.1850
  131MOL   H15926419   2.329   7.545   5.109 -0.5769 -1.1690  1.6595
  131MOL   H16026420   2.275   7.415   4.996  1.2321 -1.5033 -1.6643
  131MOL   H16126421   2.406   7.379   5.094  0.1211  1.0133  0.2110
  131MOL   C16226422   2.648   7.535   4.853  0.4233 -0.4985 -0.0180
  131MOL   C16326423   2.662   7.388   4.801 -0.3199 -0.2171 -0.6235
  131MOL   O16426424   2.676   7.391   4.668 -0.0621 -0.0492  0.2735
  131MOL   C16526425   2.556   7.377   4.602  0.2284  0.1045  0.0814
  131MOL   H16626426   2.751   7.571   4.851 -1.0624  4.4056  1.8187
  131MOL   H16726427   2.595   7.601   4.784 -0.4320 -0.7579  0.3795
  131MOL   H16826428   2.573   7.332   4.829  0.6974 -1.5781 -0.0024
  131MOL   H16926429   2.486   7.454   4.634 -0.8088 -1.3845  1.4542
  131MOL   H17026430   2.557   7.382   4.493  0.4088  2.8906  0.1665
  131MOL   H17126431   2.517   7.277   4.622  1.7653 -0.4091  0.5742
  131MOL   C17226432   2.786   7.314   4.859 -0.4385 -0.1215 -0.5277
  131MOL   C17326433   2.809   7.172   4.797 -0.2054 -0.1859  0.1762
  131MOL   O17426434   2.929   7.117   4.847 -0.8790  0.1709 -0.6309
  131MOL   C17526435   3.056   7.190   4.838  0.6437 -0.2871  0.1902
  131MOL   H17626436   2.777   7.316   4.968 -1.6890 -0.2168 -0.6260
  131MOL   H17726437   2.872   7.378   4.838 -0.5288 -0.2653 -1.3470
  131MOL   H17826438   2.812   7.183   4.688 -0.1414  0.7314  0.2659
  131MOL   H17926439   3.138   7.122   4.859  0.0658 -1.2186 -0.5592
  131MOL   H18026440   3.075   7.229   4.738  0.7945 -1.4694 -0.2468
  131MOL   H18126441   3.071   7.265   4.916  2.7437  0.3700 -0.8072
  131MOL   C18226442   2.703   7.066   4.821  0.6789  0.1611  0.0838
  131MOL   C18326443   2.727   6.923   4.763 -0.3522  0.1559 -0.2231
  131MOL   O18426444   2.627   6.832   4.813 -0.2901 -0.1270 -0.0473
  131MOL   C18526445   2.677   6.749   4.911 -0.4960 -0.5582 -0.0716
  131MOL   H18626446   2.611   7.114   4.786  1.1150  0.9303 -0.0217
  131MOL   H18726447   2.688   7.063   4.929  1.9506  0.4084  0.2780
  131MOL   H18826448   2.827   6.892   4.793 -0.0081  0.7454 -0.7609
  131MOL   H18926449   2.740   6.671   4.870 -0.7461 -0.7391 -0.1176
  131MOL   H19026450   2.721   6.805   4.994 -1.1168  0.2313 -0.2636
  131MOL   H19126451   2.584   6.699   4.939 -1.5226  1.5592  0.4547
  131MOL   C19226452   2.715   6.930   4.607  1.3136  0.1290  0.3948
  131MOL   C19326453   2.742   6.791   4.538  0.4109 -0.2232 -0.3301
  131MOL   O19426454   2.756   6.800   4.397  0.0323 -0.0293  0.1418
  131MOL   C19526455   2.892   6.808   4.357  0.3941  0.0890 -0.0353
  131MOL   H19626456   2.789   6.999   4.566  0.2340  0.0884 -1.6762
  131MOL   H19726457   2.614   6.960   4.582  1.8321  1.2159 -0.4243
  131MOL   H19826458   2.665   6.725   4.577  0.5969  1.9774  4.0579
  131MOL   H19926459   2.907   6.808   4.249  2.0272 -3.5444  0.1334
  131MOL   H20026460   2.937   6.899   4.397  1.6524  0.3851 -2.0588
  131MOL   H20126461   2.950   6.723   4.392  0.2017  0.6799  1.7721
  131MOL   H20226462   2.828   6.741   4.580  0.8822  1.1398  0.3610
  132MOL     C126463   0.475   5.646   7.363  0.2894  0.0711 -0.2196
  132MOL     C226464   0.598   5.550   7.331  0.3035  0.4804  0.0350
  132MOL     O326465   0.590   5.437   7.415 -0.2007  0.2934 -0.6296
  132MOL     C426466   0.659   5.459   7.539  0.4195  0.2533 -0.4327
  132MOL     H526467   0.469   5.674   7.468 -0.8494  0.0967 -0.2803
  132MOL     H626468   0.482   5.730   7.294 -2.4379 -0.0817 -0.7606
  132MOL     H726469   0.685   5.610   7.357 -0.8563  1.1677  2.4616
  132MOL     H826470   0.677   5.364   7.589  3.3252 -1.1504 -3.9554
  132MOL     H926471   0.759   5.502   7.536  0.6503 -0.2174  0.5098
  132MOL    H1026472   0.594   5.516   7.605 -0.7315  0.2469 -1.5329
  132MOL    H1126473   0.381   5.593   7.344  1.4581 -1.2012 -2.8066
  132MOL    C1226474   0.610   5.500   7.185  0.1450  0.7769 -0.4642
  132MOL    C1326475   0.721   5.390   7.169 -1.0719  0.5534 -0.8189
  132MOL    O1426476   0.727   5.346   7.033 -0.0866 -0.8537 -0.0131
  132MOL    C1526477   0.619   5.266   6.990  0.0367 -0.9880  0.3377
  132MOL    H1626478   0.631   5.587   7.122  2.7564  0.6220  0.1306
  132MOL    H1726479   0.512   5.465   7.152  0.9298 -0.8916 -1.0529
  132MOL    H1826480   0.690   5.299   7.220 -1.9096  1.0875 -0.3601
  132MOL    H1926481   0.527   5.323   6.982  0.6267 -0.4198 -3.1112
  132MOL    H2026482   0.638   5.234   6.888 -0.5145 -1.8976  0.5140
  132MOL    H2126483   0.600   5.187   7.063  2.7662  0.1738  2.4067
  132MOL    C2226484   0.860   5.433   7.218  0.7971  0.9134 -0.3501
  132MOL    C2326485   0.957   5.313   7.227 -0.9683 -0.3011 -0.2683
  132MOL    O2426486   1.086   5.364   7.251 -0.4158 -0.4002 -0.8135
  132MOL    C2526487   1.158   5.408   7.137  0.4855 -0.5820 -0.5362
  132MOL    H2626488   0.858   5.483   7.315  2.7004 -1.1951  0.8291
  132MOL    H2726489   0.903   5.503   7.147 -1.5325  2.8681  0.0952
  132MOL    H2826490   0.965   5.257   7.134  1.3113  1.3725 -1.1376
  132MOL    H2926491   1.117   5.483   7.070  1.4440  0.3537 -0.0856
  132MOL    H3026492   1.260   5.444   7.150  0.8944 -0.9460 -2.5983
  132MOL    H3126493   1.170   5.323   7.070 -1.6309 -1.5017  0.1938
  132MOL    C3226494   0.946   5.221   7.352 -0.4893  0.5187 -0.0889
  132MOL    C3326495   1.058   5.115   7.369  0.2245 -0.3368  0.4331
  132MOL    O3426496   1.025   5.075   7.499 -0.1906 -0.1499 -0.1553
  132MOL    C3526497   1.097   5.144   7.598 -0.1797  0.3880  0.0060
  132MOL    H3626498   0.848   5.175   7.362 -0.0871 -0.3789 -0.2387
  132MOL    H3726499   0.951   5.296   7.431 -1.1302  0.2289  0.2290
  132MOL    H3826500   1.153   5.169   7.363 -0.4031  0.8773  1.2163
  132MOL    H3926501   1.081   5.251   7.584  0.9001  0.1668 -3.3008
  132MOL    H4026502   1.057   5.116   7.696  1.7453 -1.5407  0.2798
  132MOL    H4126503   1.204   5.124   7.604 -0.3855 -1.5878 -2.2865
  132MOL    C4226504   1.037   4.994   7.273  0.5578  0.0438  0.0334
  132MOL    C4326505   1.141   4.885   7.277 -0.4600 -0.7574 -0.4812
  132MOL    O4426506   1.108   4.794   7.174 -0.1289  0.6379  0.3650
  132MOL    C4526507   1.042   4.676   7.213 -1.1065 -0.1491 -0.0391
  132MOL    H4626508   1.036   5.037   7.173 -0.5002 -2.1369 -0.9027
  132MOL    H4726509   0.940   4.952   7.298  0.3354  0.3864 -0.2556
  132MOL    H4826510   1.151   4.833   7.372 -1.1169 -0.2750 -0.1479
  132MOL    H4926511   1.025   4.615   7.124 -2.2512 -0.5351  0.4394
  132MOL    H5026512   1.091   4.619   7.291 -0.9171  1.3382  0.9438
  132MOL    H5126513   0.946   4.694   7.260 -0.1910 -0.1999  1.8796
  132MOL    C5226514   1.279   4.937   7.234  0.1226 -0.7299 -0.3387
  132MOL    C5326515   1.398   4.864   7.292 -0.1774  0.1312  0.2841
  132MOL    O5426516   1.510   4.939   7.232  0.0991 -0.3869  0.1504
  132MOL    C5526517   1.567   4.865   7.119  0.1480  0.3723  0.9654
  132MOL    H5626518   1.293   5.037   7.274 -1.6505 -1.5320  2.4705
  132MOL    H5726519   1.280   4.940   7.125  0.1729 -1.2361 -0.3554
  132MOL    H5826520   1.398   4.762   7.255 -2.5958 -0.3995  1.5965
  132MOL    H5926521   1.642   4.924   7.066 -1.4563  0.8356 -0.8397
  132MOL    H6026522   1.612   4.775   7.161  1.4252 -0.1166 -1.3401
  132MOL    H6126523   1.484   4.831   7.056 -0.2043  0.1736  1.5345
  132MOL    C6226524   1.421   4.869   7.443  0.0376  0.4089  0.0561
  132MOL    C6326525   1.554   4.806   7.489  0.0477  0.5733  0.5200
  132MOL    O6426526   1.612   4.890   7.591 -0.3117 -0.1088  0.2199
  132MOL    C6526527   1.676   5.011   7.552  0.0119 -0.7425  0.0568
  132MOL    H6626528   1.336   4.828   7.496  0.0592  0.2009 -0.0690
  132MOL    H6726529   1.418   4.975   7.468 -0.1567  0.2310  0.7909
  132MOL    H6826530   1.622   4.799   7.404  0.3614 -1.5652  0.9096
  132MOL    H6926531   1.742   5.006   7.465  0.0082  0.7453 -0.0458
  132MOL    H7026532   1.605   5.094   7.546  0.4067 -0.4506 -0.5937
  132MOL    H7126533   1.744   5.041   7.631  0.9634 -1.0378 -0.6426
  132MOL    C7226534   1.537   4.674   7.566  0.0257  0.0784 -0.1802
  132MOL    C7326535   1.524   4.541   7.491 -0.7575 -0.2829  0.2929
  132MOL    O7426536   1.414   4.531   7.403  0.4274  0.0470 -0.3643
  132MOL    C7526537   1.299   4.506   7.469 -0.0892  0.4745 -0.7296
  132MOL    H7626538   1.454   4.674   7.637 -0.2372 -2.9382 -0.4290
  132MOL    H7726539   1.625   4.671   7.631  1.3810  3.4745 -1.7330
  132MOL    H7826540   1.520   4.461   7.566 -0.8508 -1.1058 -0.5808
  132MOL    H7926541   1.304   4.449   7.562  4.2839  2.8264  0.5827
  132MOL    H8026542   1.260   4.600   7.507 -0.0536 -0.1373  0.9002
  132MOL    H8126543   1.219   4.461   7.410 -1.0636  1.3545 -0.1112
  132MOL    C8226544   1.645   4.516   7.398  0.5347 -1.4495  0.5471
  132MOL    C8326545   1.785   4.516   7.479 -0.0225 -0.6846 -0.2899
  132MOL    O8426546   1.755   4.433   7.593  0.1219 -0.1408 -0.1047
  132MOL    C8526547   1.850   4.440   7.698 -0.2948  0.1214  0.2009
  132MOL    H8626548   1.639   4.594   7.323  0.0358 -1.0030  1.0524
  132MOL    H8726549   1.637   4.419   7.349  0.4074 -0.7775 -0.7788
  132MOL    H8826550   1.808   4.615   7.520 -1.0858 -0.9967  1.1134
  132MOL    H8926551   1.929   4.369   7.677 -0.0037 -0.4098  2.9592
  132MOL    H9026552   1.883   4.541   7.722 -1.5393  0.5758  0.0399
  132MOL    H9126553   1.794   4.402   7.783 -1.0591 -0.6072 -0.6170
  132MOL    C9226554   1.908   4.469   7.398  1.1533 -0.3810 -0.4377
  132MOL    C9326555   1.941   4.532   7.262 -0.2676 -0.3358 -0.3083
  132MOL    O9426556   1.987   4.662   7.291 -0.2883 -0.4751  0.4028
  132MOL    C9526557   1.911   4.772   7.248  0.3271 -0.1707 -0.2237
  132MOL    H9626558   1.887   4.362   7.389 -1.1339 -0.0481  0.7263
  132MOL    H9726559   2.000   4.470   7.456  0.1417 -1.0136  1.1914
  132MOL    H9826560   1.857   4.530   7.192 -0.6626  1.7009  0.0793
  132MOL    H9926561   1.944   4.867   7.291  1.3892 -0.8610  0.5441
  132MOL   H10026562   1.905   4.782   7.140  0.7589 -1.0946 -0.3366
  132MOL   H10126563   1.809   4.766   7.284 -0.0845 -1.8925 -1.6450
  132MOL   C10226564   2.064   4.474   7.188  0.2136  0.3454  0.0903
  132MOL   C10326565   2.035   4.330   7.135  0.9436  0.2826  0.2629
  132MOL   O10426566   2.062   4.326   6.993  0.1567  0.4459 -0.4838
  132MOL   C10526567   1.951   4.374   6.918  0.6930  0.0778  0.3989
  132MOL   H10626568   2.157   4.487   7.243 -0.4388  1.0746  1.0485
  132MOL   H10726569   2.075   4.545   7.106  0.2977 -1.2836 -1.3390
  132MOL   H10826570   1.931   4.306   7.155  0.8102  0.5663 -0.0914
  132MOL   H10926571   1.902   4.463   6.956  0.9684 -0.0304  1.0115
  132MOL   H11026572   1.993   4.403   6.821 -1.5976  0.4878 -0.5126
  132MOL   H11126573   1.884   4.293   6.889  1.5334 -0.1565 -0.9468
  132MOL   C11226574   2.118   4.233   7.207  0.6940 -0.0863  0.3405
  132MOL   C11326575   2.109   4.080   7.169 -0.5403 -1.1678  0.1654
  132MOL   O11426576   2.180   3.985   7.244 -0.3807 -1.5745 -0.0789
  132MOL   C11526577   2.320   3.993   7.222 -0.6985 -0.0079  0.4073
  132MOL   H11626578   2.096   4.241   7.314 -0.1338  0.4608  0.1313
  132MOL   H11726579   2.222   4.262   7.193  0.6322 -1.1003 -2.6530
  132MOL   H11826580   2.143   4.071   7.066 -0.1854  1.0918  0.0750
  132MOL   H11926581   2.357   4.094   7.237  1.3419 -0.6365 -0.2946
  132MOL   H12026582   2.377   3.925   7.286 -0.6910 -0.2192  0.1766
  132MOL   H12126583   2.327   3.959   7.119 -1.2968 -0.3445  0.4716
  132MOL   C12226584   1.965   4.023   7.166 -0.4133 -0.0396  0.2721
  132MOL   C12326585   1.938   3.876   7.152  0.3818 -0.0709 -0.4292
  132MOL   O12426586   1.794   3.865   7.154  0.2618  0.0997 -0.0015
  132MOL   C12526587   1.744   3.875   7.289 -0.2550  0.4869  1.2856
  132MOL   H12626588   1.925   4.081   7.083  0.3690 -2.0924 -1.5867
  132MOL   H12726589   1.927   4.054   7.264  0.7606 -1.6371  1.2503
  132MOL   H12826590   1.986   3.815   7.229 -0.5191 -0.1541  0.0702
  132MOL   H12926591   1.760   3.977   7.324  1.6333  0.3808  0.7876
  132MOL   H13026592   1.638   3.846   7.292 -0.8893  2.7172  0.9514
  132MOL   H13126593   1.775   3.793   7.354  1.8160  0.0479 -0.2228
  132MOL   C13226594   1.991   3.821   7.023  0.0917 -0.6645  0.5348
  132MOL   C13326595   1.978   3.664   7.009  0.0953 -0.4094 -0.5928
  132MOL   O13426596   2.062   3.607   7.111 -0.2525 -0.4344  0.2647
  132MOL   C13526597   2.105   3.471   7.076  0.2356 -0.3559  0.7425
  132MOL   H13626598   2.095   3.845   7.003 -0.3401  1.2792  0.4702
  132MOL   H13726599   1.931   3.865   6.943  0.1763 -0.4400  0.5962
  132MOL   H13826600   2.013   3.641   6.908  0.1608  0.0287 -0.6703
  132MOL   H13926601   2.123   3.458   6.969 -1.3088  0.2327  0.3936
  132MOL   H14026602   2.188   3.446   7.142 -1.2281 -1.1698  2.3163
  132MOL   H14126603   2.025   3.406   7.111 -2.0953  1.5423 -0.8685
  132MOL   C14226604   1.836   3.603   7.025 -0.3714  0.4729 -0.4350
  132MOL   C14326605   1.725   3.645   6.924 -0.8712  0.2687  0.8289
  132MOL   O14426606   1.798   3.633   6.802 -0.0673  0.0014  0.6307
  132MOL   C14526607   1.755   3.718   6.697  0.1202 -0.2108 -1.0964
  132MOL   H14626608   1.800   3.610   7.128 -0.6709 -1.5504 -0.3936
  132MOL   H14726609   1.852   3.497   7.009 -0.0760  0.7110 -1.7826
  132MOL   H14826610   1.685   3.745   6.942  0.4417  0.8590  0.5079
  132MOL   H14926611   1.818   3.699   6.610 -0.0465 -0.1765 -1.2266
  132MOL   H15026612   1.650   3.703   6.670  0.1680 -0.9083 -0.8987
  132MOL   H15126613   1.771   3.824   6.716  1.7005 -0.6996  0.3631
  132MOL   C15226614   1.602   3.555   6.923 -0.0921 -0.6711  0.1316
  132MOL   C15326615   1.493   3.607   7.021 -0.5328  0.0868  0.0912
  132MOL   O15426616   1.424   3.702   6.946 -0.5013 -0.0501  0.0501
  132MOL   C15526617   1.327   3.778   7.025 -0.3359  0.3284  0.3495
  132MOL   H15626618   1.642   3.456   6.945  1.7604  0.5510  2.4822
  132MOL   H15726619   1.557   3.558   6.824  0.8789  0.3386 -0.2843
  132MOL   H15826620   1.538   3.659   7.106  4.1129 -0.6663 -1.7261
  132MOL   H15926621   1.227   3.740   7.049 -1.0153  1.1487 -1.0732
  132MOL   H16026622   1.372   3.816   7.117  0.7463 -1.5754  0.6367
  132MOL   H16126623   1.303   3.866   6.965 -1.0386 -0.6428 -0.8126
  132MOL   C16226624   1.398   3.495   7.068  0.6293  0.1202  0.4949
  132MOL   C16326625   1.439   3.416   7.191 -0.8404 -0.1251  0.0516
  132MOL   O16426626   1.563   3.343   7.174  0.5692 -0.0259 -0.4026
  132MOL   C16526627   1.558   3.225   7.091 -0.4156  0.3735 -0.1452
  132MOL   H16626628   1.373   3.431   6.984  0.5703  1.4378 -0.5137
  132MOL   H16726629   1.300   3.536   7.091  0.7987 -0.3544  2.1626
  132MOL   H16826630   1.367   3.335   7.196 -1.8353  0.6734 -1.1522
  132MOL   H16926631   1.474   3.161   7.120 -1.2991  1.1075 -1.0337
  132MOL   H17026632   1.553   3.249   6.985  1.2878 -2.3263 -0.8815
  132MOL   H17126633   1.652   3.171   7.105  0.2943  2.0856  2.0224
  132MOL   C17226634   1.431   3.501   7.323  0.1460  0.6045  0.6901
  132MOL   C17326635   1.470   3.425   7.452 -0.6810 -0.3952 -0.0554
  132MOL   O17426636   1.481   3.513   7.563 -0.2981  0.0375 -0.5107
  132MOL   C17526637   1.608   3.582   7.563  0.9557  0.2386 -0.2910
  132MOL   H17626638   1.333   3.547   7.332 -0.4156 -0.2344 -0.9526
  132MOL   H17726639   1.506   3.579   7.309  2.5064 -1.8337 -0.7581
  132MOL   H17826640   1.567   3.378   7.433 -0.9682 -2.6951  3.7284
  132MOL   H17926641   1.620   3.613   7.667 -0.5995 -0.6533  0.1584
  132MOL   H18026642   1.696   3.526   7.530  0.0783 -0.8075 -0.8957
  132MOL   H18126643   1.610   3.666   7.494 -0.7446  0.0178 -0.6107
  132MOL   C18226644   1.370   3.310   7.481  0.4342 -0.1503 -0.1124
  132MOL   C18326645   1.425   3.200   7.579 -0.5052 -0.0580  0.8423
  132MOL   O18426646   1.322   3.131   7.656 -0.5568  0.5084  0.0415
  132MOL   C18526647   1.268   3.199   7.760 -0.3588 -0.7308 -0.1429
  132MOL   H18626648   1.333   3.270   7.386 -3.0426  0.3572  0.9699
  132MOL   H18726649   1.282   3.353   7.528 -0.1237 -1.9826  0.5663
  132MOL   H18826650   1.511   3.234   7.637 -0.9419 -0.2825  1.6355
  132MOL   H18926651   1.336   3.221   0.032 -3.0140 -0.6710  2.0964
  132MOL   H19026652   1.217   3.292   7.738 -0.2022 -0.4223  0.7952
  132MOL   H19126653   1.185   3.134   7.789 -0.9402  1.2419  2.8186
  132MOL   C19226654   1.478   3.100   7.484 -0.2131  0.1185  0.2812
  132MOL   C19326655   1.569   2.999   7.553 -1.0558 -0.6693  0.3104
  132MOL   O19426656   1.627   2.902   7.461  0.3409 -0.1162 -0.4874
  132MOL   C19526657   1.738   2.840   7.522 -0.0053  0.1256 -0.0920
  132MOL   H19626658   1.535   3.134   7.397 -0.1583 -1.4809 -0.3352
  132MOL   H19726659   1.391   3.056   7.435 -0.5950  0.1930  0.8967
  132MOL   H19826660   1.526   2.956   7.643  2.0554 -1.4343  1.5277
  132MOL   H19926661   1.773   2.766   7.450  0.5267 -0.7854  1.0830
  132MOL   H20026662   1.817   2.912   7.543 -0.0975  0.5979 -1.3047
  132MOL   H20126663   1.709   2.788   7.613  1.6935 -0.0995  0.3462
  132MOL   H20226664   1.651   3.055   7.598 -0.7476 -0.8047 -0.0744
  133MOL     C126665   6.868   3.269   4.891  0.8981  0.6264  0.5235
  133MOL     C226666   6.812   3.207   5.022  0.2357 -0.2759 -0.2891
  133MOL     O326667   6.884   3.084   5.050 -0.2673 -0.6743 -0.0100
  133MOL     C426668   6.815   3.010   5.146 -0.2833 -0.0161 -0.4022
  133MOL     H526669   6.831   3.216   4.804  1.3917 -0.2998  0.8703
  133MOL     H626670   6.833   3.371   4.879  0.3973  0.4175  0.2297
  133MOL     H726671   6.709   3.180   4.997  1.3074 -2.5798 -2.3940
  133MOL     H826672   6.886   2.934   5.179  0.4163  0.8428  0.0906
  133MOL     H926673   6.782   3.068   5.232 -0.0640 -0.1211 -0.2461
  133MOL    H1026674   6.733   2.959   5.096  0.5310 -2.0578  0.2958
  133MOL    H1126675   6.977   3.273   4.884  0.8540  1.1465  0.1010
  133MOL    C1226676   6.817   3.310   5.132 -0.1116  0.3846  0.4617
  133MOL    C1326677   6.945   3.328   5.216 -0.1732  0.9314  0.0033
  133MOL    O1426678   7.038   3.390   5.120 -0.0748 -0.0828 -0.5564
  133MOL    C1526679   7.170   3.336   5.134 -0.1229 -0.1692 -0.4793
  133MOL    H1626680   6.741   3.287   5.207  0.6022 -0.9666  0.7830
  133MOL    H1726681   6.784   3.409   5.099 -2.2503  0.2954  2.2259
  133MOL    H1826682   6.978   3.230   5.249 -1.7010 -0.4367 -2.3725
  133MOL    H1926683   7.177   3.239   5.086 -0.2534 -0.3161 -0.2039
  133MOL    H2026684   7.241   3.403   5.086  1.8350 -0.7279  1.5649
  133MOL    H2126685   7.199   3.335   5.239 -2.2799  2.3245  0.2097
  133MOL    C2226686   6.916   3.419   5.342 -0.6609 -0.4019 -0.3572
  133MOL    C2326687   6.863   3.348   5.462  0.0292  0.4672 -0.6685
  133MOL    O2426688   6.966   3.250   5.486 -0.9559  0.1357  0.0931
  133MOL    C2526689   6.925   3.136   5.567  0.0470  0.4331 -0.6478
  133MOL    H2626690   6.850   3.500   5.311  0.0283 -0.4713 -2.0811
  133MOL    H2726691   7.011   3.466   5.369 -0.8420 -1.6315  2.5674
  133MOL    H2826692   6.768   3.305   5.433  1.4247 -2.3085 -1.2110
  133MOL    H2926693   6.997   3.057   5.545 -0.0294 -0.2051  1.2648
  133MOL    H3026694   6.920   3.154   5.674 -1.8814  0.7883 -0.7802
  133MOL    H3126695   6.826   3.109   5.528 -0.1449  0.4983 -0.2114
  133MOL    C3226696   6.849   3.435   5.590 -0.2340  0.0609  0.1246
  133MOL    C3326697   6.762   3.563   5.582 -0.3632 -0.1067 -0.2081
  133MOL    O3426698   6.660   3.542   5.671  0.0500 -1.0579  0.0124
  133MOL    C3526699   6.531   3.587   5.625  0.3508 -0.5179  0.3127
  133MOL    H3626700   6.949   3.457   5.628 -1.0009 -0.1588  2.3533
  133MOL    H3726701   6.799   3.373   5.665 -0.2521  0.1664  0.1995
  133MOL    H3826702   6.726   3.560   5.479 -0.1393  2.6711 -0.3951
  133MOL    H3926703   6.540   3.688   5.584 -0.7411 -0.2026  0.8321
  133MOL    H4026704   6.499   3.517   5.548  1.0534  0.3082 -0.7339
  133MOL    H4126705   6.452   3.597   5.699 -0.0679  0.0011 -0.1990
  133MOL    C4226706   6.837   3.695   5.618  0.0727 -0.3466  0.4491
  133MOL    C4326707   6.937   3.740   5.513  0.1876  0.5576  0.3416
  133MOL    O4426708   6.876   3.761   5.390 -0.3601 -0.3003  0.0543
  133MOL    C4526709   6.955   3.748   5.275  0.4604  0.2796  0.0645
  133MOL    H4626710   6.898   3.674   5.706  0.9304  0.3136  0.0170
  133MOL    H4726711   6.761   3.773   5.622 -0.3953 -0.7327 -0.6609
  133MOL    H4826712   7.003   3.653   5.507 -1.8777 -1.0879  0.7628
  133MOL    H4926713   7.026   3.666   5.273 -0.7931 -0.7843 -2.7051
  133MOL    H5026714   6.892   3.713   5.194 -1.1544 -2.3124  2.3442
  133MOL    H5126715   7.016   3.833   5.245  1.5108  0.0076  1.3419
  133MOL    C5226716   7.019   3.867   5.546  0.3097 -0.0445  0.5091
  133MOL    C5326717   7.099   3.882   5.678  0.1303 -0.0956  0.7207
  133MOL    O5426718   7.178   3.762   5.689  0.9000 -1.1266  0.0916
  133MOL    C5526719   7.204   3.729   5.822  0.0622 -0.3646 -0.0576
  133MOL    H5626720   6.951   3.951   5.529  0.4536 -0.0463 -0.0859
  133MOL    H5726721   7.097   3.863   5.470  0.1445 -0.9376  0.3756
  133MOL    H5826722   7.035   3.895   5.765  0.4958  1.1018  0.8179
  133MOL    H5926723   7.271   3.644   5.807  0.7963 -0.3393  2.8161
  133MOL    H6026724   7.259   3.805   5.878 -1.3120  2.2367 -2.1348
  133MOL    H6126725   7.108   3.702   5.867  0.3651  3.2906  3.0210
  133MOL    C6226726   7.204   3.996   5.660  0.3787  0.9934  0.0483
  133MOL    C6326727   7.150   4.142   5.669 -0.4084 -0.8671 -0.3271
  133MOL    O6426728   7.206   4.205   5.779  0.3321  0.0662  0.5254
  133MOL    C6526729   7.157   4.156   5.907  0.3413 -0.0354  0.5615
  133MOL    H6626730   7.261   3.986   5.568 -1.9204  0.1698 -1.3375
  133MOL    H6726731   7.284   3.979   5.732  0.4560  1.8759  0.1804
  133MOL    H6826732   7.041   4.138   5.679 -0.5326  1.9215 -0.0482
  133MOL    H6926733   7.062   4.204   5.931  0.1312  0.6693 -1.5850
  133MOL    H7026734   7.147   4.048   5.901 -1.9361  0.1828 -0.2260
  133MOL    H7126735   7.212   4.165   6.001  1.2009  0.9137 -0.0243
  133MOL    C7226736   7.188   4.222   5.548  0.1485  0.1103  0.6126
  133MOL    C7326737   7.183   4.375   5.555  0.1789  0.3377 -0.6162
  133MOL    O7426738   7.242   4.426   5.432  0.3247 -0.0594 -0.2775
  133MOL    C7526739   7.280   4.559   5.413  0.0975 -0.5083 -1.1123
  133MOL    H7626740   7.123   4.195   5.464 -1.8739  4.8154  0.5260
  133MOL    H7726741   7.289   4.200   5.513  0.0276 -1.2413  1.0584
  133MOL    H7826742   7.241   4.407   5.641 -0.5875 -0.5053  0.2224
  133MOL    H7926743   7.328   4.551   5.315 -1.0543 -1.9271 -1.5714
  133MOL    H8026744   7.187   4.615   5.416  0.4333 -0.0101  0.7997
  133MOL    H8126745   7.356   4.593   5.483 -0.2630 -0.8153 -0.5664
  133MOL    C8226746   7.041   4.444   5.579 -0.0207  0.2186  0.3717
  133MOL    C8326747   6.927   4.407   5.477 -0.8840  0.1805 -0.1116
  133MOL    O8426748   6.883   4.276   5.500  0.0737 -0.4636 -0.3713
  133MOL    C8526749   6.839   4.211   5.381 -0.1623 -0.7777  0.6546
  133MOL    H8626750   7.056   4.551   5.592  0.8848  0.6371 -3.5746
  133MOL    H8726751   7.004   4.409   5.675 -0.0089  0.5078  0.4832
  133MOL    H8826752   6.967   4.424   5.377 -0.5743 -0.1820 -0.0480
  133MOL    H8926753   6.820   4.106   5.404  3.4904 -1.6314  0.0185
  133MOL    H9026754   6.754   4.269   5.345  1.8741  2.0649  0.3400
  133MOL    H9126755   6.912   4.204   5.300 -0.8978 -2.6985  0.1170
  133MOL    C9226756   6.806   4.506   5.503  0.1484 -0.0192  0.3150
  133MOL    C9326757   6.809   4.652   5.444 -0.3660  0.1193 -0.0688
  133MOL    O9426758   6.793   4.644   5.304 -0.5207  0.4158  0.3583
  133MOL    C9526759   6.893   4.720   5.229  0.0792 -1.0166 -0.5894
  133MOL    H9626760   6.797   4.502   5.612  1.3141  2.2445  0.5144
  133MOL    H9726761   6.716   4.455   5.469  0.1501 -0.7613  1.3782
  133MOL    H9826762   6.906   4.692   5.471 -0.2236  1.0125 -1.8770
  133MOL    H9926763   6.863   4.709   5.125 -0.3167  2.1149 -0.8560
  133MOL   H10026764   6.901   4.821   5.268 -1.9732 -0.9093 -0.4037
  133MOL   H10126765   6.998   4.688   5.237  0.6070  1.1435  1.6257
  133MOL   C10226766   6.707   4.749   5.495  0.0834 -0.0398 -0.4826
  133MOL   C10326767   6.713   4.795   5.652  0.1457  0.2889  0.2153
  133MOL   O10426768   6.843   4.815   5.693  0.5662 -0.1582  0.0801
  133MOL   C10526769   6.861   4.761   5.820  0.0164 -0.0878  0.1123
  133MOL   H10626770   6.608   4.709   5.471  0.2371 -0.3882 -0.5423
  133MOL   H10726771   6.736   4.840   5.442 -0.3549  0.1070 -0.4734
  133MOL   H10826772   6.662   4.718   5.710 -0.2413  1.0528  0.9070
  133MOL   H10926773   6.868   4.652   5.824  1.3830 -0.0180  0.0074
  133MOL   H11026774   6.957   4.800   5.855  0.2139 -0.4665 -0.0005
  133MOL   H11126775   6.781   4.792   5.888  0.3419 -0.8588  0.8689
  133MOL   C11226776   6.642   4.929   5.686  0.4257  0.1052 -0.5493
  133MOL   C11326777   6.483   4.929   5.659  0.1751 -0.1703  0.4857
  133MOL   O11426778   6.431   4.855   5.768 -0.4037 -0.1996  0.4600
  133MOL   C11526779   6.322   4.766   5.733 -0.1919 -1.0461  0.4791
  133MOL   H11626780   6.688   5.003   5.622  2.7763 -0.4462  0.4445
  133MOL   H11726781   6.672   4.963   5.786  1.7293  0.1045 -0.9316
  133MOL   H11826782   6.460   4.880   5.565 -1.4665 -3.2747  2.4186
  133MOL   H11926783   6.260   4.805   5.652  0.4277 -0.3254  0.3418
  133MOL   H12026784   6.373   4.676   5.699 -1.0860 -0.8139 -1.5702
  133MOL   H12126785   6.267   4.743   5.824 -1.5229 -0.2586 -0.1164
  133MOL   C12226786   6.420   5.062   5.669  0.7085 -0.2196 -0.6614
  133MOL   C12326787   6.445   5.167   5.560  0.0603  0.6243  0.1513
  133MOL   O12426788   6.373   5.128   5.440 -0.4219  0.2788 -0.3230
  133MOL   C12526789   6.465   5.111   5.330  0.2154  0.0097  0.4621
  133MOL   H12626790   6.459   5.102   5.762 -0.5610 -0.7148  0.0875
  133MOL   H12726791   6.312   5.047   5.679  0.6985  1.1111  1.6530
  133MOL   H12826792   6.553   5.173   5.544  0.2524 -3.1781 -0.3762
  133MOL   H12926793   6.400   5.090   5.246 -0.9832  1.9500  0.8945
  133MOL   H13026794   6.528   5.197   5.306  0.9943 -0.3699  1.0903
  133MOL   H13126795   6.525   5.021   5.347  0.6519  0.4157  1.0807
  133MOL   C13226796   6.384   5.304   5.602  0.0933 -0.8254 -0.2853
  133MOL   C13326797   6.443   5.434   5.535  0.1347 -0.4765  0.4802
  133MOL   O13426798   6.395   5.543   5.616  0.6818  0.2723  0.5358
  133MOL   C13526799   6.376   5.662   5.536  0.2907 -0.2428 -0.6342
  133MOL   H13626800   6.411   5.317   5.707  0.4717  0.4255 -0.5326
  133MOL   H13726801   6.275   5.301   5.603  0.0896 -0.7031  0.2675
  133MOL   H13826802   6.397   5.423   5.437  0.9984 -0.4769  0.0641
  133MOL   H13926803   6.332   5.740   5.598  0.5090  0.3560 -1.2215
  133MOL   H14026804   6.471   5.707   5.505 -0.3931  1.5002 -0.2653
  133MOL   H14126805   6.307   5.659   5.452 -0.4246 -0.2803 -0.0491
  133MOL   C14226806   6.594   5.452   5.522 -0.2056  0.8561  0.3611
  133MOL   C14326807   6.670   5.453   5.662 -0.4601 -0.5699  0.4728
  133MOL   O14426808   6.678   5.320   5.715 -0.4474  0.1304 -0.0650
  133MOL   C14526809   6.683   5.309   5.854  0.0325 -0.3052  0.6454
  133MOL   H14626810   6.608   5.549   5.474  1.1228  0.8448  0.7037
  133MOL   H14726811   6.628   5.372   5.457  1.1074  2.4037 -0.8898
  133MOL   H14826812   6.621   5.522   5.730  1.1572 -0.6212  1.6951
  133MOL   H14926813   6.583   5.303   5.896 -0.2730 -0.2760 -0.0820
  133MOL   H15026814   6.745   5.221   5.871  0.7770  0.4648  2.0050
  133MOL   H15126815   6.729   5.398   5.897  0.2078 -0.3040  0.4581
  133MOL   C15226816   6.815   5.497   5.631 -0.9190 -0.2264  0.2206
  133MOL   C15326817   6.841   5.637   5.599  0.0732  0.2016 -0.4657
  133MOL   O15426818   6.794   5.723   5.705  0.4325 -0.5770  0.3534
  133MOL   C15526819   6.733   5.843   5.658 -0.6157 -1.0586 -0.2555
  133MOL   H15626820   6.858   5.432   5.555 -0.0297 -1.3078  1.6374
  133MOL   H15726821   6.873   5.487   5.723  0.4359  0.2495 -0.5686
  133MOL   H15826822   6.785   5.653   5.507 -1.0425  0.8793  0.3205
  133MOL   H15926823   6.726   5.927   5.727 -1.2811 -1.0724 -0.3098
  133MOL   H16026824   6.794   5.888   5.579  1.3007 -1.4771  0.9521
  133MOL   H16126825   6.637   5.821   5.612 -2.5993  0.2825  3.1141
  133MOL   C16226826   6.988   5.668   5.572  0.0043  0.3068 -0.3002
  133MOL   C16326827   7.040   5.628   5.435 -0.0187 -0.2840  0.8003
  133MOL   O16426828   6.981   5.719   5.342 -0.4598 -0.2498 -0.4597
  133MOL   C16526829   6.922   5.668   5.227  0.0324 -0.2081  0.1533
  133MOL   H16626830   7.050   5.623   5.649  0.7678  0.0931 -1.0391
  133MOL   H16726831   7.003   5.776   5.580  1.3457  0.0053  1.3451
  133MOL   H16826832   7.008   5.526   5.413  1.4232 -0.9154  1.5448
  133MOL   H16926833   6.835   5.603   5.242 -1.0966  1.1892 -0.1573
  133MOL   H17026834   6.885   5.745   5.159  1.0291  1.2122  1.2089
  133MOL   H17126835   6.988   5.610   5.163 -1.5437 -0.6096 -1.1732
  133MOL   C17226836   7.195   5.630   5.443 -0.0372  0.0529 -0.0295
  133MOL   C17326837   7.263   5.607   5.315  0.4344  0.2892  0.1654
  133MOL   O17426838   7.401   5.597   5.344 -0.3006  0.1982  0.4224
  133MOL   C17526839   7.456   5.724   5.313 -0.0699 -0.8928 -0.0192
  133MOL   H17626840   7.219   5.550   5.513 -2.9690  2.7263  4.3126
  133MOL   H17726841   7.228   5.722   5.491  1.7364 -0.8008  0.3958
  133MOL   H17826842   7.246   5.685   5.241  0.2259 -0.1587 -0.2606
  133MOL   H17926843   7.407   5.812   5.354  0.0294  0.7720 -3.2971
  133MOL   H18026844   7.551   5.725   5.364  0.1764 -3.0316 -0.3613
  133MOL   H18126845   7.484   5.741   5.209 -2.6482 -1.4333 -0.8590
  133MOL   C18226846   7.226   5.468   5.248 -0.1469 -0.2594  0.3324
  133MOL   C18326847   7.288   5.429   5.120 -0.6007 -0.2159 -0.0493
  133MOL   O18426848   7.278   5.287   5.121  0.4307  0.0954 -0.4987
  133MOL   C18526849   7.357   5.225   5.019  0.1410  0.2567  0.2566
  133MOL   H18626850   7.118   5.449   5.245 -0.4232  0.9128  2.3745
  133MOL   H18726851   7.257   5.395   5.323  0.2219  1.7919  2.2132
  133MOL   H18826852   7.388   5.469   5.138 -1.8026  1.8725  2.3421
  133MOL   H18926853   7.462   5.256   5.025  0.1481  0.5459 -1.1954
  133MOL   H19026854   7.356   5.116   5.028 -1.4790 -0.0041 -2.4900
  133MOL   H19126855   7.313   5.245   4.922 -0.2090  0.0447  0.3703
  133MOL   C19226856   7.231   5.490   4.989  0.5285 -0.0308 -0.7321
  133MOL   C19326857   7.258   5.638   4.970  0.3969  0.5570  0.3647
  133MOL   O19426858   7.137   5.708   5.004 -0.7822  0.4653 -0.4080
  133MOL   C19526859   7.145   5.846   5.006 -0.6406  0.4215  0.1346
  133MOL   H19626860   7.131   5.451   4.973  1.8198 -3.6145 -0.4151
  133MOL   H19726861   7.292   5.447   4.909  0.8738 -1.5062  0.3141
  133MOL   H19826862   7.285   5.666   4.868 -1.1050  2.7628  0.5440
  133MOL   H19926863   7.184   5.877   4.910 -1.9857  0.5446 -0.3887
  133MOL   H20026864   7.044   5.887   5.005 -1.1882 -0.8815  1.0132
  133MOL   H20126865   7.206   5.888   5.086  0.5582 -1.4089  0.2077
  133MOL   H20226866   7.337   5.680   5.032  3.0909  1.6727 -3.6122
  134MOL     C126867   3.304   6.704   4.477  0.1517 -0.4468 -0.3484
  134MOL     C226868   3.243   6.561   4.469 -0.1397  0.1096 -0.2381
  134MOL     O326869   3.127   6.567   4.551  0.5550  0.0672  0.3609
  134MOL     C426870   3.121   6.500   4.674 -0.3139 -0.0433  0.0892
  134MOL     H526871   3.379   6.734   4.404 -0.0215  0.4294 -0.1755
  134MOL     H626872   3.227   6.780   4.460  1.1482  0.4164 -1.0777
  134MOL     H726873   3.311   6.484   4.504 -0.4943 -0.7916 -1.4760
  134MOL     H826874   3.030   6.510   4.733 -0.6773  1.5257 -0.7281
  134MOL     H926875   3.144   6.394   4.666  1.2622  0.4617 -2.5810
  134MOL    H1026876   3.203   6.537   4.736  0.4121 -1.8783  0.2456
  134MOL    H1126877   3.349   6.709   4.576  1.4332 -1.3359 -0.8792
  134MOL    C1226878   3.200   6.527   4.324 -0.8838 -0.4359  0.0477
  134MOL    C1326879   3.137   6.383   4.318  0.1485  0.1385 -0.3751
  134MOL    O1426880   3.102   6.368   4.179 -0.4971  0.5612 -0.8273
  134MOL    C1526881   2.964   6.410   4.156  0.4143  0.4242 -0.4700
  134MOL    H1626882   3.282   6.527   4.253 -0.4950 -0.7611  0.4950
  134MOL    H1726883   3.137   6.609   4.289 -1.4206  0.4334  2.9222
  134MOL    H1826884   3.048   6.385   4.381  2.0736  1.0709  2.4013
  134MOL    H1926885   2.953   6.519   4.152  0.5225  0.4840  0.5869
  134MOL    H2026886   2.948   6.377   4.054 -1.1628  1.0677 -0.4463
  134MOL    H2126887   2.892   6.371   4.228 -0.4568  2.9308  0.0916
  134MOL    C2226888   3.224   6.258   4.344 -0.2771 -0.2594  0.7997
  134MOL    C2326889   3.158   6.118   4.334  0.6001 -0.4182  0.3511
  134MOL    O2426890   3.261   6.027   4.355 -0.4335  0.4458  0.3807
  134MOL    C2526891   3.279   5.946   4.240 -0.2498  0.0310 -0.0718
  134MOL    H2626892   3.265   6.275   4.444  1.2250 -0.3732  0.2178
  134MOL    H2726893   3.310   6.260   4.277  1.9533  2.1082  3.6152
  134MOL    H2826894   3.105   6.111   4.239 -0.1813  1.8856  0.6066
  134MOL    H2926895   3.196   5.879   4.221  1.3893 -2.1234  0.2150
  134MOL    H3026896   3.299   6.015   4.158 -0.7961  0.3653  0.0687
  134MOL    H3126897   3.368   5.884   4.245  0.2145  0.6830 -0.0526
  134MOL    C3226898   3.051   6.091   4.440  0.2998  0.6000  0.5847
  134MOL    C3326899   3.001   5.941   4.440 -0.2919  0.1145  0.0719
  134MOL    O3426900   2.928   5.892   4.555  0.2097 -0.1943 -0.6942
  134MOL    C3526901   3.020   5.876   4.663 -0.5935  0.1790  0.3133
  134MOL    H3626902   2.962   6.152   4.426 -0.3282 -0.3869  0.2509
  134MOL    H3726903   3.093   6.121   4.536  2.0683 -0.5645  0.1894
  134MOL    H3826904   3.090   5.878   4.435 -0.0779  0.6300 -5.0522
  134MOL    H3926905   3.080   5.967   4.675 -0.4932 -0.2150  3.0834
  134MOL    H4026906   2.959   5.867   4.753 -0.2432 -0.2578  0.5093
  134MOL    H4126907   3.081   5.786   4.657 -0.9918 -0.0684 -0.0330
  134MOL    C4226908   2.902   5.918   4.318 -0.2413 -0.4529 -0.2329
  134MOL    C4326909   2.848   5.780   4.317 -0.3408 -0.2814 -0.2304
  134MOL    O4426910   2.725   5.801   4.244 -0.1069 -0.3800 -0.2637
  134MOL    C4526911   2.607   5.796   4.316 -0.0845 -0.7927 -0.0672
  134MOL    H4626912   2.941   5.944   4.220 -1.5866  0.2855 -0.5876
  134MOL    H4726913   2.817   5.984   4.337 -0.4329 -1.0418  1.0001
  134MOL    H4826914   2.823   5.740   4.416 -0.1606  1.5402  0.5557
  134MOL    H4926915   2.603   5.707   4.378 -0.1376  0.0167  1.1110
  134MOL    H5026916   2.611   5.880   4.386  1.3673 -0.9689  0.0870
  134MOL    H5126917   2.527   5.808   4.243  0.2090  1.3185 -0.0728
  134MOL    C5226918   2.935   5.679   4.245 -0.0738 -0.7973 -0.2093
  134MOL    C5326919   2.918   5.534   4.279  0.0168 -0.3493  0.0951
  134MOL    O5426920   2.993   5.451   4.193 -0.4163 -0.2363  0.2080
  134MOL    C5526921   2.926   5.417   4.075  0.7175  0.5035  0.0513
  134MOL    H5626922   3.038   5.714   4.254 -0.4528  1.1288 -2.6633
  134MOL    H5726923   2.914   5.692   4.139 -2.0015 -1.4119  0.0797
  134MOL    H5826924   2.811   5.516   4.279  0.0454 -0.5196  0.4190
  134MOL    H5926925   2.981   5.334   4.033  0.3075  0.4378 -0.3605
  134MOL    H6026926   2.830   5.368   4.092  0.2644  1.8059  1.4177
  134MOL    H6126927   2.914   5.496   4.001 -1.5938  0.9056  0.8072
  134MOL    C6226928   2.964   5.493   4.422  0.4852  0.2284  0.0050
  134MOL    C6326929   2.911   5.350   4.455 -0.1363 -0.5599 -0.5354
  134MOL    O6426930   3.019   5.276   4.511  0.3531  0.2683  0.0091
  134MOL    C6526931   3.043   5.156   4.440  0.1377 -0.4274 -0.0813
  134MOL    H6626932   2.928   5.557   4.502 -2.5352 -1.3222 -0.0165
  134MOL    H6726933   3.073   5.493   4.423  0.5221 -2.3596  0.0461
  134MOL    H6826934   2.867   5.293   4.373  0.6856 -0.5341 -1.0109
  134MOL    H6926935   3.074   5.198   4.345  0.7731  1.3136  0.8674
  134MOL    H7026936   3.115   5.100   4.499 -1.1931  1.7681  3.8343
  134MOL    H7126937   2.952   5.100   4.416 -0.5112  0.6921 -0.2975
  134MOL    C7226938   2.804   5.349   4.569  0.5092  0.3493  0.1482
  134MOL    C7326939   2.673   5.423   4.536 -0.1235  0.2078  0.6111
  134MOL    O7426940   2.622   5.343   4.424  0.0599  0.7891  0.4967
  134MOL    C7526941   2.520   5.405   4.353 -0.1287  0.1006 -0.1690
  134MOL    H7626942   2.854   5.397   4.653 -0.1150  1.7444 -0.2679
  134MOL    H7726943   2.781   5.248   4.604 -2.9376  0.6677 -0.9804
  134MOL    H7826944   2.689   5.529   4.512  2.5708  0.0283  1.3739
  134MOL    H7926945   2.444   5.454   4.414  0.0765  1.6105 -1.1123
  134MOL    H8026946   2.563   5.476   4.283 -0.7361  0.0388 -0.6050
  134MOL    H8126947   2.472   5.337   4.283 -1.3467 -0.8717  1.5720
  134MOL    C8226948   2.578   5.408   4.653 -0.0289  0.0029 -0.2900
  134MOL    C8326949   2.604   5.523   4.754 -0.5280 -0.4663  0.7396
  134MOL    O8426950   2.569   5.634   4.683  0.2824 -0.2524  0.2372
  134MOL    C8526951   2.604   5.753   4.751  0.3946 -0.7669  0.8701
  134MOL    H8626952   2.600   5.318   4.712  0.4034  0.1204 -0.2704
  134MOL    H8726953   2.476   5.394   4.617 -0.0079 -1.1579  0.0456
  134MOL    H8826954   2.709   5.526   4.783 -0.4187 -0.0368  0.2858
  134MOL    H8926955   2.556   5.780   4.845  0.0515  2.3931 -0.1227
  134MOL    H9026956   2.713   5.764   4.751  0.6481 -2.9376 -0.2483
  134MOL    H9126957   2.571   5.838   4.690 -0.4750 -0.0788  2.2813
  134MOL    C9226958   2.517   5.506   4.886  0.0386  0.6969  0.5170
  134MOL    C9326959   2.611   5.460   4.999  0.1629  0.3581 -0.3453
  134MOL    O9426960   2.537   5.477   5.130 -0.4144  0.4081  0.2748
  134MOL    C9526961   2.624   5.500   5.240 -0.5151 -0.0434  0.1387
  134MOL    H9626962   2.431   5.441   4.869  0.4511  0.0409  0.9020
  134MOL    H9726963   2.464   5.597   4.912 -0.9128  0.6347 -1.1090
  134MOL    H9826964   2.694   5.531   4.996  0.0979  0.3944 -1.9701
  134MOL    H9926965   2.697   5.422   5.261  0.0584  0.3915 -0.2280
  134MOL   H10026966   2.685   5.589   5.225 -0.1358 -0.5074 -1.1042
  134MOL   H10126967   2.570   5.510   5.334  0.4837 -1.9373  0.9448
  134MOL   C10226968   2.685   5.323   4.992  0.5709 -0.1036 -0.3823
  134MOL   C10326969   2.602   5.198   4.980  0.4209 -0.2521 -0.5470
  134MOL   O10426970   2.696   5.083   4.982  0.1774 -0.3873  0.9034
  134MOL   C10526971   2.755   5.061   4.852  0.4047  0.0483  0.5348
  134MOL   H10626972   2.753   5.310   5.076  1.1389 -2.6005 -1.1906
  134MOL   H10726973   2.753   5.332   4.907  0.2576  1.0118 -0.5219
  134MOL   H10826974   2.546   5.201   4.886 -1.5654 -1.3019  0.5772
  134MOL   H10926975   2.675   5.058   4.778  0.0957 -0.7153  0.8877
  134MOL   H11026976   2.828   5.131   4.814 -0.1481  0.9249  1.0661
  134MOL   H11126977   2.813   4.969   4.846  0.4897  0.2343 -1.5194
  134MOL   C11226978   2.489   5.190   5.087  0.4387  0.6574  0.3627
  134MOL   C11326979   2.413   5.055   5.077 -0.3421 -0.3238  0.3243
  134MOL   O11426980   2.350   5.042   5.200  0.4870 -0.0534  0.2328
  134MOL   C11526981   2.236   5.129   5.233  0.4913  0.1184 -0.5522
  134MOL   H11626982   2.416   5.271   5.082 -0.1521  0.0876 -0.3540
  134MOL   H11726983   2.535   5.198   5.186  1.5071 -0.7086 -0.0118
  134MOL   H11826984   2.478   4.970   5.055  1.0277  1.4668 -2.9210
  134MOL   H11926985   2.145   5.105   5.178  1.0450 -0.3195 -1.2802
  134MOL   H12026986   2.213   5.099   5.336  1.3264  1.9678  0.2085
  134MOL   H12126987   2.246   5.235   5.211  0.7072  0.4330  1.0069
  134MOL   C12226988   2.317   5.053   4.950  0.4761  0.9185  0.7140
  134MOL   C12326989   2.263   4.922   4.908  0.4691  0.2011  0.0146
  134MOL   O12426990   2.164   4.894   5.010  0.1564  0.0381  0.7456
  134MOL   C12526991   2.190   4.779   5.095 -0.7530 -0.9243 -0.1358
  134MOL   H12626992   2.386   5.066   4.867 -0.9365  1.1652 -0.4372
  134MOL   H12726993   2.246   5.131   4.978  0.3021 -0.3462  4.0771
  134MOL   H12826994   2.342   4.847   4.910 -0.1890 -0.5194 -0.6854
  134MOL   H12926995   2.194   4.694   5.026 -0.7098 -1.4052  0.4624
  134MOL   H13026996   2.281   4.781   5.155 -1.3345  0.1225  0.7303
  134MOL   H13126997   2.106   4.757   5.160  0.9432 -0.0009  2.4702
  134MOL   C13226998   2.201   4.937   4.763 -0.5125  0.8618 -0.3835
  134MOL   C13326999   2.287   4.897   4.645  0.4335  0.4758  0.1782
  134MOL   O13427000   2.383   4.995   4.619 -0.6091 -0.0961 -0.0540
  134MOL   C13527001   2.348   5.088   4.522  0.1107 -1.1715 -0.2143
  134MOL   H13627002   2.166   5.039   4.747 -1.3021  0.3250 -2.2529
  134MOL   H13727003   2.124   4.859   4.759  0.6831 -0.3263 -0.6491
  134MOL   H13827004   2.225   4.895   4.556 -0.3231 -2.2311  0.7100
  134MOL   H13927005   2.427   5.163   4.527  0.2266 -1.3747  1.3803
  134MOL   H14027006   2.337   5.054   4.419 -0.9745  0.1258 -0.5426
  134MOL   H14127007   2.257   5.143   4.546 -0.2753 -1.8912 -0.0068
  134MOL   C14227008   2.361   4.766   4.648  0.3290  0.1534 -0.0601
  134MOL   C14327009   2.262   4.644   4.660  0.0761  0.0166  0.5391
  134MOL   O14427010   2.179   4.646   4.545  0.3114  0.2541  0.0060
  134MOL   C14527011   2.045   4.613   4.575 -0.1655 -0.1662 -0.0590
  134MOL   H14627012   2.433   4.763   4.730  0.7623 -0.6836 -0.4653
  134MOL   H14727013   2.424   4.757   4.560  1.7751  1.6811  0.7992
  134MOL   H14827014   2.202   4.641   4.750  0.1975 -0.1986  0.6148
  134MOL   H14927015   1.988   4.628   4.483  0.5125 -1.4654 -0.7016
  134MOL   H15027016   2.041   4.507   4.599  1.6232 -0.0767  0.7157
  134MOL   H15127017   2.010   4.679   4.653  0.1889  0.6474 -0.5799
  134MOL   C15227018   2.338   4.508   4.665  0.2980  0.2734  0.2967
  134MOL   C15327019   2.404   4.485   4.801 -0.5691  0.0609 -0.0179
  134MOL   O15427020   2.296   4.473   4.893  0.3795 -0.4857 -0.6658
  134MOL   C15527021   2.342   4.480   5.031 -0.4664  0.1562 -0.5547
  134MOL   H15627022   2.410   4.489   4.586  0.1079  0.0178  0.1831
  134MOL   H15727023   2.271   4.428   4.633  0.2216  0.7887 -0.8726
  134MOL   H15827024   2.474   4.566   4.821 -0.6658  0.4660 -1.2927
  134MOL   H15927025   2.388   4.389   5.070 -1.8271 -1.2214 -2.0499
  134MOL   H16027026   2.399   4.572   5.048 -1.3840  1.1245 -2.5398
  134MOL   H16127027   2.249   4.500   5.083 -0.2043  1.4542 -0.5649
  134MOL   C16227028   2.494   4.353   4.809  0.1738 -0.4638  0.5877
  134MOL   C16327029   2.416   4.218   4.785  0.2978 -0.1227  1.1883
  134MOL   O16427030   2.400   4.200   4.649 -0.0244 -0.2279  0.0720
  134MOL   C16527031   2.279   4.122   4.611 -0.1704 -0.1431 -0.2252
  134MOL   H16627032   2.557   4.355   4.898  1.0932  0.9468 -0.0777
  134MOL   H16727033   2.561   4.368   4.723 -0.2408  0.8855  0.4988
  134MOL   H16827034   2.321   4.207   4.837 -0.8408  0.2599 -0.7975
  134MOL   H16927035   2.193   4.174   4.653 -0.7878 -1.6461  0.4005
  134MOL   H17027036   2.273   4.094   4.506 -1.5651 -0.4897 -0.0566
  134MOL   H17127037   2.281   4.024   4.657 -0.1477  0.2120  0.5305
  134MOL   C17227038   2.498   4.101   4.844 -0.1518  0.5350  0.2378
  134MOL   C17327039   2.509   4.094   5.003 -0.0130 -0.3307 -0.2494
  134MOL   O17427040   2.374   4.084   5.045  0.4128  0.1641 -0.1874
  134MOL   C17527041   2.347   4.114   5.178 -0.4986  0.2171 -0.0045
  134MOL   H17627042   2.598   4.095   4.803 -0.1943 -0.4088  0.2451
  134MOL   H17727043   2.453   4.013   4.798  2.9351 -0.5622 -0.7792
  134MOL   H17827044   2.537   4.193   5.040 -0.8854 -0.1723  0.0137
  134MOL   H17927045   2.254   4.063   5.202 -0.0670  0.1327  1.5604
  134MOL   H18027046   2.408   4.073   5.259 -1.5969 -1.4637 -0.0065
  134MOL   H18127047   2.345   4.222   5.194  2.2388  0.3120 -0.1400
  134MOL   C18227048   2.587   3.973   5.057 -0.0070  0.0049 -0.3257
  134MOL   C18327049   2.742   3.985   5.033 -0.8431 -0.2556  0.1215
  134MOL   O18427050   2.799   4.093   5.108 -0.0090 -0.5704 -0.0441
  134MOL   C18527051   2.938   4.119   5.090  0.4038 -0.2492  0.0190
  134MOL   H18627052   2.536   3.887   5.013 -3.5564  1.4905  0.7305
  134MOL   H18727053   2.580   3.966   5.165  1.4092  1.5454 -0.1090
  134MOL   H18827054   2.762   4.005   4.928 -0.7856  1.7538  0.5031
  134MOL   H18927055   3.012   4.040   5.102 -0.3002 -0.9323 -0.1129
  134MOL   H19027056   2.956   4.166   4.993  1.1167 -0.6711 -0.0544
  134MOL   H19127057   2.970   4.196   5.161 -1.0057  0.9577 -0.6349
  134MOL   C19227058   2.825   3.848   5.049 -0.2431 -0.1030  0.0278
  134MOL   C19327059   2.787   3.733   4.953  0.1608  0.5281  0.5411
  134MOL   O19427060   2.870   3.627   4.986 -0.0897 -0.2642 -0.5482
  134MOL   C19527061   2.825   3.495   4.943 -0.6754 -0.2532 -0.3731
  134MOL   H19627062   2.814   3.812   5.151 -1.0799 -2.2702 -0.7987
  134MOL   H19727063   2.931   3.863   5.028 -0.4256  0.5373 -0.4811
  134MOL   H19827064   2.805   3.758   4.848 -1.2000 -1.8299 -0.2826
  134MOL   H19927065   2.772   3.445   5.024  0.3438 -0.3024  0.2691
  134MOL   H20027066   2.770   3.490   4.849  1.1073  1.8356 -1.5750
  134MOL   H20127067   2.921   3.445   4.931  0.2920  1.5045 -0.0172
  134MOL   H20227068   2.686   3.697   4.971  1.0182 -1.3772  1.7038
  135MOL     C127069   6.878   4.696   1.349  1.2166  0.2062 -0.2719
  135MOL     C227070   6.905   4.746   1.493  0.0611 -0.3014 -0.2357
  135MOL     O327071   6.791   4.819   1.537 -0.2551 -0.1586  0.4035
  135MOL     C427072   6.825   4.936   1.596  0.6972 -0.3914 -0.1234
  135MOL     H527073   6.872   4.773   1.272  0.6113 -0.6017 -1.0402
  135MOL     H627074   6.942   4.615   1.315 -4.1802 -3.3071 -2.8015
  135MOL     H727075   6.990   4.814   1.490 -1.0365  1.0425 -1.7379
  135MOL     H827076   6.860   5.012   1.525 -2.0615  0.5428 -0.5390
  135MOL     H927077   6.737   4.976   1.646 -0.3774 -1.6609 -0.9699
  135MOL    H1027078   6.909   4.924   1.664  1.2765  2.0940 -0.3527
  135MOL    H1127079   6.776   4.658   1.350  1.4475 -0.4136 -0.0733
  135MOL    C1227080   6.925   4.634   1.598  0.7038 -0.5031 -0.1404
  135MOL    C1327081   7.042   4.527   1.577  0.2448 -0.1314  0.1068
  135MOL    O1427082   7.023   4.450   1.468  0.3113  0.1392 -0.0898
  135MOL    C1527083   7.100   4.327   1.474  0.0417 -1.0426  0.2291
  135MOL    H1627084   6.830   4.582   1.606 -0.2187  1.2276  0.3816
  135MOL    H1727085   6.935   4.678   1.698 -0.0488 -0.2843 -0.1579
  135MOL    H1827086   7.058   4.471   1.670 -2.0338 -0.9529  0.0417
  135MOL    H1927087   7.208   4.332   1.489 -0.1656  0.6491  1.2562
  135MOL    H2027088   7.062   4.266   1.555  0.1467 -1.3526  0.0462
  135MOL    H2127089   7.086   4.280   1.377  1.2563 -1.1110  0.0677
  135MOL    C2227090   7.176   4.606   1.548 -0.1397 -0.6656  0.6012
  135MOL    C2327091   7.238   4.680   1.669 -0.1108  0.4909 -0.5685
  135MOL    O2427092   7.276   4.575   1.752 -0.9031  0.3128  0.5421
  135MOL    C2527093   7.311   4.610   1.889  0.1288  0.6637  0.2273
  135MOL    H2627094   7.152   4.674   1.466  1.7203 -0.5278  0.1394
  135MOL    H2727095   7.248   4.540   1.501  2.1484  0.1489  2.8568
  135MOL    H2827096   7.166   4.733   1.732  3.2550  0.9749  3.0339
  135MOL    H2927097   7.223   4.627   1.951 -0.3089 -1.5434  0.2530
  135MOL    H3027098   7.377   4.540   1.941 -0.3177 -0.3950 -0.6192
  135MOL    H3127099   7.369   4.701   1.879  2.5224 -0.9222 -0.7084
  135MOL    C3227100   7.345   4.786   1.632  0.6390 -0.2553 -0.3726
  135MOL    C3327101   7.305   4.885   1.513 -0.6203  0.2166 -0.3845
  135MOL    O3427102   7.318   5.022   1.552  0.3570  0.1192  0.1665
  135MOL    C3527103   7.231   5.064   1.649  0.3918 -0.7049 -0.0297
  135MOL    H3627104   7.431   4.726   1.604 -0.2655 -1.8696  0.2339
  135MOL    H3727105   7.372   4.841   1.722  2.0054  0.9068 -1.4791
  135MOL    H3827106   7.201   4.869   1.482 -0.5233  0.9885 -1.1200
  135MOL    H3927107   7.132   5.026   1.621 -0.4247  1.2993  0.0439
  135MOL    H4027108   7.263   5.038   1.750 -2.1719  0.0224  1.0297
  135MOL    H4127109   7.214   5.171   1.647 -2.1058 -1.0645 -0.0202
  135MOL    C4227110   7.394   4.867   1.379  0.1120  0.1262 -0.5812
  135MOL    C4327111   7.351   4.934   1.252  0.0325 -0.7728  0.4492
  135MOL    O4427112   7.447   4.927   1.148 -0.0686  0.5613  0.5384
  135MOL    C4527113   7.564   4.988   1.184 -0.0892  0.0150  0.7560
  135MOL    H4627114   7.385   4.761   1.353  1.9368 -0.3564  0.6660
  135MOL    H4727115   7.499   4.875   1.407 -0.4305  3.1028  0.7486
  135MOL    H4827116   7.341   5.042   1.267 -1.0609 -0.6316 -1.1418
  135MOL    H4927117   7.605   5.017   1.087  0.7238 -2.7473  0.2292
  135MOL    H5027118   7.539   5.089   1.218  1.5233  2.2243 -4.1280
  135MOL    H5127119   7.634   4.937   1.249 -1.2464 -1.9583  0.4825
  135MOL    C5227120   7.214   4.873   1.201 -0.8835  0.0990 -0.8343
  135MOL    C5327121   7.148   4.958   1.089  0.2400  0.1930 -0.1490
  135MOL    O5427122   7.030   4.888   1.049  0.0156  0.6084  0.1527
  135MOL    C5527123   7.045   4.797   0.939  0.2220  0.2725 -0.4502
  135MOL    H5627124   7.139   4.857   1.279 -1.0198  0.0325 -0.9782
  135MOL    H5727125   7.233   4.775   1.157  1.1369  0.5025 -0.9122
  135MOL    H5827126   7.226   4.979   1.015 -0.4083 -0.5179 -1.0457
  135MOL    H5927127   6.956   4.736   0.925  0.9657 -0.4567 -2.0932
  135MOL    H6027128   7.068   4.847   0.845 -1.4115 -0.7118 -1.3944
  135MOL    H6127129   7.132   4.736   0.960 -0.4139 -0.4949 -0.0196
  135MOL    C6227130   7.097   5.098   1.147  0.2232  0.8072  0.0006
  135MOL    C6327131   7.038   5.199   1.049 -0.9145  0.2249 -0.0436
  135MOL    O6427132   6.989   5.292   1.145  0.3281 -0.6231 -0.0110
  135MOL    C6527133   6.881   5.376   1.104  0.2470 -0.4871 -0.3378
  135MOL    H6627134   7.182   5.141   1.200 -0.3475 -1.3118  2.7699
  135MOL    H6727135   7.029   5.066   1.226  2.9259 -1.7039  1.4234
  135MOL    H6827136   6.954   5.154   0.996  0.0983 -0.9298 -0.6935
  135MOL    H6927137   6.818   5.320   1.035  3.2290 -1.8905 -2.0573
  135MOL    H7027138   6.831   5.414   1.193  1.2082  1.4734 -0.5982
  135MOL    H7127139   6.920   5.462   1.049  0.2253 -0.2687 -0.0126
  135MOL    C7227140   7.135   5.260   0.948  0.3703  0.1238 -0.4657
  135MOL    C7327141   7.167   5.171   0.818  0.8351  0.3822  0.1008
  135MOL    O7427142   7.043   5.185   0.744  0.3625 -0.6033  0.2792
  135MOL    C7527143   7.009   5.085   0.651 -0.0623 -0.0084 -0.3705
  135MOL    H7627144   7.227   5.297   0.994  2.0011 -1.0721 -2.6563
  135MOL    H7727145   7.099   5.358   0.917 -0.8044  0.1123  0.8205
  135MOL    H7827146   7.176   5.066   0.845  1.2913 -0.4483 -3.1501
  135MOL    H7927147   7.085   5.082   0.573 -1.2450  1.5468 -1.6439
  135MOL    H8027148   7.001   4.992   0.706 -0.8165  2.4620  3.8626
  135MOL    H8127149   6.912   5.095   0.602  0.8027  1.5024 -1.8344
  135MOL    C8227150   7.277   5.233   0.723  0.3912 -0.4814  0.0841
  135MOL    C8327151   7.422   5.199   0.764  0.0691  0.0488  0.1022
  135MOL    O8427152   7.445   5.066   0.704 -0.3179 -0.5144 -0.1438
  135MOL    C8527153   7.521   4.980   0.793 -0.1980 -0.3957  0.5192
  135MOL    H8627154   7.266   5.340   0.739 -2.4460 -1.1961  3.7020
  135MOL    H8727155   7.267   5.204   0.619 -1.2057 -2.7185  0.8317
  135MOL    H8827156   7.432   5.190   0.873 -0.0182  1.3555  0.2357
  135MOL    H8927157   7.453   4.937   0.867  0.7701 -2.2032  0.3951
  135MOL    H9027158   7.568   4.908   0.727 -0.0981  2.0107 -2.1021
  135MOL    H9127159   7.595   5.043   0.842  0.9225 -1.0061 -0.3758
  135MOL    C9227160   7.540   5.283   0.699  0.5345 -1.0040  0.4222
  135MOL    C9327161   7.544   5.430   0.723 -0.5320 -0.3209  0.0781
  135MOL    O9427162   7.539   5.448   0.862  0.2230  0.2867 -0.1615
  135MOL    C9527163   7.459   5.558   0.896  0.1030  0.1997  0.2863
  135MOL    H9627164   7.521   5.265   0.593 -1.2016 -0.8733  0.7028
  135MOL    H9727165   7.639   5.239   0.714  0.9568 -0.2839 -0.2261
  135MOL    H9827166   7.460   5.483   0.678 -0.4138 -1.1366 -1.1197
  135MOL    H9927167   7.517   5.644   0.863 -0.3780  0.3778 -0.1168
  135MOL   H10027168   7.362   5.571   0.847 -0.2006  3.2708  1.5644
  135MOL   H10127169   7.439   5.563   1.003  3.3494  1.2289  0.9010
  135MOL   C10227170   7.666   5.501   0.670 -0.5524 -0.4296  0.6406
  135MOL   C10327171   7.680   5.488   0.523 -0.0635  0.2744  0.3240
  135MOL   O10427172   7.576   5.562   0.462 -0.1130 -0.1742 -0.6294
  135MOL   C10527173   7.472   5.486   0.403 -0.2169  0.3227  0.0023
  135MOL   H10627174   7.760   5.480   0.721 -1.4687  1.6360  3.2681
  135MOL   H10727175   7.652   5.608   0.688  2.2771 -0.2537  2.0735
  135MOL   H10827176   7.689   5.383   0.498  0.6856 -0.0282  1.7753
  135MOL   H10927177   7.422   5.424   0.478  1.7027  0.9990  1.8754
  135MOL   H11027178   7.391   5.545   0.359 -0.4224 -0.3612 -0.5534
  135MOL   H11127179   7.508   5.417   0.326 -1.3310 -0.0377 -0.2103
  135MOL   C11227180   0.001   5.536   0.461 -0.3762 -0.2120 -1.0745
  135MOL   C11327181   0.015   5.517   0.312  0.0690 -0.5263  0.0363
  135MOL   O11427182   0.025   5.647   0.250 -0.1647  0.1103 -0.4096
  135MOL   C11527183   7.716   5.723   0.229  0.3346 -0.3808 -0.3076
  135MOL   H11627184   0.088   5.511   0.521 -0.1645 -0.5807 -1.5310
  135MOL   H11727185   7.793   5.643   0.473 -1.0258 -0.5348  0.9930
  135MOL   H11827186   7.740   5.459   0.278  0.8573 -0.5489 -1.9765
  135MOL   H11927187   7.649   5.671   0.161 -1.0662 -0.9478  1.4463
  135MOL   H12027188   7.665   5.748   0.322  0.9398 -2.1541  0.5267
  135MOL   H12127189   7.745   5.815   0.178  1.9473  0.6123  2.3244
  135MOL   C12227190   0.148   5.442   0.280  0.2268 -0.1370  0.0851
  135MOL   C12327191   0.152   5.373   0.140 -0.0084  0.0361  0.0523
  135MOL   O12427192   0.269   5.294   0.132 -0.4674 -0.0430  0.3889
  135MOL   C12527193   0.363   5.319   0.030 -0.4258 -1.0337  0.2518
  135MOL   H12627194   0.163   5.362   0.352 -3.0884 -0.1803  0.8228
  135MOL   H12727195   0.240   5.500   0.288  0.8236 -1.1436  0.6324
  135MOL   H12827196   0.154   5.453   0.066 -1.0975 -1.1732 -1.3408
  135MOL   H12927197   0.307   5.318   7.747  3.0039  0.2694 -1.9058
  135MOL   H13027198   0.399   5.422   0.037 -2.9600  0.0225 -1.3791
  135MOL   H13127199   0.444   5.246   0.029 -0.0488 -0.6119 -0.0186
  135MOL   C13227200   0.045   5.270   0.104  0.5548 -0.3393  0.1356
  135MOL   C13327201   0.050   5.191   7.776  0.1551  0.3020 -0.1091
  135MOL   O13427202   7.757   5.093   7.776  0.5269  0.9800  0.2162
  135MOL   C13527203   7.772   4.986   0.060 -0.7371  0.0915  0.4673
  135MOL   H13627204   7.754   5.305   0.121  1.4231  1.3336  2.0842
  135MOL   H13727205   0.052   5.197   0.185  0.9163 -0.3752  0.0743
  135MOL   H13827206   0.155   5.162   7.770 -0.1000 -1.4329  2.6879
  135MOL   H13927207   0.031   4.926   0.001  0.8400  1.7382  0.5969
  135MOL   H14027208   7.799   5.000   0.165 -0.0866 -0.5542  0.3894
  135MOL   H14127209   7.682   4.925   0.056  0.6697 -1.9533 -1.1186
  135MOL   C14227210   0.016   5.276   7.647 -0.9879 -0.1033 -0.2558
  135MOL   C14327211   0.073   5.230   7.509  0.1804  0.0710  0.3251
  135MOL   O14427212   0.215   5.219   7.531  0.0365 -0.4127  0.1645
  135MOL   C14527213   0.308   5.218   7.421  0.6357  0.5227  0.2732
  135MOL   H14627214   0.066   5.372   7.661 -1.0296 -0.2044  0.6523
  135MOL   H14727215   7.723   5.309   7.637 -0.6811  0.6019 -1.1645
  135MOL   H14827216   0.056   5.303   7.430  1.6327 -0.1878 -0.2496
  135MOL   H14927217   0.338   5.118   7.393 -0.5245  0.2215  0.0791
  135MOL   H15027218   0.273   5.280   7.338 -0.4962 -0.1817  0.2180
  135MOL   H15127219   0.395   5.263   7.469  1.6757 -0.4477 -0.6794
  135MOL   C15227220   0.021   5.099   7.458 -0.4641  0.3215  0.1975
  135MOL   C15327221   7.690   5.094   7.402 -0.3961  0.5375 -0.6107
  135MOL   O15427222   7.676   5.208   7.320 -0.3399  0.2744 -0.1546
  135MOL   C15527223   7.542   5.243   7.293 -0.3240  0.3332 -0.1373
  135MOL   H15627224   0.012   5.033   7.544  0.1043 -0.6007 -0.4355
  135MOL   H15727225   0.098   5.053   7.397 -1.5741  0.0622 -1.0303
  135MOL   H15827226   7.634   5.110   7.494  0.1219 -1.4381  0.0825
  135MOL   H15927227   7.545   5.337   7.236 -0.8379  0.4147 -0.0305
  135MOL   H16027228   7.500   5.165   7.230  1.0191  0.8395 -1.6948
  135MOL   H16127229   7.478   5.266   7.378 -2.8073  1.0527 -2.1178
  135MOL   C16227230   7.652   4.966   7.326  0.8108  0.4110  0.2230
  135MOL   C16327231   7.655   4.833   7.406 -0.1470  0.0598 -0.5288
  135MOL   O16427232   7.787   4.797   7.413 -0.0383 -0.2871 -0.3383
  135MOL   C16527233   7.809   4.660   7.437  0.0635 -0.5198  0.5097
  135MOL   H16627234   7.726   4.962   7.246 -0.0137  0.2853 -0.5412
  135MOL   H16727235   7.553   4.971   7.280  1.2180 -2.8396 -1.0839
  135MOL   H16827236   7.614   4.754   7.342  0.5392 -0.7937  0.0723
  135MOL   H16927237   0.101   4.625   7.424 -0.9421 -3.4714  0.1750
  135MOL   H17027238   7.775   4.636   7.538  0.3727 -1.6374  0.3521
  135MOL   H17127239   7.749   4.606   7.364 -0.6987  1.9695 -0.7589
  135MOL   C17227240   7.577   4.842   7.542  0.2411  0.2891 -0.1188
  135MOL   C17327241   7.472   4.735   7.546  0.4612 -0.7648 -1.1635
  135MOL   O17427242   7.418   4.724   7.673 -0.2095 -0.0099  0.3476
  135MOL   C17527243   7.490   4.659   7.774 -0.1676  0.1287  0.0837
  135MOL   H17627244   7.516   4.932   7.555  0.0119  0.3564 -1.5948
  135MOL   H17727245   7.646   4.834   7.627 -0.7578 -0.9703  0.5927
  135MOL   H17827246   7.515   4.637   7.524  0.0449 -1.4448  0.8905
  135MOL   H17927247   7.556   4.731   0.012 -0.0099  1.1417 -1.6006
  135MOL   H18027248   7.428   4.616   0.042 -1.3716 -0.4554 -1.1652
  135MOL   H18127249   7.545   4.574   7.735 -1.5641  0.9589 -3.9596
  135MOL   C18227250   7.349   4.764   7.455 -0.0240 -0.2717  0.2920
  135MOL   C18327251   7.248   4.647   7.450 -0.1660 -0.4417 -0.0383
  135MOL   O18427252   7.149   4.675   7.357  0.6460  0.4839  0.3412
  135MOL   C18527253   7.053   4.775   7.402 -0.0693 -0.4324  0.7319
  135MOL   H18627254   7.371   4.799   7.354  0.7576 -0.7970  0.2813
  135MOL   H18727255   7.297   4.855   7.485 -1.4662 -1.6574  2.1871
  135MOL   H18827256   7.209   4.630   7.551  1.1554  2.3812  0.9928
  135MOL   H18927257   7.086   4.880   7.406 -1.1784 -0.0185 -0.6665
  135MOL   H19027258   6.973   4.770   7.329  0.0372 -0.7924  0.6386
  135MOL   H19127259   7.020   4.736   7.498 -1.1113  1.0199  0.9733
  135MOL   C19227260   7.308   4.514   7.397 -0.5056  0.2138 -0.4742
  135MOL   C19327261   7.211   4.397   7.401  0.0245 -0.2100 -0.2121
  135MOL   O19427262   7.154   4.396   7.527 -0.1887 -0.1207  0.5896
  135MOL   C19527263   7.044   4.308   7.535  0.0229 -0.1496  0.1416
  135MOL   H19627264   7.381   4.487   7.473  0.2296  2.2169 -0.4274
  135MOL   H19727265   7.357   4.523   7.300  0.8086 -0.3563  0.1277
  135MOL   H19827266   7.270   4.305   7.399 -1.3466 -1.1272  0.9718
  135MOL   H19927267   6.978   4.301   7.448 -0.7808 -2.1832  0.8762
  135MOL   H20027268   7.064   4.204   7.561 -3.7111 -0.6050  1.5437
  135MOL   H20127269   6.986   4.340   7.621 -1.3709 -1.9763 -0.0877
  135MOL   H20227270   7.153   4.394   7.308  1.5593  0.3660 -1.2200
  136MOL     C127271   5.763   4.104   0.703  0.0031 -0.1800 -0.4906
  136MOL     C227272   5.723   3.955   0.710 -0.4986  0.4322 -0.2260
  136MOL     O327273   5.575   3.946   0.718  0.2758 -0.4875  0.1284
  136MOL     C427274   5.520   3.986   0.837  0.1068 -0.2816 -0.0975
  136MOL     H527275   5.707   4.163   0.630 -0.1579  0.8767  0.4725
  136MOL     H627276   5.744   4.166   0.790 -2.0056  0.9760 -1.7207
  136MOL     H727277   5.784   3.912   0.790  0.1835  2.4731  0.3851
  136MOL     H827278   5.546   3.921   0.921 -1.9655 -0.7893  0.1865
  136MOL     H927279   5.550   4.088   0.858  0.5317 -0.4085 -0.0951
  136MOL    H1027280   5.413   3.969   0.824  0.0967 -0.2059 -0.1131
  136MOL    H1127281   5.871   4.116   0.702 -0.1530  1.3479 -0.9494
  136MOL    C1227282   5.777   3.879   0.587  0.1815  0.2941  0.6602
  136MOL    C1327283   5.738   3.725   0.590  0.1180 -0.2621 -0.5040
  136MOL    O1427284   5.803   3.664   0.483 -0.3089  0.6010  0.2694
  136MOL    C1527285   5.716   3.593   0.395  0.4298  0.0852 -0.1362
  136MOL    H1627286   5.881   3.904   0.568  0.5043  0.9558  3.1322
  136MOL    H1727287   5.731   3.922   0.498  1.3282  1.7225  0.7398
  136MOL    H1827288   5.630   3.724   0.576 -0.1400 -1.2600  1.3888
  136MOL    H1927289   5.678   3.502   0.442  0.8777 -0.4525 -0.8013
  136MOL    H2027290   5.630   3.644   0.353  0.3176 -0.7561 -0.9326
  136MOL    H2127291   5.772   3.551   0.311  0.6949 -1.2388  0.6938
  136MOL    C2227292   5.783   3.649   0.718 -0.2241  0.0728 -0.1645
  136MOL    C2327293   5.757   3.496   0.728  0.2605 -0.1252  0.2323
  136MOL    O2427294   5.811   3.454   0.851  0.0522 -0.1922 -0.0158
  136MOL    C2527295   5.952   3.429   0.867 -0.4494 -0.4009 -0.0987
  136MOL    H2627296   5.742   3.694   0.808  1.9190  0.1347  0.8280
  136MOL    H2727297   5.890   3.668   0.729  0.4291 -2.9016 -0.7839
  136MOL    H2827298   5.810   3.449   0.646  0.2624  0.2580  0.0121
  136MOL    H2927299   5.971   3.450   0.972  1.5746  2.4711 -0.9989
  136MOL    H3027300   5.972   3.328   0.830  1.8570  0.3596 -0.9935
  136MOL    H3127301   6.017   3.501   0.818 -0.5801  0.2378  0.6619
  136MOL    C3227302   5.609   3.454   0.726  0.3735  0.3058 -0.8228
  136MOL    C3327303   5.585   3.300   0.702  0.3350 -0.6512  0.5550
  136MOL    O3427304   5.451   3.266   0.732  0.1471 -0.0534  0.2415
  136MOL    C3527305   5.414   3.258   0.871 -0.1422 -0.8593  0.3929
  136MOL    H3627306   5.547   3.516   0.661 -2.3835 -0.6857  0.7721
  136MOL    H3727307   5.584   3.478   0.830  1.5749  1.0003 -0.6796
  136MOL    H3827308   5.658   3.261   0.772  0.4525 -1.2811  0.0902
  136MOL    H3927309   5.479   3.182   0.915  2.2484  0.0333 -1.4820
  136MOL    H4027310   5.429   3.351   0.926 -1.0818  1.4465 -3.0735
  136MOL    H4127311   5.307   3.242   0.887 -0.7970  1.0333 -1.7169
  136MOL    C4227312   5.599   3.229   0.565 -0.6145 -0.5162 -0.1293
  136MOL    C4327313   5.629   3.077   0.582 -0.8705  0.7176 -0.3968
  136MOL    O4427314   5.744   3.065   0.655 -0.2315  0.2965 -0.4981
  136MOL    C4527315   5.829   2.961   0.617  0.2650 -0.5674 -0.2512
  136MOL    H4627316   5.684   3.279   0.518 -0.6199  0.4150  0.8329
  136MOL    H4727317   5.506   3.237   0.509 -0.4930  1.6274 -0.0767
  136MOL    H4827318   5.642   3.037   0.482  1.1709 -3.2400  1.3354
  136MOL    H4927319   5.925   2.982   0.664  1.1122  1.0186 -2.6309
  136MOL    H5027320   5.788   2.868   0.657  0.5669  0.0379  1.5307
  136MOL    H5127321   5.853   2.966   0.511  0.6528  1.9077 -0.0915
  136MOL    C5227322   5.509   2.986   0.634  0.0917  0.0529 -0.4299
  136MOL    C5327323   5.372   3.000   0.552 -0.0133 -0.5770 -0.2195
  136MOL    O5427324   5.388   2.966   0.412 -0.1537 -0.1490 -0.3330
  136MOL    C5527325   5.425   2.835   0.373 -0.0685 -0.5141  0.9141
  136MOL    H5627326   5.492   2.996   0.741  2.6487 -1.1776  0.1253
  136MOL    H5727327   5.543   2.884   0.618 -2.8151 -0.9802 -0.1899
  136MOL    H5827328   5.344   3.104   0.565 -1.9998 -1.0489 -0.5174
  136MOL    H5927329   5.534   2.835   0.374 -0.0600  1.1240  0.9826
  136MOL    H6027330   5.384   2.761   0.442  2.7295 -1.1598  1.9352
  136MOL    H6127331   5.386   2.808   0.275  1.0667 -1.8976  0.8241
  136MOL    C6227332   5.260   2.916   0.616  0.5208 -0.0221  0.5228
  136MOL    C6327333   5.130   2.934   0.535 -0.5134  0.4038 -0.1630
  136MOL    O6427334   5.117   2.809   0.464 -0.3942 -0.2909 -0.2766
  136MOL    C6527335   5.090   2.842   0.330  0.1146  0.8694  0.2920
  136MOL    H6627336   5.248   2.947   0.720  1.5277 -0.2769  0.7189
  136MOL    H6727337   5.279   2.810   0.627 -0.1484 -0.1217  0.7531
  136MOL    H6827338   5.143   3.017   0.466  2.1018 -1.1178 -1.5775
  136MOL    H6927339   5.090   2.757   0.262  1.3465  0.6980  0.5077
  136MOL    H7027340   4.998   2.900   0.333 -0.2993  0.3357 -1.2736
  136MOL    H7127341   5.154   2.908   0.270 -1.4249  1.9261 -0.2411
  136MOL    C7227342   4.999   2.946   0.624  0.7572 -0.5762 -0.1428
  136MOL    C7327343   4.980   3.081   0.707  0.5747  0.0006  0.7587
  136MOL    O7427344   4.956   3.191   0.614  0.2929  1.0945 -0.0036
  136MOL    C7527345   5.046   3.293   0.613 -0.4079 -0.3120 -0.2643
  136MOL    H7627346   4.998   2.864   0.696  0.4580  0.2170  0.7693
  136MOL    H7727347   4.910   2.935   0.561  0.5206 -1.8763  0.4018
  136MOL    H7827348   5.067   3.105   0.767  0.4101  1.6073  0.3592
  136MOL    H7927349   5.072   3.349   0.703 -0.8291 -0.4800 -0.0355
  136MOL    H8027350   5.146   3.266   0.580  0.3001  0.1931  1.3954
  136MOL    H8127351   4.998   3.368   0.549 -0.2074  0.2086  0.1840
  136MOL    C8227352   4.857   3.072   0.805 -0.1797  0.3844 -0.2198
  136MOL    C8327353   4.824   3.203   0.884  0.1381  0.5136  0.7860
  136MOL    O8427354   4.706   3.188   0.962 -0.1586  0.2614  0.6335
  136MOL    C8527355   4.618   3.293   0.994 -0.5924  0.4855  0.7779
  136MOL    H8627356   4.872   2.989   0.874  1.8833  0.9778  0.0853
  136MOL    H8727357   4.769   3.055   0.743 -1.3466  1.9845  0.9694
  136MOL    H8827358   4.814   3.275   0.802  0.7255 -0.5007 -0.1858
  136MOL    H8927359   4.588   3.344   0.902  2.8405  0.5769 -0.3639
  136MOL    H9027360   4.538   3.255   1.058 -0.4898 -1.7228 -0.3818
  136MOL    H9127361   4.671   3.376   1.041  1.8767 -0.7912  0.2746
  136MOL    C9227362   4.933   3.239   0.981 -0.2381 -0.9367 -0.4034
  136MOL    C9327363   4.984   3.132   1.083 -0.1029 -0.5013  0.0644
  136MOL    O9427364   5.113   3.173   1.118  0.3692 -0.2338 -0.1409
  136MOL    C9527365   5.198   3.086   1.193 -0.1448  0.1680  0.1245
  136MOL    H9627366   4.898   3.324   1.039 -1.0648 -1.5536  0.0122
  136MOL    H9727367   5.009   3.282   0.916 -1.7051  0.1856 -1.4084
  136MOL    H9827368   5.009   3.035   1.038 -3.5881 -1.5764  0.2739
  136MOL    H9927369   5.290   3.140   1.214 -0.3242  0.2841  0.6280
  136MOL   H10027370   5.143   3.044   1.278  1.1618  2.7038  2.3090
  136MOL   H10127371   5.221   3.009   1.120  1.9480  1.0155 -0.1181
  136MOL   C10227372   4.883   3.094   1.201  0.3582 -0.5793  0.8712
  136MOL   C10327373   4.863   3.194   1.316  0.8505  0.3570  0.3893
  136MOL   O10427374   4.806   3.320   1.285 -0.3338 -0.1940 -0.5103
  136MOL   C10527375   4.868   3.429   1.349 -0.7844 -0.0529  0.9494
  136MOL   H10627376   4.911   2.996   1.240  1.5748 -0.0242  1.3940
  136MOL   H10727377   4.785   3.081   1.154 -1.1652 -0.4002  3.8771
  136MOL   H10827378   4.952   3.213   1.376 -1.1937  2.6350  2.8319
  136MOL   H10927379   4.878   3.425   1.458  1.5921 -3.4705  0.6645
  136MOL   H11027380   4.972   3.427   1.319 -0.9015 -0.7000  0.5895
  136MOL   H11127381   4.827   3.526   1.319  0.8023 -0.1420 -1.6057
  136MOL   C11227382   4.769   3.135   1.423 -0.7187  0.2188 -0.0219
  136MOL   C11327383   4.826   3.014   1.505 -0.0113  1.0956  0.0368
  136MOL   O11427384   4.933   3.066   1.576  0.4289  0.0499  0.1018
  136MOL   C11527385   5.039   2.979   1.589 -0.2845 -0.3270  0.4978
  136MOL   H11627386   4.672   3.109   1.380 -0.6339 -0.7232  0.3261
  136MOL   H11727387   4.750   3.203   1.505 -1.2797  0.4954 -0.3784
  136MOL   H11827388   4.866   2.939   1.436  0.2368  0.7084  0.5960
  136MOL   H11927389   5.130   3.036   1.605 -0.4014  0.2081 -0.6871
  136MOL   H12027390   5.015   2.902   1.662 -1.1571  0.0606  0.6208
  136MOL   H12127391   5.064   2.932   1.494  0.9135  1.9744 -0.3741
  136MOL   C12227392   4.726   2.945   1.599 -0.7035 -0.3993 -0.0097
  136MOL   C12327393   4.614   2.860   1.532 -0.1988 -0.0137 -0.2712
  136MOL   O12427394   4.682   2.772   1.437 -0.1156  0.3050 -0.0393
  136MOL   C12527395   4.630   2.781   1.307  0.3209 -0.3446 -0.5119
  136MOL   H12627396   4.686   3.016   1.670 -0.3578  0.5717 -0.7714
  136MOL   H12727397   4.789   2.879   1.660  2.4439  3.7179  1.4425
  136MOL   H12827398   4.548   2.918   1.467 -1.1608 -1.2279 -0.3907
  136MOL   H12927399   4.635   2.883   1.268 -0.0624 -0.8568 -1.9405
  136MOL   H13027400   4.693   2.710   1.254  1.6297  0.1806  0.3301
  136MOL   H13127401   4.525   2.751   1.312 -0.0716  1.3208  3.4571
  136MOL   C13227402   4.533   2.772   1.628  0.4602  0.0522  0.0325
  136MOL   C13327403   4.433   2.833   1.726  0.0112  0.4264 -0.1032
  136MOL   O13427404   4.323   2.889   1.659  0.0278 -0.3670  0.2328
  136MOL   C13527405   4.338   3.029   1.627  0.2662 -0.5697  0.1285
  136MOL   H13627406   4.606   2.710   1.681  0.7858  0.7040  0.3586
  136MOL   H13727407   4.479   2.702   1.565  2.9983 -0.3707 -1.7402
  136MOL   H13827408   4.497   2.902   1.780  1.3699 -0.4659 -0.5474
  136MOL   H13927409   4.442   3.051   1.604  0.3100 -1.8609 -0.9747
  136MOL   H14027410   4.272   3.061   1.546  1.2963  1.1782 -0.0508
  136MOL   H14127411   4.304   3.083   1.716  0.2402  0.6612 -0.6066
  136MOL   C14227412   4.375   2.736   1.831  0.5080 -0.1555  0.4611
  136MOL   C14327413   4.323   2.783   1.966 -0.5284  0.0443  0.4209
  136MOL   O14427414   4.411   2.875   2.029  0.2368  0.0696  0.2112
  136MOL   C14527415   4.527   2.819   2.095  0.7350 -0.4946  0.4577
  136MOL   H14627416   4.443   2.652   1.843 -0.3650 -0.8008  0.9456
  136MOL   H14727417   4.299   2.684   1.772  0.7870  0.7244 -0.6851
  136MOL   H14827418   4.325   2.690   2.022 -1.6770 -0.2617 -0.0275
  136MOL   H14927419   4.501   2.744   2.170  0.8428 -0.2174  0.7765
  136MOL   H15027420   4.600   2.775   2.028  0.8403 -1.6663  1.3251
  136MOL   H15127421   4.576   2.897   2.153  1.2001  0.5606 -1.3093
  136MOL   C15227422   4.187   2.846   1.947  0.3367  0.1508 -0.5339
  136MOL   C15327423   4.076   2.762   1.872  0.0163  0.2289  0.0123
  136MOL   O15427424   4.078   2.640   1.936  0.2518 -0.8542  0.2600
  136MOL   C15527425   4.040   2.543   1.841  0.7301 -0.2519  0.6780
  136MOL   H15627426   4.202   2.936   1.888  1.2597  0.1153 -0.3648
  136MOL   H15727427   4.139   2.867   2.043  0.6619 -3.2082  0.4455
  136MOL   H15827428   4.103   2.750   1.767 -1.7433 -0.6529 -0.3677
  136MOL   H15927429   4.009   2.454   1.896 -2.4285 -0.5037 -1.3682
  136MOL   H16027430   3.959   2.576   1.776  0.9795 -2.0713 -0.5735
  136MOL   H16127431   4.123   2.517   1.776  0.7951 -0.8664  1.0091
  136MOL   C16227432   3.934   2.823   1.893 -0.8552 -0.5860  0.1408
  136MOL   C16327433   3.889   2.956   1.814  0.5677 -0.1658  0.4959
  136MOL   O16427434   3.950   3.064   1.887  0.2299  0.2428  0.5663
  136MOL   C16527435   3.882   3.186   1.886  0.4434  0.2417  0.1563
  136MOL   H16627436   3.929   2.846   2.000  0.6397  2.2388 -0.3660
  136MOL   H16727437   3.865   2.738   1.890 -0.7214 -0.6828 -0.1764
  136MOL   H16827438   3.781   2.960   1.833 -0.3603 -3.3917 -3.4826
  136MOL   H16927439   3.782   3.185   1.929  1.2041 -1.0466  1.9297
  136MOL   H17027440   3.942   3.248   1.953  1.3396  0.3837 -0.7636
  136MOL   H17127441   3.893   3.230   1.787 -3.8125  2.5910  0.6203
  136MOL   C17227442   3.930   2.955   1.670  0.2070 -0.1199 -0.5894
  136MOL   C17327443   3.845   2.866   1.576 -0.4595 -0.3720  0.2135
  136MOL   O17427444   3.706   2.912   1.589  0.0121  0.4787 -0.1880
  136MOL   C17527445   3.614   2.811   1.613  0.2837  0.4411 -0.4262
  136MOL   H17627446   4.030   2.911   1.659  0.2094 -0.7114  1.5296
  136MOL   H17727447   3.921   3.055   1.627  0.7116  0.3172  0.3134
  136MOL   H17827448   3.851   2.760   1.601 -2.4457  0.2231  3.4775
  136MOL   H17927449   3.517   2.858   1.597  0.2025 -0.7284 -3.7355
  136MOL   H18027450   3.617   2.731   1.539 -3.3805  2.1673 -2.5607
  136MOL   H18127451   3.618   2.771   1.714 -0.3423  0.1370 -0.5215
  136MOL   C18227452   3.870   2.886   1.431  0.1465  0.8245  0.8085
  136MOL   C18327453   4.024   2.870   1.390  0.3466 -0.7058 -0.6734
  136MOL   O18427454   4.052   2.732   1.405 -0.3512 -0.2839 -0.0464
  136MOL   C18527455   4.179   2.703   1.464  0.7340  0.1524  0.1065
  136MOL   H18627456   3.822   2.979   1.399  1.2853  1.2812  0.3782
  136MOL   H18727457   3.815   2.804   1.385  0.4606 -0.0513  1.9722
  136MOL   H18827458   4.083   2.942   1.447 -1.0148  0.0995 -0.2401
  136MOL   H18927459   4.180   2.726   1.570  2.1427  2.9189 -0.4578
  136MOL   H19027460   4.202   2.596   1.460  0.3448  0.0474  0.7052
  136MOL   H19127461   4.261   2.755   1.415  0.0033  1.9975  0.8287
  136MOL   C19227462   4.024   2.892   1.241 -0.0898 -0.0224 -0.7071
  136MOL   C19327463   4.161   2.923   1.180  0.5090 -0.5427 -0.1919
  136MOL   O19427464   4.228   3.024   1.250  0.0183  0.4153  0.3891
  136MOL   C19527465   4.310   3.105   1.166  0.0236  0.2567 -0.2086
  136MOL   H19627466   3.969   2.984   1.219  1.0938  1.2306  1.4513
  136MOL   H19727467   3.965   2.817   1.189 -1.7710  0.4412  0.4883
  136MOL   H19827468   4.159   2.946   1.073  4.3885  0.8571 -0.0739
  136MOL   H19927469   4.249   3.182   1.118  0.3226  0.6987  0.1239
  136MOL   H20027470   4.396   3.135   1.226  0.2937 -2.0978  0.6197
  136MOL   H20127471   4.371   3.050   1.094 -1.5362 -0.3195 -1.1041
  136MOL   H20227472   4.218   2.833   1.201  1.0775  0.2730  1.8916
  137MOL     C127473   0.419   0.033   2.185  0.4497  0.1496 -0.3735
  137MOL     C227474   0.284   0.005   2.120  0.1718 -1.0793  0.2497
  137MOL     O327475   0.306   0.014   1.979 -0.1199 -0.0868 -0.5501
  137MOL     C427476   0.284   0.145   1.933  0.0025 -0.5965  0.3265
  137MOL     H527477   0.441   0.140   2.188  2.0081 -0.1854  1.0937
  137MOL     H627478   0.412   0.010   2.291 -0.5916 -0.0627 -0.4865
  137MOL     H727479   0.218   0.084   2.157  1.0710 -0.3206  0.2525
  137MOL     H827480   0.184   0.187   1.948  1.1934  1.9769  1.4568
  137MOL     H927481   0.352   0.220   1.974  1.0266 -1.1934 -0.2754
  137MOL    H1027482   0.300   0.150   1.825 -1.4791  0.6610  0.1439
  137MOL    H1127483   0.499   7.789   2.135  2.8179  1.0131  2.3190
  137MOL    C1227484   0.228   7.680   2.149  0.1516  0.1421 -0.2508
  137MOL    C1327485   0.173   7.658   2.296  0.3640  0.0239 -0.4223
  137MOL    O1427486   0.036   7.688   2.302 -0.2133  0.7315  0.6764
  137MOL    C1527487   0.004   0.017   2.293 -0.7969 -0.4845 -0.0676
  137MOL    H1627488   0.305   7.605   2.133  1.3325  0.9948  1.2851
  137MOL    H1727489   0.139   7.664   2.087 -0.0524  1.0258 -0.1920
  137MOL    H1827490   0.236   7.717   2.362  1.9453 -1.0382 -0.9479
  137MOL    H1927491   7.713   0.028   2.333  0.1087 -0.9351  2.4484
  137MOL    H2027492   0.073   0.089   2.338  0.3623 -0.5937 -1.6286
  137MOL    H2127493   7.798   0.046   2.189  2.5320 -1.1242 -0.8328
  137MOL    C2227494   0.178   7.506   2.345  0.4198  0.3798 -0.0152
  137MOL    C2327495   0.155   7.492   2.495 -0.7486 -0.7515 -0.5024
  137MOL    O2427496   0.164   7.355   2.516 -0.1620  0.2420 -0.3044
  137MOL    C2527497   0.066   7.299   2.616 -0.0238 -0.9452  0.0918
  137MOL    H2627498   0.266   7.453   2.309 -0.7914 -0.9048 -1.1928
  137MOL    H2727499   0.098   7.450   2.295  0.8752  0.8889 -1.3351
  137MOL    H2827500   0.052   7.521   2.511 -0.5270  0.5209 -1.3474
  137MOL    H2927501   7.777   7.306   2.572  0.3808 -0.1937 -0.7262
  137MOL    H3027502   0.070   7.192   2.637  1.4786 -1.0546 -0.6910
  137MOL    H3127503   0.065   7.354   2.710 -0.2115  0.5722 -0.7967
  137MOL    C3227504   0.246   7.573   2.597 -0.3033  0.6557  0.0857
  137MOL    C3327505   0.401   7.551   2.583 -0.1236  0.0113 -0.3368
  137MOL    O3427506   0.449   7.590   2.453  0.1815 -1.1369  0.0217
  137MOL    C3527507   0.570   7.536   2.406 -0.0798 -0.2001 -0.2618
  137MOL    H3627508   0.222   7.560   2.703  1.6441 -1.5560  0.3044
  137MOL    H3727509   0.225   7.680   2.588 -1.5326  0.5854  1.7803
  137MOL    H3827510   0.421   7.444   2.585 -1.4680 -0.3420 -3.1092
  137MOL    H3927511   0.572   7.547   2.298  1.7298 -0.1706 -0.2322
  137MOL    H4027512   0.647   7.603   2.445 -0.4706 -1.6319  3.1378
  137MOL    H4127513   0.599   7.435   2.432  0.9550  0.0829 -0.3085
  137MOL    C4227514   0.482   7.633   2.699 -0.4152 -0.0624 -0.1609
  137MOL    C4327515   0.597   7.556   2.762 -0.1778 -0.1057  0.5197
  137MOL    O4427516   0.689   7.662   2.808 -0.1747 -0.0086  0.2470
  137MOL    C4527517   0.812   7.658   2.740 -0.2069  0.2793  0.4482
  137MOL    H4627518   0.412   7.651   2.780 -1.0721  0.8174 -0.9124
  137MOL    H4727519   0.506   7.736   2.673  0.1374 -0.1993 -0.2217
  137MOL    H4827520   0.649   7.492   2.691  1.1994  1.1762  0.3541
  137MOL    H4927521   0.785   7.698   2.642 -1.1949 -0.1835  0.5245
  137MOL    H5027522   0.887   7.728   2.777 -0.8456  1.6945 -0.9102
  137MOL    H5127523   0.853   7.557   2.739 -0.6327  0.1062 -0.7069
  137MOL    C5227524   0.554   7.467   2.883  0.5213  0.5472  0.8098
  137MOL    C5327525   0.464   7.347   2.858  0.3125 -0.5029 -0.6195
  137MOL    O5427526   0.550   7.263   2.781 -0.4070  0.4743  0.4825
  137MOL    C5527527   0.477   7.157   2.712  0.3247  0.1360  0.4532
  137MOL    H5627528   0.506   7.538   2.951  0.7929  1.2140  0.3022
  137MOL    H5727529   0.642   7.439   2.941 -0.1083 -1.0771  1.0042
  137MOL    H5827530   0.379   7.377   2.797 -0.5596 -0.8848  0.4045
  137MOL    H5927531   0.555   7.098   2.664  1.0943  0.8905  0.7580
  137MOL    H6027532   0.427   7.084   2.775  0.8644 -2.5846 -2.1757
  137MOL    H6127533   0.413   7.204   2.638 -1.2114 -0.0872  1.6197
  137MOL    C6227534   0.416   7.275   2.986  0.3405  0.0938  0.4418
  137MOL    C6327535   0.329   7.343   3.088 -0.0786 -0.8518  0.3113
  137MOL    O6427536   0.210   7.381   3.013  0.1325  0.1988 -0.1284
  137MOL    C6527537   0.186   7.520   3.003 -0.4462 -0.1480  0.1428
  137MOL    H6627538   0.511   7.247   3.032  1.5771  0.5277 -1.8049
  137MOL    H6727539   0.368   7.178   2.975 -0.8524  0.7234  0.0122
  137MOL    H6827540   0.374   7.432   3.131 -1.9447 -0.1520  0.8740
  137MOL    H6927541   0.092   7.531   2.948 -1.7475 -2.4161  1.8528
  137MOL    H7027542   0.188   7.575   3.097 -2.4760 -0.6781  0.5153
  137MOL    H7127543   0.265   7.568   2.944 -0.5709 -1.0266 -0.7499
  137MOL    C7227544   0.293   7.254   3.203  0.2163  0.3129 -0.5584
  137MOL    C7327545   0.204   7.322   3.307  0.2309  0.1326  0.4191
  137MOL    O7427546   0.127   7.221   3.366  0.7697  0.6728  0.3173
  137MOL    C7527547   7.805   7.223   3.316  0.0918 -0.1483 -0.6677
  137MOL    H7627548   0.380   7.211   3.252  1.5809  2.3877 -1.0936
  137MOL    H7727549   0.228   7.175   3.166 -1.3638  1.0529  0.5359
  137MOL    H7827550   0.147   7.406   3.266  0.0509 -1.3025 -2.3675
  137MOL    H7927551   7.752   7.312   3.349  0.2640 -0.4237  0.3960
  137MOL    H8027552   7.807   7.207   3.209 -0.6109 -3.4176 -0.2485
  137MOL    H8127553   7.740   7.150   3.365  1.0594 -1.1435 -0.8388
  137MOL    C8227554   0.288   7.387   3.416  0.4132 -0.3165 -0.3261
  137MOL    C8327555   0.210   7.436   3.533 -0.2443  0.1043 -0.8983
  137MOL    O8427556   0.302   7.476   3.642  0.5822  0.1827 -0.4793
  137MOL    C8527557   0.352   7.372   3.729 -0.2512  0.4686 -0.4474
  137MOL    H8627558   0.338   7.471   3.368  1.0418 -0.7191 -0.3815
  137MOL    H8727559   0.364   7.324   3.463 -2.4493 -1.3511  3.1007
  137MOL    H8827560   0.146   7.360   3.579  0.1309  1.5265  2.0701
  137MOL    H8927561   0.429   7.310   3.681 -1.4014 -1.0764 -0.3257
  137MOL    H9027562   0.382   7.410   3.826 -1.0520 -0.2231  0.0756
  137MOL    H9127563   0.273   7.302   3.755  1.5442 -1.7853 -0.8757
  137MOL    C9227564   0.124   7.563   3.497 -0.0211  0.3696 -0.7139
  137MOL    C9327565   0.053   7.628   3.623  0.0104  0.4812 -0.3230
  137MOL    O9427566   7.758   7.713   3.577  0.0120  0.2551  0.5074
  137MOL    C9527567   7.719   0.014   3.645 -0.0187  0.2493  0.2798
  137MOL    H9627568   0.044   7.523   3.434  0.2037 -0.2892 -0.5933
  137MOL    H9727569   0.177   7.646   3.452  0.2674  1.1406  0.9846
  137MOL    H9827570   0.134   7.690   3.662 -0.7800  0.8599  0.7674
  137MOL    H9927571   7.671   7.797   3.739 -0.3278 -1.0391 -0.2447
  137MOL   H10027572   7.794   0.090   3.666  0.3460 -0.3306  1.0796
  137MOL   H10127573   7.638   0.057   3.586  1.5364  1.0472 -1.3218
  137MOL   C10227574   7.808   7.525   3.728 -0.4745 -0.6394 -0.2906
  137MOL   C10327575   7.690   7.422   3.693 -0.2363 -0.2952 -0.1073
  137MOL   O10427576   7.721   7.294   3.762  0.3235  0.0900  0.4102
  137MOL   C10527577   7.700   7.181   3.675 -0.2021  0.4747 -0.5910
  137MOL   H10627578   7.773   7.589   3.808  0.1856  0.6795 -1.0346
  137MOL   H10727579   0.075   7.471   3.782  0.7633  0.2269 -1.1951
  137MOL   H10827580   7.694   7.412   3.584 -0.4354  0.6361 -0.1982
  137MOL   H10927581   7.699   7.087   3.731  1.2389  1.1287  0.5585
  137MOL   H11027582   7.601   7.204   3.635  0.0677  1.8556 -0.4907
  137MOL   H11127583   7.773   7.175   3.595 -0.7427 -0.0785 -1.0437
  137MOL   C11227584   7.545   7.460   3.737 -1.2691  0.3389 -0.7709
  137MOL   C11327585   7.473   7.533   3.623 -0.3433  0.4094 -0.3337
  137MOL   O11427586   7.455   7.432   3.523  0.0234  0.4493  0.6577
  137MOL   C11527587   7.470   7.492   3.394  0.2416 -0.0275  0.2958
  137MOL   H11627588   7.536   7.505   3.836 -3.8874 -2.2314  0.1951
  137MOL   H11727589   7.493   7.366   3.754 -0.0694 -0.3272 -0.7259
  137MOL   H11827590   7.529   7.618   3.584 -0.6308  0.6860 -0.1440
  137MOL   H11927591   7.574   7.521   3.379  0.8013 -0.9442  2.2191
  137MOL   H12027592   7.441   7.420   3.317  2.8871 -0.9880  0.1373
  137MOL   H12127593   7.418   7.584   3.368  2.0660  1.0992  0.5125
  137MOL   C12227594   7.330   7.576   3.679  0.4864  0.4611  0.1758
  137MOL   C12327595   7.243   7.676   3.592  1.0048 -0.2067  0.5201
  137MOL   O12427596   7.108   7.671   3.640 -0.2547 -0.9414  0.1202
  137MOL   C12527597   7.036   7.563   3.584 -0.4622  0.4964 -0.8993
  137MOL   H12627598   7.354   7.625   3.773  1.9891 -2.8696  1.6147
  137MOL   H12727599   7.267   7.490   3.702  2.8189 -1.6569 -1.0705
  137MOL   H12827600   7.247   7.644   3.488  1.4297  2.1934 -0.2548
  137MOL   H12927601   7.089   7.469   3.599 -3.3069 -0.8177  1.1442
  137MOL   H13027602   6.939   7.557   3.632 -0.9497 -0.2570 -1.9775
  137MOL   H13127603   7.027   7.586   3.478 -1.1379  1.2820 -0.6780
  137MOL   C13227604   7.285   0.011   3.577  0.6280  0.3503 -0.4137
  137MOL   C13327605   7.290   0.092   3.712 -0.2294 -0.2190  0.7331
  137MOL   O13427606   7.409   0.053   3.781 -0.3071 -0.3905 -0.1986
  137MOL   C13527607   7.424   0.111   3.904 -0.4887 -0.7768 -0.2884
  137MOL   H13627608   7.226   0.054   3.496  1.8075  2.7336 -0.0550
  137MOL   H13727609   7.377   0.006   3.518  0.3554 -0.1114 -0.8048
  137MOL   H13827610   7.203   0.068   3.773 -1.1360  1.2798  0.0703
  137MOL   H13927611   7.330   0.121   3.959 -0.2327  0.1218 -0.0107
  137MOL   H14027612   7.494   0.054   3.964  0.0145 -0.0201 -0.1414
  137MOL   H14127613   7.458   0.214   3.890 -3.0300  0.1867  0.2138
  137MOL   C14227614   7.294   0.244   3.685  0.1650  0.7960 -0.5085
  137MOL   C14327615   7.394   0.299   3.580  0.1580  0.1099 -0.6812
  137MOL   O14427616   7.318   0.350   3.472  0.0794  0.3873 -0.0370
  137MOL   C14527617   7.373   0.327   3.340 -0.1226  0.3378 -0.6325
  137MOL   H14627618   7.303   0.302   3.777  0.6312 -1.7238  1.0577
  137MOL   H14727619   7.196   0.275   3.647  0.2081 -0.1963 -1.4456
  137MOL   H14827620   7.465   0.221   3.550  0.9379  0.8262 -0.7272
  137MOL   H14927621   7.463   0.382   3.315 -0.1563 -0.3538 -2.3869
  137MOL   H15027622   7.401   0.222   3.333  0.3824  0.4234  0.0994
  137MOL   H15127623   7.308   0.356   3.256 -1.3200 -0.2511  0.0712
  137MOL   C15227624   7.482   0.414   3.641 -0.4403  0.1494  0.0428
  137MOL   C15327625   7.606   0.458   3.554 -0.9197 -0.1265  0.1005
  137MOL   O15427626   7.676   0.542   3.640 -1.2776 -0.3015 -0.6306
  137MOL   C15527627   7.640   0.674   3.639 -0.6921  0.8190 -0.2471
  137MOL   H15627628   7.520   0.388   3.740 -1.2805 -2.2562 -0.2260
  137MOL   H15727629   7.412   0.496   3.656  2.9495  2.6986  2.4492
  137MOL   H15827630   7.567   0.505   3.464  0.3620 -0.1353 -0.4669
  137MOL   H15927631   7.682   0.722   3.551 -1.9459  0.9255 -0.7986
  137MOL   H16027632   7.532   0.685   3.636 -0.4868  2.7365 -2.3788
  137MOL   H16127633   7.671   0.731   3.726 -1.4455 -1.4399  1.5595
  137MOL   C16227634   7.709   0.359   3.491  0.1106 -0.1992  0.4425
  137MOL   C16327635   0.022   0.426   3.423 -0.6977  0.1267 -0.2343
  137MOL   O16427636   0.126   0.330   3.405 -0.1601 -0.0904 -0.1705
  137MOL   C16527637   0.209   0.297   3.517 -0.4641 -0.2354 -0.1118
  137MOL   H16627638   7.671   0.281   3.424 -0.0189  1.4852 -1.4744
  137MOL   H16727639   7.740   0.301   3.578  1.8219 -2.2252 -1.4410
  137MOL   H16827640   0.061   0.503   3.490  0.4885 -0.4657 -0.2215
  137MOL   H16927641   0.288   0.223   3.503  1.1712  0.9503  2.3850
  137MOL   H17027642   0.268   0.383   3.548  0.2230 -1.2856  1.6067
  137MOL   H17127643   0.148   0.257   3.599 -0.6179 -1.7700 -0.9668
  137MOL   C17227644   7.810   0.473   3.270 -0.5218  0.5248 -0.2897
  137MOL   C17327645   0.105   0.570   3.196  0.3036  0.1521  0.2805
  137MOL   O17427646   0.045   0.612   3.072 -0.2964 -0.3087  0.4819
  137MOL   C17527647   0.058   0.522   2.967 -0.0464 -0.5088 -0.7502
  137MOL   H17627648   7.720   0.533   3.261 -0.6117  0.3069 -0.9357
  137MOL   H17727649   7.786   0.379   3.219 -1.6676  0.7700 -0.2198
  137MOL   H17827650   0.206   0.532   3.187  1.0989  2.1066  0.7705
  137MOL   H17927651   0.047   0.567   2.868  0.4350 -0.5418 -0.8195
  137MOL   H18027652   0.140   0.450   2.980  0.0568  0.0139  1.8353
  137MOL   H18127653   7.773   0.470   2.970  0.3456 -1.3062 -1.5551
  137MOL   C18227654   0.118   0.711   3.273 -0.8146  0.3813 -0.0415
  137MOL   C18327655   0.227   0.810   3.228  0.3057 -0.2105  0.2289
  137MOL   O18427656   0.354   0.768   3.292 -0.1274  0.2313  0.2697
  137MOL   C18527657   0.412   0.856   3.390  0.0541  0.7369 -0.3045
  137MOL   H18627658   0.117   0.692   3.380  0.6198  0.1226 -0.0640
  137MOL   H18727659   0.020   0.758   3.263 -1.2228 -0.7283 -1.5798
  137MOL   H18827660   0.198   0.911   3.255  2.3618 -0.2395  2.7673
  137MOL   H18927661   0.516   0.825   3.390 -0.2222 -0.2181 -0.4390
  137MOL   H19027662   0.410   0.955   3.345 -2.5530  0.3063 -1.2632
  137MOL   H19127663   0.372   0.852   3.491  2.9198  0.7149  0.8588
  137MOL   C19227664   0.241   0.816   3.070 -0.0469  0.0568  0.2184
  137MOL   C19327665   0.337   0.927   3.025  0.0968  0.2770  0.7325
  137MOL   O19427666   0.315   0.942   2.883  0.1043  0.3831  0.7358
  137MOL   C19527667   0.411   1.032   2.833  0.2230  0.2112 -0.0677
  137MOL   H19627668   0.141   0.830   3.030 -0.0673  0.5166  0.4259
  137MOL   H19727669   0.284   0.722   3.036 -0.6368 -0.6896  1.5424
  137MOL   H19827670   0.435   0.883   3.036 -0.5421 -1.3969 -0.1046
  137MOL   H19927671   0.487   0.975   2.782 -3.5619 -0.7300 -5.0061
  137MOL   H20027672   0.366   1.098   2.759  1.6784 -0.2183 -1.3606
  137MOL   H20127673   0.456   1.093   2.912  0.2528  0.3283 -0.1750
  137MOL   H20227674   0.331   1.021   3.080 -0.4770  0.3124  0.6139
  138MOL     C127675   7.038   0.652   6.280 -0.2702  0.6547  0.2082
  138MOL     C227676   7.135   0.560   6.200 -0.4247  0.8842  0.1890
  138MOL     O327677   7.236   0.639   6.145 -0.0169  0.5336  0.2451
  138MOL     C427678   7.187   0.720   6.042  0.2291 -0.2802  0.0062
  138MOL     H527679   6.984   0.722   6.216  0.5279  0.9580 -0.1444
  138MOL     H627680   6.960   0.599   6.334  0.1747  0.2407  0.4500
  138MOL     H727681   7.080   0.516   6.117  2.0406  0.3785 -1.2333
  138MOL     H827682   7.128   0.805   6.078 -1.1910 -1.2958  0.1393
  138MOL     H927683   7.275   0.769   6.001  0.1572  0.9891  1.3129
  138MOL    H1027684   7.146   0.661   5.960 -0.5203 -0.2130  0.3253
  138MOL    H1127685   7.090   0.709   6.356 -0.7383  1.1623  0.1454
  138MOL    C1227686   7.214   0.461   6.286  0.5272  0.5564 -0.2526
  138MOL    C1327687   7.131   0.331   6.312  0.5600  0.1504  0.0058
  138MOL    O1427688   7.185   0.242   6.219 -0.9411  0.2471  0.0563
  138MOL    C1527689   7.120   0.247   6.091 -0.0595  0.7310  0.0090
  138MOL    H1627690   7.252   0.512   6.374 -0.2243  3.1488 -1.3961
  138MOL    H1727691   7.304   0.429   6.233  0.7937 -0.4420  0.7776
  138MOL    H1827692   7.024   0.349   6.300  0.5001 -0.6798 -0.7829
  138MOL    H1927693   7.013   0.231   6.104 -0.2046  1.2794 -0.4918
  138MOL    H2027694   7.151   0.328   6.026 -1.6621 -0.0358 -1.7488
  138MOL    H2127695   7.146   0.156   6.038  1.0569  0.3236  1.2191
  138MOL    C2227696   7.156   0.272   6.456  0.0979 -0.4895  0.2453
  138MOL    C2327697   7.072   0.151   6.491 -0.0627  0.1211 -0.7373
  138MOL    O2427698   6.937   0.195   6.515 -0.6552 -0.0414  0.5501
  138MOL    C2527699   6.894   0.233   6.640  0.1279  0.0635  0.8715
  138MOL    H2627700   7.131   0.351   6.527 -0.5776  1.3402 -1.9564
  138MOL    H2727701   7.261   0.252   6.475  0.6252  0.5667 -1.4154
  138MOL    H2827702   7.115   0.115   6.584 -3.3560 -0.6267  0.5766
  138MOL    H2927703   6.853   0.149   6.697 -2.3358  0.5628 -0.1036
  138MOL    H3027704   6.971   0.281   6.700  2.1163 -0.4610 -1.1858
  138MOL    H3127705   6.811   0.300   6.619  0.0565 -0.8335 -1.8447
  138MOL    C3227706   7.069   0.028   6.397  0.6447 -0.2825  0.7770
  138MOL    C3327707   6.989   7.713   6.445  0.5672  0.2562 -0.1505
  138MOL    O3427708   6.938   7.639   6.332 -0.1991 -0.1051 -0.3080
  138MOL    C3527709   7.033   7.577   6.249 -0.2934 -0.3713 -0.2226
  138MOL    H3627710   7.168   0.009   6.356 -0.3695 -0.0467 -1.9025
  138MOL    H3727711   7.012   0.060   6.310  1.2856  1.9886  1.1619
  138MOL    H3827712   6.896   7.752   6.487  0.1497 -0.7381 -0.1234
  138MOL    H3927713   7.117   7.546   6.311  0.2726  1.8741  0.1762
  138MOL    H4027714   6.984   7.495   6.196 -0.0649  0.2810 -1.4478
  138MOL    H4127715   7.066   7.638   6.165 -0.8195 -2.3314 -1.9147
  138MOL    C4227716   7.062   7.617   6.549 -0.0236  0.0655 -1.1993
  138MOL    C4327717   6.967   7.509   6.605 -0.6833  0.2133  0.8887
  138MOL    O4427718   6.991   7.392   6.532 -0.1873  0.4654  0.0289
  138MOL    C4527719   6.885   7.336   6.459 -0.2275  0.4916  0.5146
  138MOL    H4627720   7.091   7.664   6.642 -0.5948  2.0850 -2.0031
  138MOL    H4727721   7.150   7.566   6.509 -0.8868 -1.7132 -0.8972
  138MOL    H4827722   6.863   7.539   6.596 -0.5619  0.0446 -1.4561
  138MOL    H4927723   6.890   7.249   6.393  1.8405  0.0911  1.1703
  138MOL    H5027724   6.819   7.313   6.543 -0.9360 -0.1772 -0.2139
  138MOL    H5127725   6.832   7.411   6.400  1.1216  0.1832 -1.1290
  138MOL    C5227726   6.991   7.468   6.754  0.3717  0.1954 -0.4241
  138MOL    C5327727   6.930   7.575   6.847  0.3042  0.1923  0.2808
  138MOL    O5427728   6.792   7.573   6.826 -0.2228 -0.1195 -0.4576
  138MOL    C5527729   6.733   7.707   6.845  0.6345  0.2238  0.7948
  138MOL    H5627730   7.098   7.464   6.771  0.2102  1.3790  0.9683
  138MOL    H5727731   6.957   7.367   6.780  0.9856  1.0635  4.2097
  138MOL    H5827732   6.971   7.671   6.816 -0.0070 -0.2472 -1.5517
  138MOL    H5927733   6.625   7.698   6.831  0.7004 -0.0338  0.4325
  138MOL    H6027734   6.760   7.752   6.941 -0.2074  2.8856 -0.1681
  138MOL    H6127735   6.760   7.773   6.762 -0.8552  0.2924  0.3473
  138MOL    C6227736   6.958   7.559   6.998 -0.5206 -0.0183 -0.3543
  138MOL    C6327737   6.934   7.412   7.055 -0.1182 -0.2463  0.0585
  138MOL    O6427738   6.994   7.391   7.186 -0.3388  0.0976 -0.0694
  138MOL    C6527739   7.131   7.420   7.187 -0.2800  0.4537  0.8728
  138MOL    H6627740   6.900   7.635   7.051 -0.4180  0.6200 -1.1553
  138MOL    H6727741   7.064   7.580   7.012 -0.4644 -1.1435  1.1103
  138MOL    H6827742   6.979   7.340   6.987 -0.5820 -0.2848 -0.2104
  138MOL    H6927743   7.162   7.522   7.210  0.3186  0.0850  1.7272
  138MOL    H7027744   7.162   7.356   7.269  0.1600  1.4171  1.4657
  138MOL    H7127745   7.171   7.391   7.089  0.9654  0.4257  1.3790
  138MOL    C7227746   6.783   7.390   7.081  0.6227 -0.2197 -0.4007
  138MOL    C7327747   6.727   7.261   7.028 -0.3057 -0.1672 -0.2711
  138MOL    O7427748   6.678   7.193   7.146  0.5579 -0.3932  0.3521
  138MOL    C7527749   6.752   7.087   7.184  0.0128 -0.1277  0.5451
  138MOL    H7627750   6.736   7.483   7.050 -0.3180 -0.1646  1.1713
  138MOL    H7727751   6.772   7.383   7.189 -3.0813  0.7348 -0.6437
  138MOL    H7827752   6.811   7.214   6.977  0.0744 -0.6450  0.7866
  138MOL    H7927753   6.765   7.019   7.100  2.0582  0.9711 -0.0615
  138MOL    H8027754   6.851   7.118   7.218  1.0718  0.2466 -2.6904
  138MOL    H8127755   6.701   7.038   7.267 -0.2511 -0.1798  0.3529
  138MOL    C8227756   6.605   7.287   6.930  0.7141  0.3335  0.1356
  138MOL    C8327757   6.571   7.151   6.858 -0.6959  0.6961  0.7749
  138MOL    O8427758   6.438   7.165   6.824 -0.5764 -0.6338  0.7093
  138MOL    C8527759   6.350   7.108   6.918 -0.8138  0.3359  1.1663
  138MOL    H8627760   6.615   7.368   6.858 -0.8510 -1.0024 -1.6518
  138MOL    H8727761   6.529   7.320   7.000  0.7065  0.8874 -0.1286
  138MOL    H8827762   6.593   7.065   6.920  1.9385  0.7477 -0.0350
  138MOL    H8927763   6.348   7.163   7.012 -0.9666 -0.1962  1.4770
  138MOL    H9027764   6.248   7.104   6.880 -0.3130 -2.7595 -0.0217
  138MOL    H9127765   6.383   7.006   6.939 -1.3232 -0.1630 -0.4481
  138MOL    C9227766   6.651   7.137   6.726 -0.9834  0.2315  1.1988
  138MOL    C9327767   6.618   7.015   6.639  0.3790 -0.1778 -0.3168
  138MOL    O9427768   6.673   7.045   6.515 -0.5868 -0.3902 -0.1044
  138MOL    C9527769   6.606   6.963   6.415  0.4306 -0.2329 -0.3513
  138MOL    H9627770   6.759   7.128   6.736 -0.8299 -3.5830 -2.7256
  138MOL    H9727771   6.630   7.228   6.669  0.6131 -2.1058 -3.2864
  138MOL    H9827772   6.510   7.002   6.644 -0.1235  3.3085 -0.7270
  138MOL    H9927773   6.663   6.950   6.323  1.3307 -0.5231  0.2420
  138MOL   H10027774   6.573   6.865   6.452 -1.6423  0.0922 -1.3053
  138MOL   H10127775   6.516   7.017   6.386  1.0205  1.5276  1.0053
  138MOL   C10227776   6.683   6.883   6.693  0.4693  0.2201 -0.1366
  138MOL   C10327777   6.832   6.886   6.745 -0.3942  0.2689  0.3722
  138MOL   O10427778   6.864   6.762   6.812 -0.0879 -0.3111 -0.0300
  138MOL   C10527779   6.836   6.651   6.730 -0.0143 -0.5022 -1.0853
  138MOL   H10627780   6.652   6.802   6.627 -1.3283  0.7894 -0.0004
  138MOL   H10727781   6.625   6.856   6.781  1.3021 -0.2071  0.2931
  138MOL   H10827782   6.832   6.953   6.831  0.5215  0.3476  0.3120
  138MOL   H10927783   6.732   6.621   6.742 -0.0489  0.5274  1.6370
  138MOL   H11027784   6.849   6.661   6.623  0.5518 -0.4419 -1.0134
  138MOL   H11127785   6.904   6.573   6.762 -2.0322 -1.3370  1.3622
  138MOL   C11227786   6.943   6.919   6.640 -0.2083  0.2436  0.6402
  138MOL   C11327787   7.083   6.943   6.709  0.4883 -0.2216  0.0532
  138MOL   O11427788   7.191   6.937   6.625  0.1816 -0.4572 -0.1205
  138MOL   C11527789   7.245   6.807   6.608  0.5778  0.3272 -0.1516
  138MOL   H11627790   6.920   7.008   6.581  1.7991  1.1928  1.2437
  138MOL   H11727791   6.958   6.828   6.582  0.6771  0.5411  0.4039
  138MOL   H11827792   7.103   6.876   6.793  0.5666  1.8660  1.7674
  138MOL   H11927793   7.328   6.784   6.674  0.4787 -2.0269 -0.8126
  138MOL   H12027794   7.176   6.723   6.612 -0.8541  1.4366 -0.8835
  138MOL   H12127795   7.284   6.808   6.506  0.8955  2.4077 -0.0327
  138MOL   C12227796   7.109   7.084   6.777 -0.2548 -0.6617 -0.5455
  138MOL   C12327797   7.230   7.086   6.869 -0.2418 -0.0563  0.1875
  138MOL   O12427798   7.248   7.224   6.893  0.0234  0.3724  0.3137
  138MOL   C12527799   7.366   7.271   6.827 -0.5463  0.2941  0.2167
  138MOL   H12627800   7.016   7.090   6.833 -2.1067  2.9788 -3.7353
  138MOL   H12727801   7.102   7.161   6.699 -0.4221 -0.5416 -0.4126
  138MOL   H12827802   7.312   7.041   6.813 -2.3452 -2.0218 -1.4051
  138MOL   H12927803   7.374   7.379   6.838  0.8363  0.2903 -0.5694
  138MOL   H13027804   7.452   7.229   6.880  0.8305  2.5360 -0.1679
  138MOL   H13127805   7.370   7.240   6.722  1.1566 -2.8301  1.1172
  138MOL   C13227806   7.202   7.007   6.999  0.4847 -0.0795  0.1428
  138MOL   C13327807   7.327   7.007   7.090 -0.1275 -0.3710 -0.0116
  138MOL   O13427808   7.312   7.137   7.158 -0.3900 -0.0478  0.4553
  138MOL   C13527809   7.431   7.168   7.237  0.4146 -0.1679  0.4437
  138MOL   H13627810   7.170   6.904   6.980 -0.4942 -0.1347  1.9825
  138MOL   H13727811   7.122   7.060   7.051  2.1127  0.1508  2.5084
  138MOL   H13827812   7.420   7.011   7.032  0.5860 -0.4957  1.1124
  138MOL   H13927813   7.428   7.277   7.244  0.4083 -0.1260 -0.2227
  138MOL   H14027814   7.430   7.128   7.339 -0.5572 -1.3114  0.0010
  138MOL   H14127815   7.524   7.144   7.185  0.7800 -1.4569  1.6640
  138MOL   C14227816   7.334   6.890   7.191  0.4918 -0.1266 -0.3149
  138MOL   C14327817   7.344   6.747   7.132  0.2941 -0.8626 -0.6794
  138MOL   O14427818   7.487   6.727   7.093 -0.1868  0.1473  0.4575
  138MOL   C14527819   7.511   6.669   6.968 -0.5306 -1.0380 -0.8912
  138MOL   H14627820   7.244   6.902   7.251  1.4268 -1.0279  1.2993
  138MOL   H14727821   7.422   6.901   7.254 -0.5601 -2.3577  1.5944
  138MOL   H14827822   7.280   6.743   7.044 -1.8510 -0.8106  0.8518
  138MOL   H14927823   7.479   6.730   6.883 -2.9299  0.1437  0.8156
  138MOL   H15027824   7.615   6.638   6.959 -0.7466 -1.5652 -1.6530
  138MOL   H15127825   7.445   6.581   6.964 -0.0584 -1.3959 -0.8351
  138MOL   C15227826   7.302   6.631   7.228  0.1471  0.1430  0.5644
  138MOL   C15327827   7.150   6.604   7.211 -0.3947  0.7113 -1.0031
  138MOL   O15427828   7.123   6.464   7.214  0.1531 -0.2410 -0.9203
  138MOL   C15527829   7.169   6.386   7.107  0.6014  0.0824  0.3831
  138MOL   H15627830   7.353   6.650   7.322  2.6133  0.7548 -0.8366
  138MOL   H15727831   7.363   6.547   7.194 -1.1986 -1.2289  1.4897
  138MOL   H15827832   7.108   6.650   7.122  1.2108  0.7297 -1.7559
  138MOL   H15927833   7.247   6.318   7.142 -1.1888 -1.3155  1.7505
  138MOL   H16027834   7.086   6.333   7.061  2.2260 -0.8502 -1.5885
  138MOL   H16127835   7.209   6.447   7.026  0.5333 -0.2292  0.1151
  138MOL   C16227836   7.079   6.672   7.335  0.2114  0.5327 -0.2251
  138MOL   C16327837   6.927   6.651   7.351  0.0494 -0.3066  0.2061
  138MOL   O16427838   6.907   6.711   7.478 -0.0934 -0.0487 -0.4006
  138MOL   C16527839   6.891   6.621   7.587 -0.1905 -0.4154 -0.0993
  138MOL   H16627840   7.109   6.776   7.344 -0.1664  0.4452  2.2796
  138MOL   H16727841   7.124   6.634   7.427  1.3988  2.3200 -0.0379
  138MOL   H16827842   6.906   6.545   7.353  1.4821 -0.5926  0.6803
  138MOL   H16927843   6.813   6.547   7.570 -0.8609  0.2399  0.1076
  138MOL   H17027844   6.993   6.583   7.597 -0.2056 -0.4451 -0.0575
  138MOL   H17127845   6.870   6.684   7.674  2.9326  0.9104 -0.2466
  138MOL   C17227846   6.833   6.730   7.244  0.3898 -0.4477 -0.2352
  138MOL   C17327847   6.700   6.666   7.221 -0.8863  0.6702 -0.1141
  138MOL   O17427848   6.703   6.533   7.167 -0.3026 -0.3714 -0.3321
  138MOL   C17527849   6.790   6.508   7.059 -0.4150  0.0211 -0.4594
  138MOL   H17627850   6.884   6.741   7.148  1.5391  1.7748  0.5690
  138MOL   H17727851   6.818   6.835   7.269 -0.5848 -0.9549  1.4050
  138MOL   H17827852   6.647   6.724   7.145 -1.2085  0.2563 -0.2044
  138MOL   H17927853   6.896   6.508   7.085 -0.7283 -1.0595  0.8393
  138MOL   H18027854   6.766   6.411   7.015 -2.3717  0.3824 -0.2252
  138MOL   H18127855   6.773   6.576   6.975 -0.2421 -1.8301 -2.0187
  138MOL   C18227856   6.623   6.656   7.355  1.0139  1.0843  0.2261
  138MOL   C18327857   6.469   6.644   7.341  0.3096 -0.2199 -0.7538
  138MOL   O18427858   6.421   6.576   7.457  0.3162 -0.5496 -0.1948
  138MOL   C18527859   6.360   6.453   7.429  0.2558 -0.1078 -0.2557
  138MOL   H18627860   6.642   6.747   7.413 -0.7728  1.2749  0.5520
  138MOL   H18727861   6.663   6.571   7.411 -2.1818  0.7281  2.1289
  138MOL   H18827862   6.448   6.593   7.247  0.1174 -2.1091  0.2837
  138MOL   H18927863   6.419   6.370   7.389  0.6124 -0.5935  1.2273
  138MOL   H19027864   6.335   6.411   7.527 -0.7731  1.3350  0.1140
  138MOL   H19127865   6.269   6.467   7.370 -0.0530  0.5092  0.3578
  138MOL   C19227866   6.381   6.769   7.332 -0.8010  0.3741 -0.3099
  138MOL   C19327867   6.391   6.859   7.207 -0.2998 -0.4982 -0.5557
  138MOL   O19427868   6.295   6.965   7.211  0.1870 -0.1764 -0.0739
  138MOL   C19527869   6.337   7.073   7.296  0.2588 -0.1478  0.6763
  138MOL   H19627870   6.401   6.827   7.422 -0.8628  0.1323 -0.1418
  138MOL   H19727871   6.274   6.751   7.340 -0.6354 -1.3205 -1.5698
  138MOL   H19827872   6.360   6.801   7.120 -2.9360  1.4077 -0.9410
  138MOL   H19927873   6.417   7.118   7.237 -0.3704 -0.3902 -0.3778
  138MOL   H20027874   6.262   7.148   7.321 -0.4390 -1.3489  2.2454
  138MOL   H20127875   6.372   7.035   7.392  0.1211 -1.0346  0.3841
  138MOL   H20227876   6.494   6.887   7.183  0.3099 -2.8321 -0.7915
  139MOL     C127877   3.246   5.814   2.303  0.9133 -0.5870 -0.7061
  139MOL     C227878   3.177   5.717   2.209 -0.3620 -0.8015 -0.5319
  139MOL     O327879   3.052   5.770   2.169 -0.5625 -0.0580  0.0110
  139MOL     C427880   2.933   5.734   2.237  0.7648 -0.7235  0.4870
  139MOL     H527881   3.188   5.821   2.394 -2.1197 -3.2047 -2.3309
  139MOL     H627882   3.345   5.775   2.328  1.1135 -1.1570 -2.2745
  139MOL     H727883   3.166   5.630   2.274 -0.1829  0.0770  0.6772
  139MOL     H827884   2.952   5.735   2.344 -1.8148 -2.5877  1.0098
  139MOL     H927885   2.850   5.804   2.219  2.1735  1.6852  2.9447
  139MOL    H1027886   2.899   5.631   2.225 -0.8482 -0.1584 -0.0403
  139MOL    H1127887   3.270   5.906   2.249 -1.2984 -0.5299 -1.6383
  139MOL    C1227888   3.256   5.688   2.084  0.0215  0.2445 -0.5403
  139MOL    C1327889   3.378   5.591   2.100 -0.0487  0.3034 -0.5987
  139MOL    O1427890   3.334   5.470   2.169 -0.0383 -0.2052  0.1842
  139MOL    C1527891   3.434   5.408   2.246 -0.8608  0.3210  0.3127
  139MOL    H1627892   3.280   5.774   2.022 -1.8670  0.1517 -1.4249
  139MOL    H1727893   3.182   5.633   2.026 -1.4228  0.9941  0.5615
  139MOL    H1827894   3.444   5.642   2.171  0.7660 -0.0473 -1.0927
  139MOL    H1927895   3.405   5.306   2.270 -1.4234  0.3928 -0.0555
  139MOL    H2027896   3.537   5.414   2.210 -0.7104  0.2141  0.7185
  139MOL    H2127897   3.429   5.461   2.341  0.9993  0.2338  0.4854
  139MOL    C2227898   3.453   5.570   1.967  0.2144  0.0464 -0.2467
  139MOL    C2327899   3.537   5.701   1.940  0.3781 -0.4603  0.8623
  139MOL    O2427900   3.628   5.729   2.043 -0.2577 -0.1026 -0.6455
  139MOL    C2527901   3.638   5.861   2.081  0.5820  0.1610  0.0572
  139MOL    H2627902   3.377   5.538   1.896 -1.4879  0.7150  1.2241
  139MOL    H2727903   3.518   5.484   1.985  1.1412  0.3473 -2.0481
  139MOL    H2827904   3.475   5.790   1.928 -0.4148 -0.8717  1.9049
  139MOL    H2927905   3.545   5.899   2.122 -0.8892 -1.0743 -2.0755
  139MOL    H3027906   3.714   5.872   2.159 -1.3689  0.3160  1.9973
  139MOL    H3127907   3.654   5.941   2.008 -1.8917  1.8452  1.3166
  139MOL    C3227908   3.622   5.693   1.815 -0.1372  0.4717  0.7777
  139MOL    C3327909   3.529   5.689   1.686 -1.0183 -0.0469  0.2318
  139MOL    O3427910   3.445   5.800   1.684  0.4871  0.1504 -0.1381
  139MOL    C3527911   3.320   5.785   1.612 -0.3197  0.6937 -0.0029
  139MOL    H3627912   3.698   5.615   1.822 -0.7490 -0.2379 -0.4169
  139MOL    H3727913   3.671   5.790   1.815  1.6186 -0.3872 -0.4574
  139MOL    H3827914   3.464   5.601   1.689 -2.0504  0.5914 -1.8121
  139MOL    H3927915   3.259   5.701   1.647  0.8346  0.2853  1.0779
  139MOL    H4027916   3.263   5.876   1.633 -0.7764 -0.1899  2.8451
  139MOL    H4127917   3.343   5.785   1.506  2.8162 -1.8357  0.6001
  139MOL    C4227918   3.611   5.687   1.547 -0.4107 -0.0093  0.0287
  139MOL    C4327919   3.682   5.549   1.521  0.0949  0.2624  0.2799
  139MOL    O4427920   3.588   5.444   1.542  0.1520 -0.7606  0.1696
  139MOL    C4527921   3.654   5.336   1.612  0.3366 -0.7770 -1.0185
  139MOL    H4627922   3.683   5.768   1.560 -1.6501  0.9667  0.9986
  139MOL    H4727923   3.550   5.704   1.458 -0.4034 -0.7773 -0.1257
  139MOL    H4827924   3.772   5.553   1.582  0.1563  0.8899  0.1548
  139MOL    H4927925   3.713   5.275   1.543  2.9684 -0.2577  0.7196
  139MOL    H5027926   3.712   5.361   1.700 -0.1693 -1.3013 -0.5341
  139MOL    H5127927   3.568   5.280   1.648 -1.4008 -0.1662 -3.9721
  139MOL    C5227928   3.723   5.542   1.371  0.3964 -0.0382 -0.2356
  139MOL    C5327929   3.804   5.669   1.325  0.4266 -0.1670  0.7359
  139MOL    O5427930   3.925   5.666   1.400  0.2930  0.1628  0.4075
  139MOL    C5527931   3.965   5.796   1.445  0.1839 -0.2133 -1.1484
  139MOL    H5627932   3.637   5.521   1.308  0.6005  1.4633 -1.0484
  139MOL    H5727933   3.795   5.463   1.354  1.5582  1.3602 -1.9650
  139MOL    H5827934   3.747   5.759   1.347  0.1081 -0.5258  1.4055
  139MOL    H5927935   4.063   5.801   1.494 -1.5441  1.8853  2.2857
  139MOL    H6027936   3.980   5.864   1.361 -0.0349 -0.0504 -1.0567
  139MOL    H6127937   3.890   5.851   1.502  0.4587  0.4558 -1.4264
  139MOL    C6227938   3.839   5.659   1.176  0.2375  0.1514 -0.3351
  139MOL    C6327939   3.711   5.677   1.087  0.3346  0.1530 -0.5402
  139MOL    O6427940   3.657   5.806   1.115 -0.0407 -0.6497  0.4802
  139MOL    C6527941   3.523   5.823   1.084  0.1912 -0.7373 -0.0439
  139MOL    H6627942   3.894   5.565   1.169  1.8201  0.8410  2.2632
  139MOL    H6727943   3.915   5.737   1.163 -0.1528  0.7084  0.6935
  139MOL    H6827944   3.641   5.595   1.109 -1.4657  2.0352  0.9321
  139MOL    H6927945   3.491   5.779   0.990  1.3237 -0.2760 -0.6542
  139MOL    H7027946   3.470   5.766   1.161 -0.1146  0.1034  0.3683
  139MOL    H7127947   3.479   5.921   1.101 -0.8035 -1.6311  2.9287
  139MOL    C7227948   3.757   5.665   0.936 -0.0591 -0.6552 -0.1762
  139MOL    C7327949   3.791   5.530   0.865  0.2438 -0.1229  0.2690
  139MOL    O7427950   3.700   5.428   0.907 -0.2470  0.4271 -0.2027
  139MOL    C7527951   3.748   5.309   0.948  0.0314  0.0258 -0.1256
  139MOL    H7627952   3.848   5.724   0.927 -0.7802  0.3562 -0.8938
  139MOL    H7727953   3.683   5.714   0.873  0.8432  0.5922 -0.2845
  139MOL    H7827954   3.893   5.505   0.893  0.3320 -1.6114 -1.3202
  139MOL    H7927955   3.828   5.265   0.889 -1.0913 -3.8051  1.1194
  139MOL    H8027956   3.776   5.311   1.054 -2.0436 -1.1228  0.4750
  139MOL    H8127957   3.675   5.229   0.950  0.8582 -0.7215  0.3280
  139MOL    C8227958   3.788   5.549   0.714 -0.7312  0.4876  0.3532
  139MOL    C8327959   3.897   5.652   0.667  0.3121 -0.5418 -0.1325
  139MOL    O8427960   4.016   5.599   0.706  0.1255  0.5819 -0.3709
  139MOL    C8527961   4.133   5.674   0.693 -0.2449 -0.2416 -0.4289
  139MOL    H8627962   3.687   5.573   0.681 -1.7527 -2.2964  1.3005
  139MOL    H8727963   3.801   5.452   0.666 -2.1954 -0.3739  1.6630
  139MOL    H8827964   3.871   5.744   0.719  2.2448 -1.2462  2.1756
  139MOL    H8927965   4.117   5.765   0.750  0.4303  1.0661 -2.2608
  139MOL    H9027966   4.209   5.621   0.751 -1.5190 -0.3465  1.1723
  139MOL    H9127967   4.163   5.711   0.594 -1.0002  1.4519 -0.0423
  139MOL    C9227968   3.883   5.671   0.510  0.3362 -0.3558 -0.6175
  139MOL    C9327969   3.755   5.745   0.460  1.2039 -0.3216  0.4335
  139MOL    O9427970   3.803   5.881   0.444  0.0415 -0.0809  0.1610
  139MOL    C9527971   3.781   5.970   0.556  0.1414 -0.1255  0.1243
  139MOL    H9627972   3.901   5.578   0.457  0.1618  0.6171 -2.4428
  139MOL    H9727973   3.964   5.730   0.467 -0.2496  1.8209  1.1609
  139MOL    H9827974   3.676   5.749   0.536  0.4986  0.1196 -0.3164
  139MOL    H9927975   3.684   6.018   0.544 -0.4257 -1.7188 -2.0866
  139MOL   H10027976   3.796   5.924   0.654 -1.1029 -0.5471  0.1198
  139MOL   H10127977   3.862   6.042   0.544  0.4063 -0.4105  0.1828
  139MOL   C10227978   3.697   5.689   0.326  0.4451 -0.1065 -0.0990
  139MOL   C10327979   3.561   5.750   0.293  0.0030  0.2682 -0.1093
  139MOL   O10427980   3.474   5.734   0.403 -0.0359 -0.1602 -0.2268
  139MOL   C10527981   3.394   5.620   0.395  0.0246 -0.8302  0.0090
  139MOL   H10627982   3.673   5.584   0.345 -1.5037  0.4112  0.4129
  139MOL   H10727983   3.764   5.702   0.242  0.4606 -1.5039 -0.3163
  139MOL   H10827984   3.531   5.695   0.204  0.8884  0.6724 -0.6647
  139MOL   H10927985   3.434   5.519   0.391 -1.3887 -1.4922  1.8283
  139MOL   H11027986   3.332   5.615   0.485  0.3682  1.2902  0.3958
  139MOL   H11127987   3.331   5.632   0.306 -1.1014  1.1419  1.0308
  139MOL   C11227988   3.551   5.904   0.253 -0.1037 -0.0188  0.6389
  139MOL   C11327989   3.640   5.936   0.128 -0.1060 -0.4043  0.3909
  139MOL   O11427990   3.603   5.855   0.013  0.3046 -0.2625  0.2081
  139MOL   C11527991   3.469   5.866   7.777  0.4766  0.3115 -0.8046
  139MOL   H11627992   3.585   5.958   0.342 -1.1763 -0.2395  1.1947
  139MOL   H11727993   3.450   5.941   0.231  0.5192  1.6418  0.5263
  139MOL   H11827994   3.743   5.906   0.141  0.6094  0.9874 -1.7561
  139MOL   H11927995   3.406   5.803   0.029  0.9063  1.1404  0.4981
  139MOL   H12027996   3.416   5.961   7.787  0.2639 -0.0222  1.6100
  139MOL   H12127997   3.470   5.833   7.674 -1.4508 -0.7006 -0.5322
  139MOL   C12227998   3.648   6.088   0.092  0.0161 -0.0173 -0.1803
  139MOL   C12327999   3.729   6.177   0.191  0.6843  0.2482  0.0418
  139MOL   O12428000   3.869   6.169   0.158 -0.6171 -0.0513  0.5826
  139MOL   C12528001   3.961   6.164   0.271 -0.4064 -0.0007  0.3239
  139MOL   H12628002   3.549   6.132   0.099  0.1329  0.3698 -0.8849
  139MOL   H12728003   3.695   6.094   7.804  0.9203 -0.8751  0.1858
  139MOL   H12828004   3.717   6.138   0.292 -0.2975  1.1022  0.2627
  139MOL   H12928005   3.938   6.064   0.309 -0.1509 -1.0963 -2.2639
  139MOL   H13028006   4.063   6.169   0.233 -0.4199 -1.3135  0.0847
  139MOL   H13128007   3.936   6.250   0.332 -0.0535  0.4273 -0.1249
  139MOL   C13228008   3.702   6.329   0.194  0.1106  0.3244 -1.1710
  139MOL   C13328009   3.558   6.369   0.241 -0.0098 -0.5027 -0.1268
  139MOL   O13428010   3.515   6.286   0.351 -0.2572  0.4132 -0.4712
  139MOL   C13528011   3.368   6.271   0.359 -1.0639  0.5254  0.4777
  139MOL   H13628012   3.721   6.362   0.093 -0.7533  1.3362 -1.0080
  139MOL   H13728013   3.777   6.386   0.248 -1.1639 -1.2570  2.5079
  139MOL   H13828014   3.485   6.356   0.161  0.2943  1.6069 -0.7856
  139MOL   H13928015   3.317   6.367   0.366 -2.3130 -0.1419  0.8589
  139MOL   H14028016   3.340   6.226   0.264 -1.2688 -0.6988  1.0916
  139MOL   H14128017   3.332   6.203   0.437  1.3071  1.5554  2.5097
  139MOL   C14228018   3.551   6.519   0.280  0.4882  0.0079 -0.2438
  139MOL   C14328019   3.640   6.561   0.415  1.1145  0.5623  0.7522
  139MOL   O14428020   3.680   6.693   0.379  0.3171 -0.1386  0.1109
  139MOL   C14528021   3.749   6.772   0.472  0.1309 -0.0005  0.0366
  139MOL   H14628022   3.446   6.545   0.295  0.4605 -0.1695 -0.1266
  139MOL   H14728023   3.579   6.568   0.187  0.2371 -0.7444 -0.7240
  139MOL   H14828024   3.736   6.513   0.437  0.3960  0.2074  3.2410
  139MOL   H14928025   3.771   6.870   0.430 -0.6575 -0.4025 -1.3460
  139MOL   H15028026   3.694   6.806   0.560  2.0425 -0.8750  1.6099
  139MOL   H15128027   3.840   6.718   0.496 -2.0179 -2.6060  2.8437
  139MOL   C15228028   3.554   6.542   0.535 -0.0016  0.7917 -0.6018
  139MOL   C15328029   3.623   6.530   0.667 -0.3071  0.5363  0.3943
  139MOL   O15428030   3.529   6.542   0.781 -0.2676  0.4027 -0.4746
  139MOL   C15528031   3.490   6.674   0.818 -0.0409 -0.2508 -0.0862
  139MOL   H15628032   3.490   6.455   0.523  1.6322 -0.5829  0.4567
  139MOL   H15728033   3.493   6.631   0.552 -0.6633  0.1497  0.4623
  139MOL   H15828034   3.713   6.591   0.669 -2.3752  3.7375  0.9559
  139MOL   H15928035   3.585   6.724   0.836  0.4106 -1.3651  0.6733
  139MOL   H16028036   3.425   6.725   0.747 -0.0576 -1.4027 -0.9206
  139MOL   H16128037   3.433   6.657   0.910 -2.8475  0.3665 -1.6535
  139MOL   C16228038   3.671   6.381   0.680  0.2462 -0.4777 -0.6043
  139MOL   C16328039   3.717   6.343   0.827  0.5071 -0.0855  0.3122
  139MOL   O16428040   3.748   6.207   0.822 -1.1857  0.6378  0.1947
  139MOL   C16528041   3.689   6.121   0.926 -0.2378  0.0211 -0.6351
  139MOL   H16628042   3.752   6.362   0.610  1.3264  2.3776 -0.1972
  139MOL   H16728043   3.595   6.304   0.665  1.2875 -1.5819 -0.2793
  139MOL   H16828044   3.642   6.371   0.901  0.8142 -0.0071  0.5929
  139MOL   H16928045   3.732   6.021   0.914  2.1801  0.6039  2.5539
  139MOL   H17028046   3.692   6.162   1.027 -0.0950  0.1341 -0.6858
  139MOL   H17128047   3.583   6.112   0.902 -0.8168 -0.0183  1.8621
  139MOL   C17228048   3.853   6.416   0.862  0.7450  0.1268  0.1907
  139MOL   C17328049   3.872   6.424   1.017  0.6367  0.2244 -0.1541
  139MOL   O17428050   3.996   6.464   1.065  0.2598 -0.1160  0.4259
  139MOL   C17528051   4.105   6.384   1.030  0.2181  0.1582  0.5678
  139MOL   H17628052   3.861   6.519   0.828 -0.1884  0.2958  0.4758
  139MOL   H17728053   3.938   6.361   0.822  0.5529 -1.0868  1.4357
  139MOL   H17828054   3.858   6.320   1.046 -0.3675 -0.4260 -2.7845
  139MOL   H17928055   4.124   6.381   0.923 -1.7052 -2.0496  0.2677
  139MOL   H18028056   4.195   6.421   1.079 -0.0639 -1.4123  2.3137
  139MOL   H18128057   4.089   6.281   1.059 -1.4263  0.5325  1.0660
  139MOL   C18228058   3.776   6.518   1.088  0.9171  0.5778 -0.2694
  139MOL   C18328059   3.797   6.552   1.236  0.3079  0.8594  0.8715
  139MOL   O18428060   3.698   6.635   1.284  0.4823  0.2975 -0.4435
  139MOL   C18528061   3.724   6.769   1.259  0.3427  0.7501  0.8135
  139MOL   H18628062   3.670   6.495   1.078  1.0408 -0.6691  1.1945
  139MOL   H18728063   3.786   6.614   1.037  0.9530 -0.7479 -2.8380
  139MOL   H18828064   3.891   6.598   1.265  1.4673 -1.0788  0.3103
  139MOL   H18928065   3.634   6.825   1.285  0.3364 -0.0906  2.6001
  139MOL   H19028066   3.805   6.810   1.319  2.0359 -0.5371 -0.5041
  139MOL   H19128067   3.755   6.778   1.154 -0.0217  0.9316  0.7207
  139MOL   C19228068   3.798   6.425   1.329  0.8140 -0.0178 -0.2495
  139MOL   C19328069   3.794   6.461   1.479  0.2469 -0.1248  0.0597
  139MOL   O19428070   3.800   6.341   1.549 -0.1934 -0.2229  0.1420
  139MOL   C19528071   3.683   6.320   1.616 -0.2264  0.0016 -0.1271
  139MOL   H19628072   3.894   6.374   1.324  1.3856  0.6749  2.6637
  139MOL   H19728073   3.729   6.341   1.315 -0.1022  0.4353  1.3530
  139MOL   H19828074   3.712   6.526   1.511  1.5793  0.7273  1.8436
  139MOL   H19928075   3.604   6.318   1.540 -1.6883 -0.3202  1.3686
  139MOL   H20028076   3.687   6.236   1.685 -0.4362 -1.2615 -1.6089
  139MOL   H20128077   3.658   6.404   1.681 -0.5563  0.2745 -0.6008
  139MOL   H20228078   3.885   6.516   1.502  0.4896 -1.2835  1.9080
  140MOL     C128079   3.131   4.213   6.555  0.6528  0.7064 -0.4050
  140MOL     C228080   3.107   4.063   6.567  0.5841  0.0381 -0.0795
  140MOL     O328081   3.017   4.024   6.677  0.2355  0.1798 -0.0616
  140MOL     C428082   3.055   4.067   6.811  0.0271 -0.1385  0.5801
  140MOL     H528083   3.196   4.256   6.632 -1.9364  1.6603  1.2975
  140MOL     H628084   3.174   4.244   6.460 -1.6228  2.4026 -0.9052
  140MOL     H728085   3.202   4.018   6.595 -0.9057 -1.9942  1.9223
  140MOL     H828086   3.057   4.175   6.826 -0.8551 -0.0818  0.3043
  140MOL     H928087   2.999   4.027   6.895 -0.6138  0.2300  0.3356
  140MOL    H1028088   3.158   4.033   6.824 -0.2858 -2.1678 -1.8170
  140MOL    H1128089   3.031   4.253   6.548  1.2619  2.3004 -0.0996
  140MOL    C1228090   3.059   4.005   6.432  0.2422 -0.3311 -0.2146
  140MOL    C1328091   3.171   3.968   6.330  0.9459  0.2226  0.5849
  140MOL    O1428092   3.254   3.881   6.410 -0.5442 -0.0789  0.3617
  140MOL    C1528093   3.385   3.886   6.365  0.7471 -0.0731 -0.4415
  140MOL    H1628094   2.985   4.076   6.397  3.2729  0.9691 -4.4720
  140MOL    H1728095   3.004   3.913   6.453  0.6070 -0.2754  1.0491
  140MOL    H1828096   3.226   4.057   6.299 -0.6350  0.7871 -0.7129
  140MOL    H1928097   3.439   3.971   6.407 -0.4477  0.1466  0.6652
  140MOL    H2028098   3.438   3.797   6.400 -1.8570 -0.9603  1.3763
  140MOL    H2128099   3.391   3.888   6.257  1.9685 -3.3850 -0.4854
  140MOL    C2228100   3.116   3.896   6.205 -0.4701 -0.1422 -0.0933
  140MOL    C2328101   3.005   3.979   6.130 -0.0280 -0.1348 -0.4326
  140MOL    O2428102   3.071   4.095   6.088  0.3772 -0.1756  0.3586
  140MOL    C2528103   2.988   4.215   6.079 -0.4010 -0.0323  0.1194
  140MOL    H2628104   3.075   3.799   6.235  0.6049 -0.3811  0.6261
  140MOL    H2728105   3.190   3.873   6.129  0.5407  1.1956  0.4606
  140MOL    H2828106   2.925   4.014   6.195  1.7884  0.1676  1.7410
  140MOL    H2928107   3.045   4.302   6.047  0.5164 -0.8950 -0.6244
  140MOL    H3028108   2.899   4.210   6.016 -0.7296 -0.2217  0.5933
  140MOL    H3128109   2.962   4.230   6.184  0.3879  2.9128 -0.0430
  140MOL    C3228110   2.945   3.912   6.010  0.4397  0.1819  0.1034
  140MOL    C3328111   2.880   3.766   6.027  0.3718  0.0846  0.3411
  140MOL    O3428112   2.794   3.782   6.139  0.4469 -0.4098  0.1758
  140MOL    C3528113   2.725   3.665   6.177  0.0213  0.2903 -0.4441
  140MOL    H3628114   3.021   3.889   5.936  0.6480 -1.5353  0.8348
  140MOL    H3728115   2.877   3.979   5.958  0.9357  0.7076  0.1264
  140MOL    H3828116   2.952   3.687   6.049 -1.2261 -1.7108 -0.7239
  140MOL    H3928117   2.669   3.692   6.267  1.1475  1.3333 -0.0540
  140MOL    H4028118   2.650   3.634   6.104  0.6890 -2.2453 -0.0715
  140MOL    H4128119   2.787   3.586   6.218 -1.3139 -0.6260 -0.1541
  140MOL    C4228120   2.800   3.715   5.907 -0.1277 -0.4001  0.4205
  140MOL    C4328121   2.871   3.691   5.770  0.4791  0.0448  0.2637
  140MOL    O4428122   2.957   3.574   5.781  0.6299  0.7514  0.0957
  140MOL    C4528123   3.090   3.605   5.737  0.1968  0.5186 -0.3364
  140MOL    H4628124   2.715   3.779   5.882  0.1684 -0.2612 -0.2395
  140MOL    H4728125   2.768   3.614   5.935 -0.3082  0.0729  2.0136
  140MOL    H4828126   2.930   3.777   5.740 -0.1358  0.5092  0.3806
  140MOL    H4928127   3.136   3.677   5.804  0.8948 -1.3776  1.2966
  140MOL    H5028128   3.142   3.509   5.739 -1.6026 -0.5452 -1.9296
  140MOL    H5128129   3.086   3.634   5.632  0.2168 -0.2778 -0.5668
  140MOL    C5228130   2.768   3.655   5.673 -0.2986  0.4324  0.2375
  140MOL    C5328131   2.706   3.771   5.598  0.2764 -0.2606  0.5172
  140MOL    O5428132   2.798   3.805   5.489 -0.1653 -0.7599  0.5956
  140MOL    C5528133   2.813   3.940   5.458  0.1989  0.1430  0.5345
  140MOL    H5628134   2.686   3.600   5.718 -0.3483  2.0448  2.1708
  140MOL    H5728135   2.817   3.583   5.607 -0.7936 -2.0995  2.5838
  140MOL    H5828136   2.694   3.856   5.666  2.0196 -1.1414  1.9802
  140MOL    H5928137   2.896   3.958   5.390 -0.4094  0.0411 -0.2409
  140MOL    H6028138   2.721   3.970   5.409  0.6878 -0.2215 -0.6108
  140MOL    H6128139   2.820   4.007   5.545  2.1278  1.3708 -0.5199
  140MOL    C6228140   2.576   3.752   5.523  0.0085  0.0626  0.0143
  140MOL    C6328141   2.452   3.743   5.608 -0.5151 -0.2746  0.2208
  140MOL    O6428142   2.441   3.865   5.673  0.7934 -0.6647  0.6046
  140MOL    C6528143   2.388   3.860   5.802  0.0608 -0.1042  0.2506
  140MOL    H6628144   2.589   3.664   5.459  2.7946 -0.2812  0.9876
  140MOL    H6728145   2.556   3.834   5.454  1.1338  0.1139 -0.2711
  140MOL    H6828146   2.480   3.670   5.684 -1.4393 -0.4818  0.3698
  140MOL    H6928147   2.456   3.800   5.863  1.3171  0.8499 -0.1885
  140MOL    H7028148   2.392   3.964   5.833 -0.9603 -0.2729  0.9667
  140MOL    H7128149   2.284   3.829   5.811 -0.5603  2.1045  0.9841
  140MOL    C7228150   2.325   3.708   5.523  0.7687 -0.1696  0.1173
  140MOL    C7328151   2.322   3.563   5.471 -0.1391 -0.3207  0.1049
  140MOL    O7428152   2.346   3.471   5.575 -0.2008 -0.2065 -0.3868
  140MOL    C7528153   2.381   3.344   5.530  0.2330  0.1164  0.5505
  140MOL    H7628154   2.321   3.780   5.441 -1.2969 -2.1395 -1.5816
  140MOL    H7728155   2.244   3.716   5.595  1.4817 -2.0622  1.1513
  140MOL    H7828156   2.404   3.545   5.402 -0.6802 -0.9886 -0.3775
  140MOL    H7928157   2.337   3.314   5.434 -0.7763  1.2229  0.6577
  140MOL    H8028158   2.489   3.340   5.522  0.1231 -2.2918 -0.3722
  140MOL    H8128159   2.345   3.266   5.598  2.4645 -0.1394  1.4555
  140MOL    C8228160   2.188   3.540   5.390 -0.1362 -0.1614  0.3119
  140MOL    C8328161   2.185   3.612   5.249  0.1656  0.3615  0.9186
  140MOL    O8428162   2.281   3.545   5.174  0.0286 -0.6577 -0.0874
  140MOL    C8528163   2.388   3.621   5.121  0.2254  0.2728  0.2815
  140MOL    H8628164   2.106   3.574   5.453  0.7503  0.5511  1.0929
  140MOL    H8728165   2.186   3.433   5.369  1.2297  0.1253 -1.3953
  140MOL    H8828166   2.210   3.717   5.263 -0.2697  0.3442  1.8389
  140MOL    H8928167   2.352   3.691   5.046  2.8429 -0.3654 -1.6605
  140MOL    H9028168   2.449   3.673   5.195 -1.4055  0.3717  1.5732
  140MOL    H9128169   2.454   3.553   5.066 -0.1772  0.2847 -0.2116
  140MOL    C9228170   2.048   3.597   5.194 -0.4753 -0.5179  0.0733
  140MOL    C9328171   1.946   3.699   5.245 -0.0309 -0.2126  0.2849
  140MOL    O9428172   1.955   3.828   5.185  0.4655 -0.3362 -0.5747
  140MOL    C9528173   1.969   3.935   5.274 -0.0441  0.8111  0.5231
  140MOL    H9628174   2.012   3.498   5.222 -0.4263 -0.9261 -1.2856
  140MOL    H9728175   2.053   3.590   5.085  2.9614 -1.6450  0.2494
  140MOL    H9828176   1.954   3.704   5.354 -2.6756  0.0950  0.5091
  140MOL    H9928177   1.886   3.954   5.342  0.5850  0.5579  1.3670
  140MOL   H10028178   2.062   3.913   5.328  0.3126 -1.2295 -0.8803
  140MOL   H10128179   1.979   4.033   5.228  2.6532 -1.4240 -3.9692
  140MOL   C10228180   1.810   3.638   5.206  0.4519 -0.3011 -0.4766
  140MOL   C10328181   1.693   3.703   5.281  0.6223 -0.4630 -0.0601
  140MOL   O10428182   1.578   3.693   5.201 -0.9656 -0.3902  0.7449
  140MOL   C10528183   1.562   3.805   5.115  0.6261  0.5457  0.6182
  140MOL   H10628184   1.807   3.529   5.209 -2.5967 -0.2348  0.6716
  140MOL   H10728185   1.811   3.658   5.099  2.6743 -2.1552 -0.8406
  140MOL   H10828186   1.717   3.805   5.309  1.8239 -1.4399  2.6541
  140MOL   H10928187   1.558   3.897   5.174  1.4478  1.1860 -0.2977
  140MOL   H11028188   1.636   3.809   5.034  2.1452  0.3522  1.9717
  140MOL   H11128189   1.463   3.796   5.071  0.1751 -0.8545  1.8879
  140MOL   C11228190   1.644   3.642   5.419  0.2959  0.5086 -0.2022
  140MOL   C11328191   1.750   3.623   5.526  0.2970  0.1747 -0.6981
  140MOL   O11428192   1.805   3.749   5.560  0.3310  0.1843 -0.2657
  140MOL   C11528193   1.920   3.761   5.644 -0.2650  0.2641  0.4885
  140MOL   H11628194   1.601   3.543   5.404  0.6782  0.1644  0.9026
  140MOL   H11728195   1.570   3.710   5.460  0.6110  0.1581  0.9713
  140MOL   H11828196   1.830   3.560   5.485  0.5929 -1.6378  2.4624
  140MOL   H11928197   1.953   3.862   5.617 -1.9019  0.2278 -1.8574
  140MOL   H12028198   1.890   3.764   5.749  0.1772  1.6315  0.5963
  140MOL   H12128199   2.002   3.691   5.628  1.6982  2.9263 -1.6460
  140MOL   C12228200   1.700   3.563   5.658  0.5212 -0.6096  0.2639
  140MOL   C12328201   1.642   3.419   5.644  0.1761 -0.1006  0.3126
  140MOL   O12428202   1.736   3.323   5.592  0.2421  0.2907 -0.6733
  140MOL   C12528203   1.694   3.252   5.470 -0.0652 -0.0968 -0.0807
  140MOL   H12628204   1.637   3.641   5.703  0.1229 -0.3622 -0.7211
  140MOL   H12728205   1.791   3.556   5.718  1.9803 -0.3300 -1.8735
  140MOL   H12828206   1.559   3.445   5.578 -0.6218 -2.4095  0.3447
  140MOL   H12928207   1.679   3.316   5.384 -0.4492 -3.5561 -2.6723
  140MOL   H13028208   1.748   3.163   5.439 -1.2247 -1.4729  1.7033
  140MOL   H13128209   1.597   3.210   5.498  0.1468 -1.2350 -1.0068
  140MOL   C13228210   1.573   3.362   5.773 -0.0069  0.3231  0.0291
  140MOL   C13328211   1.435   3.420   5.802 -0.6746 -0.5235  0.1369
  140MOL   O13428212   1.342   3.364   5.713  0.2009  0.1403  0.2278
  140MOL   C13528213   1.244   3.454   5.665  0.2157 -0.7602 -0.1686
  140MOL   H13628214   1.642   3.378   5.856  0.7293  2.3298 -0.9249
  140MOL   H13728215   1.563   3.256   5.751 -1.8214  0.6387 -0.6999
  140MOL   H13828216   1.446   3.527   5.789  0.9126 -0.7571 -0.5466
  140MOL   H13928217   1.173   3.482   5.743  2.0059  1.2823  0.7652
  140MOL   H14028218   1.288   3.543   5.620  0.0754  0.9499  2.9472
  140MOL   H14128219   1.182   3.402   5.592 -3.0135  2.3325  0.2308
  140MOL   C14228220   1.372   3.398   5.950 -0.1114  0.4389  0.1819
  140MOL   C14328221   1.451   3.486   6.051  0.2295 -0.4298 -0.2845
  140MOL   O14428222   1.370   3.589   6.101 -0.1917 -0.0603  0.3417
  140MOL   C14528223   1.368   3.698   6.014 -0.3953 -0.3739 -0.6103
  140MOL   H14628224   1.365   3.290   5.965  0.8276  0.4927  1.0924
  140MOL   H14728225   1.269   3.435   5.945 -0.2439  0.1189  0.4942
  140MOL   H14828226   1.539   3.531   6.004  0.2192 -0.9922 -0.8536
  140MOL   H14928227   1.459   3.738   5.971  0.5556 -2.3244 -0.4777
  140MOL   H15028228   1.306   3.676   5.927 -0.1958 -0.2015 -0.7965
  140MOL   H15128229   1.318   3.789   6.048 -0.6650 -0.6614 -0.2354
  140MOL   C15228230   1.503   3.400   6.163  0.1666  0.4482 -0.6629
  140MOL   C15328231   1.586   3.480   6.267  0.9934  0.5581  0.0536
  140MOL   O15428232   1.570   3.407   6.384 -0.1350 -0.0200  0.2885
  140MOL   C15528233   1.548   3.498   6.486 -0.0775 -0.0518  0.4982
  140MOL   H15628234   1.547   3.307   6.125 -1.5969 -0.8352  0.3585
  140MOL   H15728235   1.414   3.369   6.218 -0.2684 -2.1936 -2.7458
  140MOL   H15828236   1.534   3.576   6.275  0.3244  0.0678  1.7257
  140MOL   H15928237   1.446   3.534   6.472 -0.3759 -0.6443  1.1178
  140MOL   H16028238   1.565   3.443   6.578 -2.7429 -1.1674  0.3805
  140MOL   H16128239   1.625   3.574   6.484  0.5790 -0.6812  1.4522
  140MOL   C16228240   1.734   3.485   6.236 -0.1819 -0.2696  0.4361
  140MOL   C16328241   1.804   3.587   6.137  0.3392 -0.2743 -0.7102
  140MOL   O16428242   1.790   3.713   6.208 -0.0680 -0.1566 -0.2432
  140MOL   C16528243   1.763   3.824   6.117  0.3320 -0.6147 -0.1014
  140MOL   H16628244   1.763   3.386   6.201  1.5732  0.3927 -0.0682
  140MOL   H16728245   1.793   3.480   6.327 -1.0827 -0.5319  1.0053
  140MOL   H16828246   1.764   3.590   6.035  0.0780 -2.2041 -0.6666
  140MOL   H16928247   1.659   3.819   6.085 -0.5312 -0.6097  2.5629
  140MOL   H17028248   1.769   3.922   6.164 -2.4163 -0.0950 -0.7049
  140MOL   H17128249   1.830   3.827   6.031 -0.5993 -2.0981 -0.9093
  140MOL   C17228250   1.958   3.559   6.121  0.3629 -0.3812  0.3940
  140MOL   C17328251   1.997   3.435   6.041  0.8983  0.2500 -0.2041
  140MOL   O17428252   2.124   3.465   5.988 -0.1172  0.5054 -0.2135
  140MOL   C17528253   2.158   3.422   5.854  0.2521 -0.0056 -0.9183
  140MOL   H17628254   2.003   3.565   6.220 -2.4715  0.8358  1.6706
  140MOL   H17728255   1.994   3.641   6.058  1.7968 -3.1780 -2.5907
  140MOL   H17828256   1.926   3.417   5.960 -0.6445  0.8020  1.0061
  140MOL   H17928257   2.182   3.316   5.863  0.3782  0.2188  1.9440
  140MOL   H18028258   2.083   3.439   5.777 -0.6361  1.2400  0.2052
  140MOL   H18128259   2.252   3.472   5.831 -1.0501  2.2372 -1.4682
  140MOL   C18228260   2.021   3.306   6.122  0.0368  0.0334  0.6122
  140MOL   C18328261   1.949   3.179   6.063 -0.3977  0.0018  0.1703
  140MOL   O18428262   2.034   3.122   5.960  0.1145 -0.4483 -0.2712
  140MOL   C18528263   1.967   3.114   5.837 -0.1495 -0.0763  0.3281
  140MOL   H18628264   1.982   3.316   6.224  0.4036 -0.0071  0.7571
  140MOL   H18728265   2.126   3.287   6.147  0.3736 -0.5850 -1.1966
  140MOL   H18828266   1.854   3.223   6.035  0.2304  0.4985 -1.2375
  140MOL   H18928267   1.873   3.059   5.853 -0.5961  0.1840 -1.3592
  140MOL   H19028268   1.954   3.211   5.790  1.8188 -0.0943 -0.2590
  140MOL   H19128269   2.026   3.049   5.773  0.1958 -0.5739  1.1455
  140MOL   C19228270   1.919   3.067   6.163  0.2615  0.1402 -0.2698
  140MOL   C19328271   1.811   3.087   6.277 -0.1141  0.7529 -0.6606
  140MOL   O19428272   1.688   3.113   6.218  0.5612  0.5015  0.7681
  140MOL   C19528273   1.575   3.080   6.303 -0.0397  0.4727  0.6359
  140MOL   H19628274   2.012   3.035   6.208  0.0400  0.5447  0.4835
  140MOL   H19728275   1.886   2.977   6.111 -1.3693  1.2351 -1.1909
  140MOL   H19828276   1.822   3.174   6.342  0.7729 -0.5737  1.0012
  140MOL   H19928277   1.581   3.138   6.395  3.7468  0.2612  0.5963
  140MOL   H20028278   1.481   3.104   6.254  0.6497  2.8355  0.4326
  140MOL   H20128279   1.581   2.972   6.316 -0.6907  0.5307  1.4274
  140MOL   H20228280   1.798   2.999   6.340 -2.4786  0.5842 -1.3341
  141MOL     C128281   6.299   2.013   2.756 -0.1648  0.5901 -0.5393
  141MOL     C228282   6.331   1.914   2.875 -0.5215 -0.6905 -0.2467
  141MOL     O328283   6.235   1.937   2.974 -0.6048 -0.5878 -0.0724
  141MOL     C428284   6.263   1.883   3.100 -0.9594  0.4060 -0.2111
  141MOL     H528285   6.231   2.092   2.789 -0.5812  0.1177 -0.2520
  141MOL     H628286   6.385   2.056   2.705 -1.3939  3.0469 -0.6238
  141MOL     H728287   6.426   1.936   2.923  0.4642 -4.9164 -0.0826
  141MOL     H828288   6.295   1.779   3.093  1.2599  0.9807  1.0081
  141MOL     H928289   6.335   1.946   3.151  0.6206 -1.0964 -0.5417
  141MOL    H1028290   6.173   1.872   3.161  1.2303  0.3834  3.0981
  141MOL    H1128291   6.238   1.977   2.673  0.6635  0.8484 -1.2604
  141MOL    C1228292   6.314   1.770   2.815  0.6796 -0.1973  0.0662
  141MOL    C1328293   6.418   1.736   2.702 -0.0604 -0.1332  0.2847
  141MOL    O1428294   6.389   1.798   2.582 -0.3049  0.1334 -0.0411
  141MOL    C1528295   6.300   1.719   2.502  0.5224 -0.5557 -0.2060
  141MOL    H1628296   6.213   1.770   2.773 -0.0801  0.7902  1.7973
  141MOL    H1728297   6.319   1.695   2.894 -0.6091  0.4528  0.8066
  141MOL    H1828298   6.427   1.627   2.698  1.2793 -0.0219 -0.0383
  141MOL    H1928299   6.201   1.711   2.547 -0.9799  0.3389 -3.1850
  141MOL    H2028300   6.281   1.762   2.404 -1.4584  0.7618  0.7313
  141MOL    H2128301   6.345   1.620   2.493 -1.6899 -1.6744  0.7103
  141MOL    C2228302   6.558   1.785   2.753  0.3969  0.2055  0.1175
  141MOL    C2328303   6.670   1.695   2.683  1.1350  0.4608  0.1070
  141MOL    O2428304   6.803   1.739   2.721  0.2411 -0.0256 -0.1103
  141MOL    C2528305   6.864   1.842   2.647 -0.1021  0.4033 -0.3240
  141MOL    H2628306   6.571   1.765   2.859 -1.4912  2.8562  0.8983
  141MOL    H2728307   6.562   1.891   2.730 -2.6316  0.8198  2.1421
  141MOL    H2828308   6.653   1.712   2.577 -1.1372 -0.0656  0.3460
  141MOL    H2928309   6.832   1.850   2.544 -0.3457 -1.5255 -0.4184
  141MOL    H3028310   6.829   1.934   2.694  3.2285  1.6331 -0.1274
  141MOL    H3128311   6.971   1.822   2.650 -0.1156  0.3845  3.8136
  141MOL    C3228312   6.675   1.538   2.697 -0.5743  0.1730 -0.1379
  141MOL    C3328313   6.693   1.500   2.844 -0.6535  0.4617 -0.7514
  141MOL    O3428314   6.560   1.500   2.905 -0.1382 -0.4444  0.6129
  141MOL    C3528315   6.560   1.487   3.045 -0.1438  0.0996  0.0269
  141MOL    H3628316   6.764   1.503   2.645 -0.8971  0.9897 -1.2641
  141MOL    H3728317   6.588   1.492   2.651 -0.6319  1.5492 -1.4555
  141MOL    H3828318   6.767   1.565   2.890  0.3073  0.3310 -2.1017
  141MOL    H3928319   6.632   1.551   3.094 -0.2315 -1.5311  2.3584
  141MOL    H4028320   6.462   1.521   3.080 -0.0386 -0.8324  1.2679
  141MOL    H4128321   6.571   1.381   3.067 -0.9549 -0.1398 -0.6617
  141MOL    C4228322   6.759   1.355   2.854  0.3197 -0.6592  0.1111
  141MOL    C4328323   6.866   1.314   2.967  0.4227 -0.0394 -0.5209
  141MOL    O4428324   6.866   1.175   2.972 -0.1634 -0.1358 -0.1699
  141MOL    C4528325   6.787   1.114   3.074  0.9878 -0.2357 -0.6041
  141MOL    H4628326   6.806   1.328   2.760  2.2369  2.5300  0.0880
  141MOL    H4728327   6.671   1.291   2.864 -0.8303  0.8190 -0.5143
  141MOL    H4828328   6.811   1.346   3.056 -0.7413 -0.3114 -1.1247
  141MOL    H4928329   6.683   1.135   3.053  0.0830 -1.5662  2.2518
  141MOL    H5028330   6.802   1.007   3.055  1.3498 -0.6617  1.8863
  141MOL    H5128331   6.798   1.138   3.180  1.1085 -1.1552 -0.4042
  141MOL    C5228332   6.999   1.379   2.939 -0.6733 -0.1880  0.5171
  141MOL    C5328333   7.100   1.382   3.061  0.3335 -0.0557 -0.8291
  141MOL    O5428334   7.226   1.355   3.006  0.2325  1.0380  0.5076
  141MOL    C5528335   7.324   1.318   3.100  0.3272  0.2135 -0.3455
  141MOL    H5628336   6.992   1.477   2.891  1.6703 -0.5349 -0.6115
  141MOL    H5728337   7.051   1.313   2.870  0.2166 -0.9803  1.9194
  141MOL    H5828338   7.072   1.307   3.135 -0.2358  0.4949 -0.4866
  141MOL    H5928339   7.410   1.283   3.042  1.9660  0.7070  1.7082
  141MOL    H6028340   7.358   1.394   3.170  0.3111  0.8869 -1.0591
  141MOL    H6128341   7.286   1.236   3.160  2.9318 -0.1329  0.9094
  141MOL    C6228342   7.096   1.518   3.135  0.0187 -0.7840  0.5771
  141MOL    C6328343   6.969   1.554   3.211 -0.1468  0.0373 -0.1321
  141MOL    O6428344   6.949   1.457   3.311  0.3495 -0.2900 -0.1521
  141MOL    C6528345   6.819   1.440   3.362  0.5680 -0.3284  0.7058
  141MOL    H6628346   7.118   1.591   3.057 -0.2049 -1.5931 -0.2466
  141MOL    H6728347   7.186   1.527   3.196 -0.0016  0.9292  0.3664
  141MOL    H6828348   6.894   1.546   3.132  0.5820 -0.0748 -0.8165
  141MOL    H6928349   6.748   1.521   3.351 -1.0986 -1.7512  0.7316
  141MOL    H7028350   6.779   1.358   3.302  0.9308 -0.8724  1.1933
  141MOL    H7128351   6.834   1.399   3.462 -1.1351 -0.6747  0.8277
  141MOL    C7228352   6.975   1.689   3.272  0.3353 -0.0392 -0.7118
  141MOL    C7328353   6.925   1.801   3.182 -0.5866 -0.1630  0.7328
  141MOL    O7428354   6.780   1.796   3.183  0.5093  0.3558  0.1729
  141MOL    C7528355   6.728   1.837   3.056  0.2456 -0.1285  0.1736
  141MOL    H7628356   7.079   1.705   3.299  0.3289 -0.5543 -0.3936
  141MOL    H7728357   6.944   1.696   3.376  1.1515 -0.5735 -0.4315
  141MOL    H7828358   6.960   1.774   3.083 -0.5293 -0.3545  0.8045
  141MOL    H7928359   6.619   1.832   3.060  0.2460 -2.9320 -1.5515
  141MOL    H8028360   6.750   1.942   3.041 -0.6035 -0.1633 -1.5022
  141MOL    H8128361   6.759   1.766   2.979  0.6054  2.1680 -1.8371
  141MOL    C8228362   6.975   1.942   3.213  0.0861 -0.5898  1.2750
  141MOL    C8328363   7.120   1.963   3.174 -0.3032 -0.5633  0.4610
  141MOL    O8428364   7.146   2.014   3.047 -0.3324 -0.4516  0.4204
  141MOL    C8528365   7.109   1.940   2.935 -0.3683 -0.7224 -0.4223
  141MOL    H8628366   6.979   1.967   3.319  1.7018 -1.7081  1.5025
  141MOL    H8728367   6.917   2.010   3.151  0.9726 -0.4957  0.5508
  141MOL    H8828368   7.177   1.871   3.186  3.2908  1.2848 -1.5025
  141MOL    H8928369   7.146   1.993   2.847  0.5727  0.0928  0.4415
  141MOL    H9028370   7.149   1.840   2.943 -0.5700 -0.5907  2.9578
  141MOL    H9128371   7.003   1.950   2.912 -0.5248  1.1417  0.9416
  141MOL    C9228372   7.188   2.067   3.268 -0.0886 -0.5720 -0.5618
  141MOL    C9328373   7.346   2.083   3.250  0.2015  0.3997 -0.4152
  141MOL    O9428374   7.391   2.190   3.341 -0.2599 -1.1612 -0.3610
  141MOL    C9528375   7.371   2.331   3.302  0.5186  0.1500 -0.3483
  141MOL    H9628376   7.167   2.025   3.366 -1.2839 -0.9705 -0.9682
  141MOL    H9728377   7.131   2.160   3.272 -0.1215 -0.6239  0.2233
  141MOL    H9828378   7.372   2.120   3.151  0.4216  3.3217  0.7030
  141MOL    H9928379   7.387   2.393   3.391  1.0970  1.2867 -1.2341
  141MOL   H10028380   7.449   2.358   3.232  2.5869 -0.8750  1.4922
  141MOL   H10128381   7.269   2.343   3.264 -0.4625  0.9738  2.4013
  141MOL   C10228382   7.428   1.959   3.290 -0.0861  1.0331 -0.2325
  141MOL   C10328383   7.423   1.923   3.439  0.3003  0.7270 -0.3638
  141MOL   O10428384   7.299   1.840   3.453  0.1262 -0.5485 -0.2555
  141MOL   C10528385   7.248   1.850   3.589 -0.7368  0.1015  0.3842
  141MOL   H10628386   7.531   1.979   3.261  0.7731 -0.3055  1.7358
  141MOL   H10728387   7.410   1.869   3.233 -0.1706  1.7285 -1.3096
  141MOL   H10828388   7.409   2.012   3.500 -1.8529  1.9542 -2.5981
  141MOL   H10928389   7.212   1.948   3.620  1.5433  0.5549  1.6988
  141MOL   H11028390   7.157   1.791   3.591 -0.0481 -0.9610  1.8988
  141MOL   H11128391   7.312   1.796   3.659 -2.0504 -0.1891  1.3823
  141MOL   C11228392   7.538   1.837   3.492  0.5201  0.1026 -0.1485
  141MOL   C11328393   7.675   1.898   3.480  0.0121 -0.8691 -0.0463
  141MOL   O11428394   7.685   2.017   3.560  0.8256 -0.2127 -0.2457
  141MOL   C11528395   7.729   2.134   3.494 -0.5962 -0.9343  0.1419
  141MOL   H11628396   7.527   1.757   3.419 -2.2440  2.0006 -1.9325
  141MOL   H11728397   7.516   1.806   3.594 -1.2562  2.1769  0.1515
  141MOL   H11828398   7.690   1.918   3.373 -0.5180 -0.9241 -0.1333
  141MOL   H11928399   7.652   2.159   3.421  0.2990  3.3156  0.4969
  141MOL   H12028400   7.729   2.215   3.567  1.8635  1.8484 -2.7693
  141MOL   H12128401   0.017   2.127   3.449 -1.5372  1.4730 -2.3982
  141MOL   C12228402   7.790   1.805   3.530 -0.2347  0.3192 -0.8243
  141MOL   C12328403   0.021   1.685   3.447 -0.4516 -0.4469  0.6185
  141MOL   O12428404   0.080   1.743   3.330 -0.4547 -0.0278 -0.1105
  141MOL   C12528405   0.031   1.686   3.214 -0.0658  0.3378 -0.3816
  141MOL   H12628406   7.770   1.765   3.629  1.8868  1.5757  0.1579
  141MOL   H12728407   0.068   1.863   3.556 -0.7704  0.8850 -0.2429
  141MOL   H12828408   7.744   1.627   3.417 -1.3301  1.5354 -0.7733
  141MOL   H12928409   0.081   1.726   3.126 -0.1496  2.7714  0.6369
  141MOL   H13028410   0.049   1.580   3.234 -2.5533  0.1351  1.0079
  141MOL   H13128411   7.735   1.706   3.217 -0.4220 -1.6097  0.9771
  141MOL   C13228412   0.133   1.611   3.519 -0.2872  0.0972  0.0473
  141MOL   C13328413   0.072   1.510   3.611  0.2970 -0.3597  0.0722
  141MOL   O13428414   0.008   1.421   3.524  0.4782 -0.0947 -0.0100
  141MOL   C13528415   7.712   1.347   3.582  0.1597  0.0220  0.7097
  141MOL   H13628416   0.205   1.678   3.566  1.0324 -0.8623 -0.5749
  141MOL   H13728417   0.186   1.567   3.435  0.6787  1.1232  0.1053
  141MOL   H13828418   0.009   1.549   3.691  1.0457 -0.3236  0.6603
  141MOL   H13928419   7.688   1.269   3.510  2.0846 -0.1219  0.1982
  141MOL   H14028420   7.735   1.304   3.679  1.5133  2.0769  1.3441
  141MOL   H14128421   7.618   1.402   3.590  0.5107  0.2758  3.4559
  141MOL   C14228422   0.179   1.427   3.687 -0.0396 -0.3938 -1.0072
  141MOL   C14328423   0.242   1.497   3.797  0.1536 -0.3845 -0.4489
  141MOL   O14428424   0.158   1.491   3.913  0.6032  0.4496  0.4550
  141MOL   C14528425   0.162   1.595   4.007 -0.1401 -0.5337 -0.2305
  141MOL   H14628426   0.240   1.387   3.606 -0.9496 -1.1049 -1.3607
  141MOL   H14728427   0.134   1.341   3.736  0.5511  1.0423  2.1422
  141MOL   H14828428   0.264   1.598   3.763 -0.9493  0.3148  0.8734
  141MOL   H14928429   0.266   1.628   4.007 -0.7041  1.2886 -1.1386
  141MOL   H15028430   0.107   1.684   3.978  1.2181  1.1755  2.2416
  141MOL   H15128431   0.133   1.560   4.106  1.8627 -1.5772  0.0241
  141MOL   C15228432   0.385   1.449   3.833  0.4100 -0.4278  0.7563
  141MOL   C15328433   0.488   1.503   3.734 -0.0137  0.5743  0.6683
  141MOL   O15428434   0.501   1.644   3.743 -0.1463 -0.1471 -0.1055
  141MOL   C15528435   0.523   1.704   3.614  0.7308  0.1492 -0.2679
  141MOL   H15628436   0.387   1.341   3.826 -0.9316 -0.3414 -1.6150
  141MOL   H15728437   0.417   1.470   3.935  2.4227 -1.2839  0.3290
  141MOL   H15828438   0.457   1.477   3.632  0.9652 -1.6514  0.9233
  141MOL   H15928439   0.571   1.801   3.623 -0.5091  0.7890 -0.5509
  141MOL   H16028440   0.590   1.641   3.554  0.4204  0.8244 -1.3433
  141MOL   H16128441   0.434   1.724   3.554  1.3134  1.1085 -0.8155
  141MOL   C16228442   0.629   1.439   3.748 -0.7235  0.0501  0.3474
  141MOL   C16328443   0.652   1.292   3.699 -0.3110 -0.0528  0.1945
  141MOL   O16428444   0.647   1.293   3.552  0.4264  0.2411  0.6866
  141MOL   C16528445   0.569   1.182   3.493  0.3402 -0.1116  0.2838
  141MOL   H16628446   0.659   1.443   3.853  0.6730 -0.9300 -0.0028
  141MOL   H16728447   0.705   1.500   3.700  1.6787 -1.9875  1.4941
  141MOL   H16828448   0.569   1.237   3.744  0.6844 -0.9926  0.8956
  141MOL   H16928449   0.469   1.198   3.532  0.6784 -0.0209  1.1385
  141MOL   H17028450   0.570   1.200   3.385 -0.9988 -1.4202  0.0476
  141MOL   H17128451   0.602   1.083   3.523 -1.3174 -0.5552  0.6837
  141MOL   C17228452   0.793   1.238   3.734  0.5120  1.1738  0.5861
  141MOL   C17328453   0.834   1.095   3.694  0.4893 -0.3197  0.4919
  141MOL   O17428454   0.968   1.090   3.742  0.2171 -0.0909 -0.3036
  141MOL   C17528455   1.049   1.046   3.642 -0.1574 -0.0187 -0.1683
  141MOL   H17628456   0.792   1.251   3.843  1.5093  1.0351  0.6162
  141MOL   H17728457   0.864   1.310   3.693  2.2281  0.6838  2.5723
  141MOL   H17828458   0.833   1.099   3.585  0.0041  2.5989  0.5513
  141MOL   H17928459   1.012   0.952   3.601  2.7497 -2.1998  1.9818
  141MOL   H18028460   1.045   1.118   3.560  1.3750 -1.1623 -1.2816
  141MOL   H18128461   1.151   1.031   3.676 -0.4402 -1.0825  0.2382
  141MOL   C18228462   0.740   0.985   3.751  0.3982 -0.5171  0.2859
  141MOL   C18328463   0.772   0.932   3.886 -0.1196  1.3273 -0.1573
  141MOL   O18428464   0.653   0.894   3.943  0.4654 -0.1481 -0.1075
  141MOL   C18528465   0.654   0.861   4.086 -0.0017 -0.3265 -0.2411
  141MOL   H18628466   0.733   0.902   3.680  1.1600 -0.2689 -0.0821
  141MOL   H18728467   0.635   1.015   3.748  0.0941 -1.6538 -1.2519
  141MOL   H18828468   0.815   1.014   3.943 -0.8823  1.6496 -0.0425
  141MOL   H18928469   0.692   0.759   4.083  1.5135  0.2476 -1.7702
  141MOL   H19028470   0.723   0.925   4.141 -1.3712  1.0319 -0.0496
  141MOL   H19128471   0.556   0.862   4.134  0.4647  1.8231  0.7588
  141MOL   C19228472   0.864   0.810   3.861 -0.0424  0.5174  0.5913
  141MOL   C19328473   0.958   0.771   3.972 -0.3979  0.1702 -0.0500
  141MOL   O19428474   1.027   0.652   3.935  0.8141  0.0756  0.4649
  141MOL   C19528475   1.138   0.608   4.017  0.9159 -0.1468  0.0743
  141MOL   H19628476   0.926   0.840   3.776 -0.1752  0.5438  0.5040
  141MOL   H19728477   0.804   0.725   3.828  0.9338 -0.4929  1.3880
  141MOL   H19828478   0.911   0.735   4.063 -0.8612 -1.2905 -0.8612
  141MOL   H19928479   1.211   0.688   4.024 -1.3511  2.0781 -1.1090
  141MOL   H20028480   1.104   0.593   4.120 -1.6929  2.1045 -0.3957
  141MOL   H20128481   1.190   0.518   3.984 -0.8561 -0.9565 -0.5943
  141MOL   H20228482   1.029   0.854   3.977 -0.9434  0.7216 -1.2792
  142MOL     C128483   2.533   2.400   0.920 -0.4868  0.6968  0.1474
  142MOL     C228484   2.680   2.449   0.900 -0.6771  0.1276  0.4125
  142MOL     O328485   2.688   2.585   0.919 -0.5515 -0.0518  0.1011
  142MOL     C428486   2.647   2.661   0.805  0.2555 -0.1596  0.3906
  142MOL     H528487   2.478   2.428   0.830  0.1822 -1.5417 -0.9815
  142MOL     H628488   2.534   2.292   0.909  1.3869  0.9231 -2.2359
  142MOL     H728489   2.703   2.417   0.798 -2.0389  0.8017 -0.1219
  142MOL     H828490   2.710   2.668   0.716 -1.4144  1.0647 -0.7219
  142MOL     H928491   2.545   2.633   0.779  0.0568  0.4753  0.4768
  142MOL    H1028492   2.642   2.767   0.830  0.4121 -0.0074 -0.2015
  142MOL    H1128493   2.490   2.429   1.016  1.8455 -0.0932  1.4683
  142MOL    C1228494   2.789   2.361   0.977 -0.4553  0.9938 -0.1417
  142MOL    C1328495   2.937   2.396   0.967 -1.1685 -0.4804 -0.1690
  142MOL    O1428496   2.978   2.408   0.832 -0.5527  0.7492  0.0785
  142MOL    C1528497   3.116   2.387   0.807 -0.0966  0.1713  0.1096
  142MOL    H1628498   2.781   2.257   0.946 -1.1421  0.2214  2.4726
  142MOL    H1728499   2.752   2.357   1.080 -1.3487 -0.3508 -0.4995
  142MOL    H1828500   2.978   2.311   1.019 -0.2809  0.2261  0.3009
  142MOL    H1928501   3.184   2.449   0.866 -0.1708  0.4523 -0.1023
  142MOL    H2028502   3.139   2.282   0.826 -1.5059 -0.3343 -0.9604
  142MOL    H2128503   3.138   2.398   0.701  0.6257  0.2964  0.2729
  142MOL    C2228504   2.979   2.529   1.040 -0.3638 -0.2627 -0.1409
  142MOL    C2328505   2.880   2.579   1.154  0.2855 -0.3203 -0.5774
  142MOL    O2428506   2.900   2.496   1.276  0.2687 -0.4226 -0.2889
  142MOL    C2528507   2.787   2.491   1.355  0.0761  0.1002 -0.1519
  142MOL    H2628508   2.986   2.610   0.967 -0.3389 -1.7540 -1.8164
  142MOL    H2728509   3.078   2.518   1.083  0.2569  2.0397 -0.8930
  142MOL    H2828510   2.775   2.589   1.128  0.2017  1.0195  0.2260
  142MOL    H2928511   2.816   2.418   1.431 -2.1755 -2.6070 -1.7575
  142MOL    H3028512   2.761   2.588   1.396  2.8711  1.2670 -1.0288
  142MOL    H3128513   2.712   2.430   1.303  0.1366 -0.9310  0.9567
  142MOL    C3228514   2.931   2.717   1.198 -0.4776  0.7244 -0.0016
  142MOL    C3328515   2.903   2.837   1.108  0.3658  0.2965 -0.3056
  142MOL    O3428516   2.817   2.920   1.187 -0.0575  0.0958 -0.1149
  142MOL    C3528517   2.684   2.895   1.191  0.9989 -0.1635 -0.4969
  142MOL    H3628518   3.037   2.713   1.222 -0.6052  0.5716  0.5585
  142MOL    H3728519   2.887   2.734   1.297 -0.0968 -0.1803  0.3296
  142MOL    H3828520   2.854   2.823   1.011 -0.4404 -1.8871  0.3906
  142MOL    H3928521   2.640   2.879   1.093 -1.7997 -1.4520  0.9208
  142MOL    H4028522   2.651   2.810   1.251  0.9345  0.8354  0.9025
  142MOL    H4128523   2.632   2.982   1.231  0.2388 -0.4519 -0.8456
  142MOL    C4228524   3.035   2.923   1.092  0.2241  0.2520  0.3458
  142MOL    C4328525   3.011   3.060   1.027 -0.0287  0.6495 -0.0399
  142MOL    O4428526   3.128   3.136   1.046  0.7240  0.2172  0.0539
  142MOL    C4528527   3.126   3.207   1.166  0.3243 -0.1216  0.3919
  142MOL    H4628528   3.118   2.878   1.037 -0.3345 -0.0058 -0.2999
  142MOL    H4728529   3.070   2.934   1.195 -0.5200  1.2987  0.4935
  142MOL    H4828530   2.926   3.099   1.083  0.0595  1.4315 -0.4454
  142MOL    H4928531   3.225   3.245   1.190 -0.0358 -0.8913  3.3021
  142MOL    H5028532   3.061   3.293   1.155 -0.6110 -1.1248 -2.2602
  142MOL    H5128533   3.101   3.148   1.255  2.5420 -0.9410  0.5093
  142MOL    C5228534   2.988   3.060   0.869  0.2550 -0.0052 -0.3893
  142MOL    C5328535   2.943   3.187   0.799 -0.0492 -0.1565  0.0402
  142MOL    O5428536   2.913   3.153   0.664  0.6761  0.4166 -0.4883
  142MOL    C5528537   3.028   3.160   0.582  0.0730 -0.1740 -0.6878
  142MOL    H5628538   2.905   2.991   0.853 -1.7407  1.4985  2.9796
  142MOL    H5728539   3.068   3.010   0.815 -0.8371 -0.7605 -1.3512
  142MOL    H5828540   3.017   3.266   0.809  1.8204 -1.7342 -1.0052
  142MOL    H5928541   3.012   3.108   0.487  1.3856 -1.2488 -0.3422
  142MOL    H6028542   3.054   3.262   0.554  2.7048 -0.4485  0.6521
  142MOL    H6128543   3.113   3.107   0.625  0.3053  1.0523  0.3701
  142MOL    C6228544   2.811   3.241   0.857 -0.6722 -0.3704  0.0451
  142MOL    C6328545   2.751   3.373   0.791  0.4423  1.0010 -0.0598
  142MOL    O6428546   2.641   3.417   0.875 -0.3141  0.6682 -0.3926
  142MOL    C6528547   2.515   3.369   0.823 -0.1302  0.1698 -0.3865
  142MOL    H6628548   2.830   3.268   0.961  1.0766 -1.8928  0.1528
  142MOL    H6728549   2.728   3.172   0.848  0.3914 -1.4946 -1.4300
  142MOL    H6828550   2.714   3.344   0.693 -0.1706  0.5411  0.3040
  142MOL    H6928551   2.438   3.404   0.892 -0.3010 -0.3155 -0.3280
  142MOL    H7028552   2.491   3.397   0.721 -0.0216  0.6800 -0.2736
  142MOL    H7128553   2.507   3.262   0.843  1.0492  0.1156 -0.1773
  142MOL    C7228554   2.847   3.492   0.761  0.0093 -0.5854 -0.0789
  142MOL    C7328555   2.782   3.618   0.703 -0.4887 -0.2323 -0.2737
  142MOL    O7428556   2.869   3.729   0.712 -0.4619 -0.0379 -0.0307
  142MOL    C7528557   2.843   3.812   0.826 -0.1689 -0.9432  0.0227
  142MOL    H7628558   2.931   3.455   0.701 -0.0639  2.1139 -1.9367
  142MOL    H7728559   2.895   3.515   0.855  0.7468  1.7531 -0.9929
  142MOL    H7828560   2.699   3.645   0.769 -0.0955  2.3997 -0.8247
  142MOL    H7928561   2.900   3.905   0.814  3.0730 -2.8087  0.2959
  142MOL    H8028562   2.736   3.829   0.830 -0.6954 -3.8201 -0.9035
  142MOL    H8128563   2.855   3.758   0.920 -0.5569 -0.1012  0.5718
  142MOL    C8228564   2.735   3.595   0.557  0.1808  0.0469 -0.2209
  142MOL    C8328565   2.638   3.711   0.508 -0.1251  0.6846  0.4912
  142MOL    O8428566   2.620   3.691   0.363 -0.1080  0.5330 -0.3014
  142MOL    C8528567   2.732   3.725   0.272  0.0395  0.2480  0.1121
  142MOL    H8628568   2.675   3.506   0.542  0.5206 -0.5345  1.6705
  142MOL    H8728569   2.818   3.587   0.487 -0.4325 -0.6862 -0.8622
  142MOL    H8828570   2.684   3.807   0.532  1.8151 -0.1781  0.3484
  142MOL    H8928571   2.689   3.721   0.171  0.1040  0.9690  0.0512
  142MOL    H9028572   2.784   3.816   0.303  2.7361 -0.8323 -1.0908
  142MOL    H9128573   2.804   3.644   0.267 -1.2956 -0.8758 -2.6007
  142MOL    C9228574   2.501   3.713   0.575  0.7142 -0.5136 -0.4071
  142MOL    C9328575   2.410   3.827   0.528  0.1287  0.2534  0.4061
  142MOL    O9428576   2.297   3.832   0.619 -0.2590  0.2896  0.2866
  142MOL    C9528577   2.167   3.845   0.564  0.6439 -0.1872 -0.2885
  142MOL    H9628578   2.522   3.727   0.681  0.9257 -0.6209 -0.4341
  142MOL    H9728579   2.445   3.621   0.567 -1.9606  0.6406  3.4880
  142MOL    H9828580   2.364   3.797   0.434  1.8103 -1.2387  0.0192
  142MOL    H9928581   2.136   3.760   0.503 -2.1944  2.1861 -2.3057
  142MOL   H10028582   2.092   3.846   0.644 -0.0471 -1.9781 -0.8776
  142MOL   H10128583   2.158   3.933   0.501  2.0510  0.5256  0.4931
  142MOL   C10228584   2.468   3.965   0.501 -1.0033 -0.0527  0.0731
  142MOL   C10328585   2.539   4.033   0.620  0.1669 -0.1025 -0.0933
  142MOL   O10428586   2.602   4.155   0.575  0.0726 -0.2727  0.1851
  142MOL   C10528587   2.708   4.134   0.484 -0.1550 -0.4268 -0.3956
  142MOL   H10628588   2.393   4.032   0.458 -1.6021 -0.4500  0.5046
  142MOL   H10728589   2.544   3.957   0.423  0.1950 -1.3632  1.3642
  142MOL   H10828590   2.613   3.969   0.667 -1.9945  0.0125  3.7620
  142MOL   H10928591   2.777   4.057   0.518  0.7887 -0.4345 -2.2694
  142MOL   H11028592   2.681   4.119   0.380  1.2980  2.0847 -1.1574
  142MOL   H11128593   2.772   4.222   0.474 -0.3758 -0.1927  0.2435
  142MOL   C11228594   2.451   4.067   0.743 -0.3963 -0.2847  0.2247
  142MOL   C11328595   2.530   4.096   0.876  0.4063  0.6768 -0.2166
  142MOL   O11428596   2.629   4.202   0.866 -0.3269  0.3338  0.2213
  142MOL   C11528597   2.569   4.331   0.851 -0.2932 -0.7542  0.3528
  142MOL   H11628598   2.383   3.983   0.758 -0.1231 -0.6020 -0.2864
  142MOL   H11728599   2.373   4.143   0.739 -0.4553 -0.2805  1.2945
  142MOL   H11828600   2.596   4.012   0.898 -0.5628 -0.2632 -0.8378
  142MOL   H11928601   2.527   4.335   0.750  0.4856 -0.1434  0.0536
  142MOL   H12028602   2.506   4.363   0.934  0.5064 -0.5847  0.8993
  142MOL   H12128603   2.647   4.407   0.851 -1.2099  0.2060 -0.2481
  142MOL   C12228604   2.430   4.101   0.999 -0.2226  0.7568 -0.6269
  142MOL   C12328605   2.494   4.122   1.143  0.1460 -0.0901  0.8221
  142MOL   O12428606   2.389   4.179   1.225 -0.5510  0.1734 -0.0660
  142MOL   C12528607   2.357   4.313   1.203 -0.1724 -0.0942  0.9064
  142MOL   H12628608   2.370   4.010   0.989 -0.7997  1.1269 -0.5741
  142MOL   H12728609   2.361   4.184   0.986  0.4217  1.5186  0.7096
  142MOL   H12828610   2.567   4.203   1.132 -2.0984  1.5435 -3.4848
  142MOL   H12928611   2.260   4.320   1.154 -0.9475 -0.1393  2.4099
  142MOL   H13028612   2.336   4.347   1.304  1.4268 -1.2315  1.6429
  142MOL   H13128613   2.430   4.376   1.152  1.4145 -1.0725  1.9160
  142MOL   C13228614   2.566   3.994   1.200 -0.6055 -0.6024 -0.0362
  142MOL   C13328615   2.466   3.876   1.230 -0.0875 -0.4515  0.8675
  142MOL   O13428616   2.528   3.748   1.198  0.2025  0.0186  0.1595
  142MOL   C13528617   2.479   3.688   1.076 -0.4110  0.3226 -0.2831
  142MOL   H13628618   2.617   4.028   1.291 -1.7541 -0.5052  0.5813
  142MOL   H13728619   2.653   3.975   1.137 -0.8808 -3.9319  0.4573
  142MOL   H13828620   2.379   3.886   1.165 -0.0848 -1.8686  0.6262
  142MOL   H13928621   2.373   3.675   1.098 -0.2104  1.4401  1.4341
  142MOL   H14028622   2.494   3.749   0.987 -1.3888  0.0781 -0.6192
  142MOL   H14128623   2.513   3.586   1.055 -0.0242  0.1785  0.9831
  142MOL   C14228624   2.415   3.885   1.377  0.7055 -0.0805  0.1271
  142MOL   C14328625   2.295   3.799   1.426 -0.6159  0.4196  0.1348
  142MOL   O14428626   2.183   3.831   1.341  0.4733  0.6452  0.1157
  142MOL   C14528627   2.130   3.960   1.344  0.1554 -0.3195 -0.0317
  142MOL   H14628628   2.395   3.989   1.401  1.2155  0.4756 -1.8090
  142MOL   H14728629   2.497   3.866   1.447  0.7565  1.3467  0.4667
  142MOL   H14828630   2.266   3.825   1.528 -1.0407  2.3046 -0.4462
  142MOL   H14928631   2.032   3.960   1.297  0.3413 -1.4117 -0.4240
  142MOL   H15028632   2.119   3.992   1.447 -1.4146 -2.1193  0.3641
  142MOL   H15128633   2.184   4.037   1.289  0.0042 -0.4250 -0.3298
  142MOL   C15228634   2.316   3.645   1.425 -0.1792 -0.5842  0.6548
  142MOL   C15328635   2.405   3.597   1.538  0.6691  0.1010 -0.4118
  142MOL   O15428636   2.316   3.582   1.649 -0.0863 -0.1652  0.5337
  142MOL   C15528637   2.359   3.676   1.753 -0.8724 -0.0670 -0.2434
  142MOL   H15628638   2.352   3.609   1.329  0.1956  1.3678  0.0569
  142MOL   H15728639   2.213   3.611   1.430 -0.9347  1.2481 -2.1100
  142MOL   H15828640   2.486   3.668   1.555  0.8616 -0.1855 -0.1262
  142MOL   H15928641   2.326   3.647   1.853  1.5680  1.0322  0.9122
  142MOL   H16028642   2.467   3.686   1.766 -0.8213  0.2312 -0.8997
  142MOL   H16128643   2.332   3.779   1.731 -0.3376  0.1112 -0.0710
  142MOL   C16228644   2.476   3.457   1.509 -0.4846 -0.5194 -0.5112
  142MOL   C16328645   2.584   3.420   1.618  0.4245  0.5971  0.0212
  142MOL   O16428646   2.574   3.278   1.637 -0.5453  0.2166 -0.2441
  142MOL   C16528647   2.474   3.219   1.720  0.4671 -0.0959 -0.3244
  142MOL   H16628648   2.540   3.464   1.421  0.0266  1.3015 -0.0248
  142MOL   H16728649   2.405   3.379   1.482 -0.9798  0.0739 -0.9283
  142MOL   H16828650   2.561   3.479   1.706  1.9113 -0.5729  1.2097
  142MOL   H16928651   2.485   3.111   1.727  0.3780 -0.0349  0.9639
  142MOL   H17028652   2.486   3.262   1.820  1.5649 -1.5172  0.1852
  142MOL   H17128653   2.377   3.245   1.678  0.8325  2.1932  0.1553
  142MOL   C17228654   2.726   3.446   1.572 -0.5598 -0.7526 -0.1052
  142MOL   C17328655   2.778   3.593   1.556  0.3855 -0.4117  0.0368
  142MOL   O17428656   2.753   3.648   1.689 -0.1856 -0.3118 -0.2750
  142MOL   C17528657   2.774   3.796   1.697  0.2155 -0.1753  0.7474
  142MOL   H17628658   2.733   3.387   1.481  0.1048  0.6406 -0.9495
  142MOL   H17728659   2.800   3.404   1.641 -0.0665  0.4684  0.1257
  142MOL   H17828660   2.728   3.635   1.469  1.7743  0.2573 -0.4380
  142MOL   H17928661   2.878   3.821   1.676  0.7029 -3.0215 -0.5664
  142MOL   H18028662   2.723   3.835   1.609  0.8365 -0.8850  0.0661
  142MOL   H18128663   2.743   3.841   1.791  2.2897  2.3143  0.2986
  142MOL   C18228664   2.928   3.600   1.524  0.2466  0.6063 -0.2034
  142MOL   C18328665   2.958   3.541   1.387 -0.8647  0.7890 -0.2131
  142MOL   O18428666   2.899   3.634   1.302 -0.0230 -0.1980 -0.6482
  142MOL   C18528667   2.848   3.569   1.178 -0.2332  0.0567 -0.2969
  142MOL   H18628668   2.986   3.560   1.607  0.6736  0.4510 -0.5763
  142MOL   H18728669   2.967   3.702   1.525 -1.3063  1.2233 -1.4900
  142MOL   H18828670   2.915   3.442   1.377 -0.2857  0.3437  1.4389
  142MOL   H18928671   2.740   3.566   1.187 -0.2125 -0.0466 -0.0662
  142MOL   H19028672   2.860   3.631   1.089 -1.1208 -0.0266 -0.4784
  142MOL   H19128673   2.878   3.466   1.156  0.3912  0.5484 -1.8266
  142MOL   C19228674   3.112   3.537   1.369 -0.0658 -0.1546 -0.0986
  142MOL   C19328675   3.174   3.436   1.465  0.4918  0.0371  0.5160
  142MOL   O19428676   3.310   3.476   1.476 -0.9546  0.0193 -0.5038
  142MOL   C19528677   3.392   3.450   1.362  0.6400  0.1956 -0.3867
  142MOL   H19628678   3.156   3.636   1.381 -0.3738 -0.0101 -0.1527
  142MOL   H19728679   3.141   3.511   1.267  1.5088 -0.5903  0.4489
  142MOL   H19828680   3.168   3.332   1.431  2.2555  0.0317  0.1820
  142MOL   H19928681   3.400   3.347   1.329  4.1236  0.6196 -1.0617
  142MOL   H20028682   3.360   3.502   1.271 -3.1965  1.8688  1.7788
  142MOL   H20128683   3.493   3.490   1.371  0.4513  0.4496  0.7442
  142MOL   H20228684   3.130   3.431   1.564  0.7214  0.2687  0.6276
  143MOL     C128685   1.166   1.574   3.449 -0.4104 -0.0070 -0.2802
  143MOL     C228686   1.220   1.546   3.308 -0.4847 -0.3810  0.0196
  143MOL     O328687   1.321   1.644   3.301  0.8199 -0.0062  0.2547
  143MOL     C428688   1.360   1.690   3.178 -0.6558 -0.1356 -0.9995
  143MOL     H528689   1.234   1.545   3.529 -2.8079  2.3500  2.7504
  143MOL     H628690   1.128   1.676   3.462 -1.8525 -0.4178 -1.1976
  143MOL     H728691   1.150   1.585   3.234  1.2389 -0.1502 -1.5300
  143MOL     H828692   1.281   1.751   3.133 -1.2901  0.6312  1.1238
  143MOL     H928693   1.455   1.743   3.168 -0.8939  0.3088 -0.9335
  143MOL    H1028694   1.384   1.603   3.117 -1.5680 -2.3857  1.7533
  143MOL    H1128695   1.069   1.526   3.464 -0.6064  0.0318 -1.3900
  143MOL    C1228696   1.265   1.404   3.272  0.2536 -0.0504 -0.4444
  143MOL    C1328697   1.159   1.295   3.295  0.4643 -0.4566  0.2589
  143MOL    O1428698   1.025   1.330   3.250 -0.4829 -0.1097  0.6030
  143MOL    C1528699   0.919   1.297   3.343  0.3474 -0.2752  0.0685
  143MOL    H1628700   1.356   1.386   3.328  1.5325 -1.1854 -2.8153
  143MOL    H1728701   1.301   1.401   3.169 -1.8271 -0.9468 -1.1857
  143MOL    H1828702   1.156   1.286   3.404  1.8528  0.4159  0.3741
  143MOL    H1928703   0.934   1.344   3.440  2.6789  0.6432 -0.7000
  143MOL    H2028704   0.822   1.336   3.311  0.1112 -0.4962  0.5077
  143MOL    H2128705   0.906   1.191   3.365  1.4853 -0.6037 -0.8155
  143MOL    C2228706   1.193   1.163   3.231  0.1631  0.4740 -0.4049
  143MOL    C2328707   1.320   1.080   3.269 -0.6074  0.6030 -0.4609
  143MOL    O2428708   1.309   1.026   3.403  0.2810  0.3205 -0.8690
  143MOL    C2528709   1.433   1.018   3.465 -0.0695 -0.0176 -0.1937
  143MOL    H2628710   1.197   1.179   3.123  0.3349 -1.7531 -0.7586
  143MOL    H2728711   1.111   1.095   3.256  0.0264  0.8528  0.1866
  143MOL    H2828712   1.410   1.141   3.259  0.2648 -0.4973  0.5663
  143MOL    H2928713   1.507   0.952   3.421  0.8861  1.8695 -1.4620
  143MOL    H3028714   1.472   1.119   3.475  2.2752 -0.8801 -0.3830
  143MOL    H3128715   1.416   0.975   3.564  0.0522  0.1689 -0.0912
  143MOL    C3228716   1.340   0.953   3.184  0.4780  0.2315 -0.4783
  143MOL    C3328717   1.456   0.961   3.076 -0.1773  0.0070 -0.5015
  143MOL    O3428718   1.579   0.983   3.149  0.3933 -0.4066 -0.0366
  143MOL    C3528719   1.676   1.066   3.084 -0.4233 -0.1392  0.5844
  143MOL    H3628720   1.256   0.911   3.128 -0.2834  0.1625  0.7054
  143MOL    H3728721   1.369   0.877   3.256  0.8520  0.3268 -0.5269
  143MOL    H3828722   1.446   1.044   3.006  0.2540  0.9913  0.6094
  143MOL    H3928723   1.649   1.171   3.076 -1.7979 -0.6102 -1.4446
  143MOL    H4028724   1.764   1.075   3.146 -0.1017  0.8370 -0.0141
  143MOL    H4128725   1.696   1.034   2.982 -1.8975  1.9099 -0.3816
  143MOL    C4228726   1.461   0.829   2.997  0.2746  0.4608 -0.7189
  143MOL    C4328727   1.352   0.825   2.890 -0.3110  0.0292 -0.5031
  143MOL    O4428728   1.371   0.928   2.791  0.3500 -0.1088  0.1963
  143MOL    C4528729   1.252   1.011   2.768  0.3245  0.5538  0.2554
  143MOL    H4628730   1.452   0.740   3.060  0.0432  0.4544 -0.7617
  143MOL    H4728731   1.560   0.831   2.950  1.4422  1.5447  1.6956
  143MOL    H4828732   1.255   0.841   2.937  0.9947 -0.2333  2.3877
  143MOL    H4928733   1.178   0.955   2.710 -0.3161  0.1640  1.4361
  143MOL    H5028734   1.219   1.034   2.869  1.2338  1.3024  0.3828
  143MOL    H5128735   1.264   1.104   2.713  0.1163  0.3685 -0.1124
  143MOL    C5228736   1.354   0.692   2.811 -0.0607 -0.5542  0.4155
  143MOL    C5328737   1.305   0.572   2.899 -0.1817 -0.3953 -0.5000
  143MOL    O5428738   1.160   0.574   2.883  0.2954  0.2721  0.2878
  143MOL    C5528739   1.083   0.520   2.993 -0.3577 -0.4493 -0.6249
  143MOL    H5628740   1.454   0.681   2.769  0.3089  0.3847  1.0337
  143MOL    H5728741   1.292   0.708   2.724  1.8477  2.2423 -0.4739
  143MOL    H5828742   1.324   0.579   3.006 -0.0385 -1.2088 -0.4674
  143MOL    H5928743   1.122   0.563   3.085 -0.1235  1.9978 -1.8325
  143MOL    H6028744   0.978   0.547   2.983 -0.9008 -1.6250  1.6019
  143MOL    H6128745   1.085   0.413   3.013 -0.3504 -0.2415  0.5495
  143MOL    C6228746   1.354   0.444   2.841 -0.4961 -0.0618  0.2974
  143MOL    C6328747   1.508   0.425   2.854 -0.2422  0.0358 -0.0952
  143MOL    O6428748   1.548   0.377   2.982  0.5565  0.2642  0.8078
  143MOL    C6528749   1.631   0.457   3.061 -0.0720  0.5227  0.0497
  143MOL    H6628750   1.331   0.442   2.734 -1.4820  0.5375  0.5005
  143MOL    H6728751   1.306   0.362   2.895  0.8884  0.2296  2.0128
  143MOL    H6828752   1.567   0.515   2.836 -1.2530  0.2765 -2.3792
  143MOL    H6928753   1.571   0.522   3.123 -1.4358 -0.3027 -0.3873
  143MOL    H7028754   1.690   0.398   3.131  0.7414  2.3196  0.9212
  143MOL    H7128755   1.700   0.518   3.002 -0.7498  4.0649  2.7911
  143MOL    C7228756   1.571   0.317   2.767 -0.5279  0.0179  0.3783
  143MOL    C7328757   1.566   0.355   2.616  0.0530 -0.3132 -0.6255
  143MOL    O7428758   1.632   0.478   2.588 -1.1058 -0.1093 -0.8996
  143MOL    C7528759   1.564   0.558   2.492  0.0616  0.2967 -0.4036
  143MOL    H7628760   1.516   0.224   2.785  0.5653 -0.7473 -0.1523
  143MOL    H7728761   1.676   0.312   2.795 -0.7857 -0.8312  1.2259
  143MOL    H7828762   1.462   0.360   2.585  0.2948 -0.2638 -1.4408
  143MOL    H7928763   1.515   0.503   2.411 -0.7413 -1.1759  1.0716
  143MOL    H8028764   1.494   0.626   2.540  0.2551  0.0855  0.1798
  143MOL    H8128765   1.629   0.623   2.434 -0.1752 -0.1310 -1.1606
  143MOL    C8228766   1.639   0.252   2.529  0.1922 -0.1906  0.4880
  143MOL    C8328767   1.568   0.118   2.523  0.1435  0.0155  0.9684
  143MOL    O8428768   1.440   0.149   2.467  0.4995  0.2172  0.2906
  143MOL    C8528769   1.353   0.035   2.465 -0.2642  0.4822  0.2265
  143MOL    H8628770   1.743   0.253   2.562  0.1236  3.6020  0.8124
  143MOL    H8728771   1.644   0.286   2.426 -0.5098  0.0403  0.5295
  143MOL    H8828772   1.559   0.061   2.615 -2.2137  0.2550  0.9126
  143MOL    H8928773   1.261   0.055   2.409 -1.4339 -2.1914  1.1085
  143MOL    H9028774   1.387   7.750   2.426 -0.2621 -0.6509  2.8995
  143MOL    H9128775   1.321   0.029   2.569 -1.6487 -3.2574 -0.3496
  143MOL    C9228776   1.639   0.018   2.430 -0.0102 -0.5526 -0.5027
  143MOL    C9328777   1.675   7.696   2.496 -0.6372  0.4110  0.2077
  143MOL    O9428778   1.705   7.601   2.396 -0.3743  0.3880 -0.6760
  143MOL    C9528779   1.596   7.544   2.336  0.4447  0.0236 -0.4227
  143MOL    H9628780   1.731   0.063   2.394  0.1018 -1.1641 -0.9772
  143MOL    H9728781   1.593   0.004   2.332 -0.0808 -0.4168 -0.4886
  143MOL    H9828782   1.584   7.660   2.544 -0.0318 -1.6552 -0.1391
  143MOL    H9928783   1.511   7.609   2.316  0.2717  0.8731  2.7135
  143MOL   H10028784   1.622   7.486   2.248  0.3497  1.0330 -1.1167
  143MOL   H10128785   1.563   7.474   2.413 -0.8453  0.1152 -0.8798
  143MOL   C10228786   1.784   7.701   2.600 -0.0620  0.4313 -0.2961
  143MOL   C10328787   1.835   7.566   2.643 -0.0450  0.6384 -0.6199
  143MOL   O10428788   1.952   7.582   2.723 -0.1276 -0.2900  0.8729
  143MOL   C10528789   2.071   7.567   2.643 -0.2423  0.6761  0.4010
  143MOL   H10628790   1.755   7.767   2.682  2.2221  1.2933 -0.1394
  143MOL   H10728791   1.863   7.760   2.553 -0.1504  2.2398  1.7187
  143MOL   H10828792   1.858   7.495   2.563 -0.7254  0.4261 -0.6284
  143MOL   H10928793   2.162   7.603   2.691  0.0354 -1.0483  1.2232
  143MOL   H11028794   2.098   7.465   2.615  0.9345  1.0689  0.1078
  143MOL   H11128795   2.066   7.617   2.547  0.3248 -0.9612 -0.4989
  143MOL   C11228796   1.735   7.498   2.734  1.0595  0.4732  0.3346
  143MOL   C11328797   1.745   7.338   2.732  0.6768 -0.4035 -0.2723
  143MOL   O11428798   1.661   7.280   2.829 -0.2498 -0.4284  0.4283
  143MOL   C11528799   1.712   7.258   2.959  0.3245 -0.0549 -0.0631
  143MOL   H11628800   1.643   7.532   2.687  0.5493 -0.0511  0.9273
  143MOL   H11728801   1.739   7.534   2.837  3.6442  1.3222 -0.0357
  143MOL   H11828802   1.848   7.304   2.726  1.3632  1.6030 -0.1297
  143MOL   H11928803   1.810   7.211   2.952  0.9846  1.3203 -0.0569
  143MOL   H12028804   1.715   7.350   3.016  1.5588  0.5831 -1.1268
  143MOL   H12128805   1.647   7.182   3.003 -0.4457  0.4999 -0.2332
  143MOL   C12228806   1.691   7.270   2.605 -0.4349 -0.0012 -0.3752
  143MOL   C12328807   1.733   7.125   2.578  0.6178 -0.4462 -0.1043
  143MOL   O12428808   1.615   7.052   2.550 -0.9380 -0.0730  0.2411
  143MOL   C12528809   1.526   7.030   2.667  0.3472  0.2587  0.5160
  143MOL   H12628810   1.730   7.327   2.520  2.3884 -2.0420 -0.5164
  143MOL   H12728811   1.583   7.276   2.602 -0.6361 -0.8007  3.4721
  143MOL   H12828812   1.781   7.084   2.667  1.6354 -0.9055 -0.8591
  143MOL   H12928813   1.454   6.962   2.621 -0.0107  0.1911  1.1730
  143MOL   H13028814   1.570   6.991   2.758 -0.9093 -1.1023  0.5767
  143MOL   H13128815   1.459   7.113   2.687 -0.1262  0.4383 -1.6574
  143MOL   C13228816   1.819   7.102   2.449 -0.2888  0.4330  0.5421
  143MOL   C13328817   1.967   7.147   2.462  0.8716  0.5198  0.1102
  143MOL   O13428818   2.031   7.065   2.559  0.3172 -0.3149 -0.5130
  143MOL   C13528819   2.127   7.127   2.632  0.0929 -0.2953 -0.6667
  143MOL   H13628820   1.776   7.159   2.367  0.2204 -0.3859 -0.3074
  143MOL   H13728821   1.817   6.995   2.427 -1.5883  0.2976  1.2487
  143MOL   H13828822   1.959   7.252   2.494  2.4849  0.3567  1.1143
  143MOL   H13928823   2.084   7.197   2.704 -0.6041 -1.6494  0.2544
  143MOL   H14028824   2.189   7.056   2.687  0.0891 -0.2528 -0.6078
  143MOL   H14128825   2.194   7.196   2.580  0.3403 -1.0698 -1.3827
  143MOL   C14228826   2.041   7.129   2.320  0.2474 -0.4919  0.4416
  143MOL   C14328827   2.185   7.168   2.315  0.7039 -0.4045  0.5050
  143MOL   O14428828   2.223   7.115   2.189  0.6321 -0.2446  0.0314
  143MOL   C14528829   2.354   7.078   2.166 -0.3324 -0.4176 -0.6123
  143MOL   H14628830   2.000   7.191   2.241  1.8204  0.8763  0.6698
  143MOL   H14728831   2.039   7.024   2.293 -0.4923 -0.6663  1.1364
  143MOL   H14828832   2.245   7.118   2.391 -1.3508  0.2065  2.5756
  143MOL   H14928833   2.375   7.037   2.067  1.2845  0.2163 -0.5533
  143MOL   H15028834   2.435   7.150   2.183  1.8582 -2.9833  0.0965
  143MOL   H15128835   2.379   6.988   2.222  0.6123  0.0186 -0.3166
  143MOL   C15228836   2.224   7.314   2.324 -0.3922  0.3416  0.0994
  143MOL   C15328837   2.183   7.405   2.206  0.6123  0.0397  0.2383
  143MOL   O15428838   2.122   7.525   2.267  0.2706  0.0646  0.9270
  143MOL   C15528839   1.985   7.530   2.240 -0.2378  0.2324  0.0067
  143MOL   H15628840   2.331   7.321   2.341 -0.2591  0.7659 -0.8475
  143MOL   H15728841   2.195   7.354   2.421 -0.5549  0.0521  0.1697
  143MOL   H15828842   2.115   7.351   2.140 -0.5182 -0.6365  1.9191
  143MOL   H15928843   1.947   7.612   2.301  2.3779  1.7701 -0.3378
  143MOL   H16028844   1.969   7.550   2.135  0.8112 -0.2048 -0.2471
  143MOL   H16128845   1.928   7.442   2.271 -2.8222  2.2044  1.0171
  143MOL   C16228846   2.313   7.455   2.120  0.2741 -0.4639 -0.2497
  143MOL   C16328847   2.280   7.488   1.971 -0.3173  0.6708  0.4016
  143MOL   O16428848   2.395   7.540   1.911 -0.2984  0.1120  0.4934
  143MOL   C16528849   2.447   7.663   1.965 -0.1500 -0.0711 -0.2236
  143MOL   H16628850   2.390   7.378   2.123  0.1856 -0.4887  1.6156
  143MOL   H16728851   2.347   7.545   2.170  0.4078  0.3728 -1.8017
  143MOL   H16828852   2.201   7.562   1.964 -2.1374 -1.1866  0.6342
  143MOL   H16928853   2.518   7.700   1.891  0.1181  0.4118  0.2789
  143MOL   H17028854   2.360   7.728   1.980  1.1007  0.9714  2.7316
  143MOL   H17128855   2.499   7.640   2.057 -0.7099  0.3951  0.2151
  143MOL   C17228856   2.229   7.369   1.891  0.1425 -0.3970 -0.2062
  143MOL   C17328857   2.231   7.399   1.742  0.6856 -0.2996  0.3809
  143MOL   O17428858   2.191   7.276   1.683 -0.2576  0.1499 -0.8805
  143MOL   C17528859   2.300   7.201   1.649 -0.6766 -0.9805  0.4380
  143MOL   H17628860   2.127   7.355   1.926  1.3136 -0.4153  3.4644
  143MOL   H17728861   2.291   7.285   1.923  0.4634 -0.3161 -0.6219
  143MOL   H17828862   2.335   7.415   1.713  1.6083 -1.3511  2.9421
  143MOL   H17928863   2.258   7.112   1.601 -1.3963  0.4408 -1.6019
  143MOL   H18028864   2.373   7.258   1.593  0.5788 -1.6507  1.3611
  143MOL   H18128865   2.356   7.174   1.739 -1.7046  2.3917  2.1945
  143MOL   C18228866   2.132   7.506   1.695  0.1444  0.5132 -0.0122
  143MOL   C18328867   2.158   7.534   1.543 -1.0397  0.0521  0.4507
  143MOL   O18428868   2.052   7.614   1.493  0.3485 -0.3840 -0.4621
  143MOL   C18528869   1.932   7.538   1.458 -0.3418  0.1204 -0.0523
  143MOL   H18628870   2.152   7.601   1.744  1.6931  0.4727 -0.5367
  143MOL   H18728871   2.028   7.480   1.714  0.1980 -1.3929 -2.1619
  143MOL   H18828872   2.169   7.438   1.492  0.4045  1.0074 -1.1043
  143MOL   H18928873   1.943   7.468   1.376  2.2610 -0.2495  0.5894
  143MOL   H19028874   1.878   7.492   1.540  1.2544 -0.6982  0.5570
  143MOL   H19128875   1.856   7.608   1.423  0.5547  0.4797 -1.3259
  143MOL   C19228876   2.279   7.617   1.517  0.5354  0.6162  0.3577
  143MOL   C19328877   2.308   7.652   1.372  0.3810 -0.2690 -0.0630
  143MOL   O19428878   2.359   7.530   1.312  0.0376  0.1125  0.2543
  143MOL   C19528879   2.360   7.537   1.169  0.6058 -0.1127  0.1358
  143MOL   H19628880   2.360   7.574   1.574  1.4106 -0.7642 -1.8876
  143MOL   H19728881   2.254   7.714   1.561 -0.7244 -0.4757  2.0898
  143MOL   H19828882   2.368   7.742   1.363 -0.5454  0.2945 -0.7208
  143MOL   H19928883   2.255   7.547   1.141  1.1202 -1.3113 -2.3858
  143MOL   H20028884   2.430   7.608   1.125 -1.0691  0.6662 -1.3906
  143MOL   H20128885   2.376   7.439   1.125  1.7218  1.0090 -2.0392
  143MOL   H20228886   2.218   7.693   1.326  0.1786 -1.2155 -0.5244
  144MOL     C128887   1.954   6.124   6.497 -0.5851  0.0404  0.4899
  144MOL     C228888   1.870   6.204   6.603 -0.0012  0.0667  0.4354
  144MOL     O328889   1.823   6.330   6.553  0.3743 -0.2044 -0.3514
  144MOL     C428890   1.930   6.422   6.550  0.4025  1.2434  0.7691
  144MOL     H528891   1.923   6.121   6.392  1.8363  2.3369 -0.3576
  144MOL     H628892   2.043   6.188   6.493 -1.7379  1.5866 -2.5074
  144MOL     H728893   1.931   6.208   6.693  0.0226  0.8200  0.3915
  144MOL     H828894   2.011   6.406   6.479  0.1591 -1.8374  1.1233
  144MOL     H928895   1.873   6.511   6.521 -0.0168  0.0124 -2.3544
  144MOL    H1028896   1.965   6.444   6.651 -0.6107 -0.5214  1.5311
  144MOL    H1128897   1.985   6.024   6.526 -2.8176 -0.9982 -0.5677
  144MOL    C1228898   1.736   6.137   6.633  0.1427  0.2308  0.6928
  144MOL    C1328899   1.761   6.021   6.736 -0.3085 -0.5459  0.2286
  144MOL    O1428900   1.810   6.075   6.864  0.2868 -0.0076  0.0485
  144MOL    C1528901   1.910   5.991   6.927  0.0594 -0.3920  0.1620
  144MOL    H1628902   1.710   6.080   6.544  0.5396  0.4529  0.4365
  144MOL    H1728903   1.654   6.208   6.645 -0.0466  0.1326 -0.0196
  144MOL    H1828904   1.843   5.959   6.699 -0.1968  0.5528 -1.4111
  144MOL    H1928905   1.881   5.887   6.936 -1.0247 -0.0667  0.4489
  144MOL    H2028906   2.003   5.993   6.869  1.0184  2.2157  1.6768
  144MOL    H2128907   1.912   6.028   7.029 -0.3955 -0.2964  0.1380
  144MOL    C2228908   1.639   5.938   6.781  0.7942 -0.4847 -0.0784
  144MOL    C2328909   1.551   5.868   6.678 -0.2725  0.6399  0.3961
  144MOL    O2428910   1.624   5.763   6.619  0.0832  0.0483 -0.3683
  144MOL    C2528911   1.557   5.704   6.504 -0.0208  0.5302  0.0604
  144MOL    H2628912   1.577   5.995   6.850 -0.4033 -0.0174 -1.4880
  144MOL    H2728913   1.674   5.859   6.847 -2.1383 -1.1056  0.8173
  144MOL    H2828914   1.520   5.943   6.604 -3.6702 -1.3860 -0.3628
  144MOL    H2928915   1.643   5.670   6.446  0.7604  0.5499  1.1825
  144MOL    H3028916   1.505   5.613   6.535  0.2033  0.4362  0.1684
  144MOL    H3128917   1.491   5.769   6.448  1.9194  0.6959 -2.1404
  144MOL    C3228918   1.423   5.815   6.745  0.2813 -0.0851 -0.1755
  144MOL    C3328919   1.434   5.728   6.873  0.3784 -0.7145  0.2984
  144MOL    O3428920   1.310   5.697   6.931 -0.1360  0.3740 -0.3060
  144MOL    C3528921   1.274   5.773   7.037  0.4038  0.1058  0.0370
  144MOL    H3628922   1.366   5.763   6.669 -0.6714 -1.2154  1.2873
  144MOL    H3728923   1.362   5.901   6.771 -1.1328 -0.7514 -1.2587
  144MOL    H3828924   1.488   5.793   6.941  0.6283 -0.4136 -0.1885
  144MOL    H3928925   1.338   5.740   7.120 -1.0135  0.6768  1.3855
  144MOL    H4028926   1.274   5.881   7.023 -1.7017  0.3943  2.0511
  144MOL    H4128927   1.168   5.758   7.056  0.4678  0.4174  0.6520
  144MOL    C4228928   1.511   5.593   6.844  0.2832  0.0807  0.1862
  144MOL    C4328929   1.565   5.510   6.964 -0.7593  0.4569  0.2775
  144MOL    O4428930   1.648   5.407   6.911  0.0605  0.1126 -0.1162
  144MOL    C4528931   1.576   5.295   6.863 -0.4395 -0.0326 -0.5935
  144MOL    H4628932   1.601   5.627   6.794 -0.4249 -0.9077 -1.8233
  144MOL    H4728933   1.452   5.522   6.787  1.4243 -1.5451  0.9817
  144MOL    H4828934   1.486   5.459   7.019 -0.0724 -0.0926  0.7531
  144MOL    H4928935   1.510   5.249   6.936 -0.6995 -1.7960 -1.8866
  144MOL    H5028936   1.510   5.324   6.781 -1.6961 -0.2903  0.3259
  144MOL    H5128937   1.643   5.216   6.827  0.0434  0.1480 -0.0973
  144MOL    C5228938   1.662   5.599   7.050  0.2042  0.1861 -0.1737
  144MOL    C5328939   1.731   5.537   7.169 -0.5050  0.6694 -0.0377
  144MOL    O5428940   1.863   5.590   7.171 -0.0913  0.3733  0.8346
  144MOL    C5528941   1.960   5.497   7.133  0.3630 -0.4133  0.1711
  144MOL    H5628942   1.610   5.688   7.086  2.3249  1.8765 -1.1042
  144MOL    H5728943   1.738   5.636   6.980 -0.5798 -0.5037 -1.3946
  144MOL    H5828944   1.726   5.431   7.145 -0.8893  0.8690 -0.8305
  144MOL    H5928945   2.054   5.552   7.141 -0.5366  1.1090  0.3079
  144MOL    H6028946   1.965   5.427   7.217  1.5451 -0.6624 -0.0874
  144MOL    H6128947   1.934   5.448   7.039 -0.5129  0.7538 -0.2019
  144MOL    C6228948   1.667   5.573   7.311 -0.3445 -0.2836 -0.1452
  144MOL    C6328949   1.527   5.516   7.342 -0.5017 -0.3558 -0.3085
  144MOL    O6428950   1.551   5.380   7.375  0.3170 -0.2285 -0.5423
  144MOL    C6528951   1.459   5.291   7.316 -0.0966  0.0197 -0.0619
  144MOL    H6628952   1.662   5.682   7.318  0.3842 -0.1610 -1.4670
  144MOL    H6728953   1.737   5.533   7.385  1.0547  0.7445 -0.8974
  144MOL    H6828954   1.469   5.517   7.249 -2.0833 -1.4494  0.6424
  144MOL    H6928955   1.356   5.328   7.319  0.0833  0.5569 -0.3172
  144MOL    H7028956   1.483   5.284   7.210  0.4180 -0.6441  0.0921
  144MOL    H7128957   1.474   5.194   7.363  0.2859 -0.1349 -0.4991
  144MOL    C7228958   1.449   5.576   7.461  0.2514 -0.1551  0.2292
  144MOL    C7328959   1.381   5.717   7.433 -0.5354 -0.0014  0.1253
  144MOL    O7428960   1.250   5.725   7.496 -0.1518 -0.1992 -0.6976
  144MOL    C7528961   1.160   5.636   7.431  0.1068  0.0638  0.5688
  144MOL    H7628962   1.512   5.581   7.551 -0.4369  2.2965  0.6013
  144MOL    H7728963   1.371   5.506   7.490  1.0992 -0.4213  1.9370
  144MOL    H7828964   1.363   5.735   7.327 -0.5199 -1.3747 -0.1116
  144MOL    H7928965   1.064   5.656   7.477 -1.3229  0.5113 -2.4385
  144MOL    H8028966   1.159   5.660   7.324  0.5048 -2.1836  0.0302
  144MOL    H8128967   1.176   5.530   7.447  1.2051  0.1324  0.0610
  144MOL    C8228968   1.461   5.835   7.487 -0.0038  0.0924  0.6416
  144MOL    C8328969   1.427   5.971   7.431  0.0818 -0.3642  0.5479
  144MOL    O8428970   1.448   5.973   7.290 -0.2230 -0.4416  0.5094
  144MOL    C8528971   1.587   6.004   7.266 -0.5315  0.4910  0.4146
  144MOL    H8628972   1.567   5.815   7.480 -0.0943 -0.4621  0.8201
  144MOL    H8728973   1.448   5.843   7.595  0.4477  0.6862  0.6548
  144MOL    H8828974   1.491   6.039   7.487  0.6976 -0.0999 -0.4599
  144MOL    H8928975   1.648   5.916   7.285 -1.9541 -0.6641 -0.2802
  144MOL    H9028976   1.608   6.021   7.161  0.0849  0.5904  0.5550
  144MOL    H9128977   1.622   6.088   7.326 -0.6274 -0.7807  2.3353
  144MOL    C9228978   1.284   6.021   7.456 -0.3087 -0.2133 -0.4774
  144MOL    C9328979   1.256   6.068   7.605  0.1644  0.2430  0.1715
  144MOL    O9428980   1.317   6.197   7.617  0.5549  0.3129  0.1019
  144MOL    C9528981   1.358   6.230   7.755 -0.2769  0.2735  0.2458
  144MOL    H9628982   1.206   5.960   7.411 -0.2508 -2.3341  2.1811
  144MOL    H9728983   1.269   6.105   7.389 -1.7450  1.5253  1.9270
  144MOL    H9828984   1.306   5.998   7.673 -1.5868 -0.2041  1.0267
  144MOL    H9928985   1.437   6.166   7.792 -0.2432 -0.2558 -0.7410
  144MOL   H10028986   1.392   6.332   7.775 -1.3154  0.5688  0.5299
  144MOL   H10128987   1.270   6.218   0.008 -0.5915  0.2753 -0.1837
  144MOL   C10228988   1.104   6.073   7.628  0.0518  0.4585  0.0486
  144MOL   C10328989   1.050   5.944   7.701 -0.3960 -0.1642 -0.3703
  144MOL   O10428990   1.108   5.946   0.020  0.0847 -0.2354  0.1283
  144MOL   C10528991   1.152   5.815   0.066 -0.3997  0.2583 -0.6278
  144MOL   H10628992   1.054   6.085   7.532 -0.6990 -0.1086  0.3664
  144MOL   H10728993   1.086   6.158   7.694  1.0530 -0.5944  1.7243
  144MOL   H10828994   1.077   5.861   7.636  1.0771  0.7716 -0.9825
  144MOL   H10928995   1.056   5.763   0.074 -0.4139  0.7459  3.4078
  144MOL   H11028996   1.234   5.772   0.007  0.7751  0.8593  0.5432
  144MOL   H11128997   1.191   5.825   0.167  0.4054 -1.5611 -0.7325
  144MOL   C11228998   0.897   5.939   7.717  0.2001  0.1594 -0.7172
  144MOL   C11328999   0.827   5.936   7.577 -0.1309  0.2210  0.6661
  144MOL   O11429000   0.882   5.822   7.503  0.1349  0.2183  0.0661
  144MOL   C11529001   0.894   5.852   7.363  0.2379 -0.3691  0.2585
  144MOL   H11629002   0.867   6.023   7.779  0.6744  0.4295 -0.8514
  144MOL   H11729003   0.880   5.844   7.768  1.6507  0.6381  0.7107
  144MOL   H11829004   0.826   6.035   7.533  1.2083 -0.0575 -0.0049
  144MOL   H11929005   0.928   5.766   7.306 -0.8663 -0.0737 -0.8835
  144MOL   H12029006   0.803   5.892   7.317 -0.4990  0.7733  2.6392
  144MOL   H12129007   0.962   5.935   7.341 -1.0660  0.6972  0.1547
  144MOL   C12229008   0.679   5.893   7.592  0.1249 -0.3236  0.2023
  144MOL   C12329009   0.596   6.007   7.655 -0.0409 -0.7285 -0.2986
  144MOL   O12429010   0.525   6.078   7.559 -0.3265  0.1110 -0.0882
  144MOL   C12529011   0.557   6.216   7.571  0.6387  0.0579 -0.4914
  144MOL   H12629012   0.672   5.810   7.661  0.6010 -0.1635  0.4407
  144MOL   H12729013   0.635   5.859   7.498  1.4689  0.2394 -0.6517
  144MOL   H12829014   0.660   6.073   7.713 -0.7034 -2.4964  2.5761
  144MOL   H12929015   0.511   6.259   7.482  1.3224  0.8527 -0.4741
  144MOL   H13029016   0.525   6.277   7.655 -1.9291  0.2534 -1.5736
  144MOL   H13129017   0.662   6.239   7.552  1.3014 -1.8238  0.8183
  144MOL   C13229018   0.489   5.958   7.759 -0.3483 -0.3672 -0.1531
  144MOL   C13329019   0.395   6.061   0.022 -0.5100  0.9537 -0.6380
  144MOL   O13429020   0.294   6.006   0.097 -0.2415  0.1067  0.5009
  144MOL   C13529021   0.206   5.922   0.030 -0.4809 -0.4609 -0.5537
  144MOL   H13629022   0.547   5.908   0.026 -0.1440 -0.6530 -0.4894
  144MOL   H13729023   0.421   5.891   7.706 -1.5330  0.4674  0.2773
  144MOL   H13829024   0.348   6.115   7.751  0.0540  1.2114 -0.7964
  144MOL   H13929025   0.178   5.975   7.750 -1.9268 -1.7122 -0.8800
  144MOL   H14029026   0.239   5.825   7.803 -0.4164 -0.3051 -0.8974
  144MOL   H14129027   0.113   5.916   0.087  0.3907  1.2730  1.1144
  144MOL   C14229028   0.470   6.155   0.116  0.1346 -0.1662 -0.7172
  144MOL   C14329029   0.383   6.252   0.191  0.1093  0.0974 -0.1310
  144MOL   O14429030   0.467   6.343   0.263  0.0351  0.5918  0.3771
  144MOL   C14529031   0.508   6.283   0.389 -0.4577 -0.0563  0.0740
  144MOL   H14629032   0.544   6.205   0.053  1.0742 -0.1110  0.4315
  144MOL   H14729033   0.530   6.092   0.181  0.2807  1.1679  0.4534
  144MOL   H14829034   0.325   6.193   0.262  3.3559 -1.3705  1.4288
  144MOL   H14929035   0.563   6.341   0.464 -1.1086  2.8026 -1.5544
  144MOL   H15029036   0.421   6.251   0.445  0.0962 -1.8758 -0.0811
  144MOL   H15129037   0.573   6.196   0.381 -1.0979 -0.7991  2.5362
  144MOL   C15229038   0.289   6.344   0.109 -0.2581 -0.3065 -0.0572
  144MOL   C15329039   0.174   6.397   0.200  0.5376 -0.2571 -0.2889
  144MOL   O15429040   0.124   6.526   0.152 -0.8858 -0.3671 -0.0626
  144MOL   C15529041   0.198   6.636   0.193 -0.4352  0.1610  0.7301
  144MOL   H15629042   0.244   6.281   0.032  2.6782 -2.6834  0.0628
  144MOL   H15729043   0.343   6.428   0.066 -0.5135  0.3963  1.0031
  144MOL   H15829044   0.201   6.394   0.305  2.0388 -3.2389 -0.7150
  144MOL   H15929045   0.295   6.630   0.144 -1.8739  2.9198 -2.6860
  144MOL   H16029046   0.153   6.723   0.145  0.8206 -1.6044 -3.9449
  144MOL   H16129047   0.216   6.641   0.300  0.4529 -0.2384  0.6018
  144MOL   C16229048   0.045   6.306   0.211 -0.3050 -0.0713  0.0655
  144MOL   C16329049   7.772   6.314   0.340  0.3049 -0.4428 -0.4836
  144MOL   O16429050   0.032   6.238   0.447  0.4242  0.1326  0.1225
  144MOL   C16529051   0.050   6.102   0.420 -0.0103  0.3295 -0.4686
  144MOL   H16629052   0.061   6.203   0.182 -0.2711 -0.4061  1.2342
  144MOL   H16729053   7.784   6.334   0.135 -1.6723  1.7173  1.9379
  144MOL   H16829054   7.682   6.255   0.323 -0.3282 -0.1720  1.7927
  144MOL   H16929055   0.154   6.092   0.389 -0.0889  0.4393 -0.7670
  144MOL   H17029056   0.039   6.038   0.508  1.2624 -0.4460 -0.8603
  144MOL   H17129057   7.794   6.059   0.344 -0.8180 -1.8260  1.3943
  144MOL   C17229058   7.738   6.452   0.405 -0.5351  0.8142 -0.4571
  144MOL   C17329059   7.671   6.439   0.548 -0.2471  0.4462  0.7756
  144MOL   O17429060   7.649   6.571   0.599 -0.4552  0.4979  0.3569
  144MOL   C17529061   7.721   6.591   0.727  0.2277 -0.1752 -0.7286
  144MOL   H17629062   7.685   6.519   0.338 -1.5626  1.0389  0.5650
  144MOL   H17729063   0.020   6.508   0.423 -0.2039 -0.0914  0.7791
  144MOL   H17829064   7.747   6.384   0.604 -0.7761 -0.9143  0.1693
  144MOL   H17929065   0.018   6.605   0.712  0.3057 -0.2888 -0.2862
  144MOL   H18029066   7.694   6.686   0.772 -1.7747 -0.4580 -1.2803
  144MOL   H18129067   7.702   6.506   0.792  2.5500  0.0276  0.2643
  144MOL   C18229068   7.550   6.349   0.558 -0.4858 -0.2077  0.3632
  144MOL   C18329069   7.475   6.342   0.693  0.2714 -0.2026  0.1775
  144MOL   O18429070   7.343   6.287   0.665 -0.7076  0.0043  0.0770
  144MOL   C18529071   7.254   6.366   0.587  0.5394  0.2136  0.6455
  144MOL   H18629072   7.578   6.249   0.524  1.1966  1.2547 -2.8144
  144MOL   H18729073   7.479   6.383   0.483  0.0964 -3.0360 -1.5677
  144MOL   H18829074   7.461   6.443   0.730 -0.9163  0.4063 -1.8608
  144MOL   H18929075   7.250   6.313   0.492  2.3461  0.7597  0.2423
  144MOL   H19029076   7.156   6.366   0.633  0.8717  1.3142  1.3774
  144MOL   H19129077   7.299   6.465   0.582 -1.8900  1.2932 -0.7067
  144MOL   C19229078   7.545   6.249   0.795  0.1224 -0.1480 -0.2511
  144MOL   C19329079   7.543   6.091   0.767 -0.0341 -0.0552  0.4044
  144MOL   O19429080   7.630   6.047   0.867 -0.6456  0.2327  0.0447
  144MOL   C19529081   7.571   5.984   0.980  0.0312 -0.4092  0.0430
  144MOL   H19629082   7.499   6.273   0.891 -0.6768  0.2424 -0.7245
  144MOL   H19729083   7.650   6.279   0.798  0.2187 -0.5499  0.8132
  144MOL   H19829084   7.595   6.080   0.672 -1.8744  0.0394 -0.6430
  144MOL   H19929085   7.499   6.062   1.008 -0.3666 -0.0647 -1.8781
  144MOL   H20029086   7.509   5.899   0.951 -1.4261  0.6270  0.0549
  144MOL   H20129087   7.641   5.962   1.060 -0.5966 -0.2445  0.6503
  144MOL   H20229088   7.443   6.046   0.770 -0.0168 -0.0502  1.1970
  145MOL     C129089   1.430   2.311   6.662 -0.0152  0.1832  0.0052
  145MOL     C229090   1.333   2.404   6.734 -0.5968 -0.0653 -0.4245
  145MOL     O329091   1.352   2.533   6.683 -0.3608 -0.0377 -0.4808
  145MOL     C429092   1.482   2.592   6.699  0.2052 -0.2454  0.1973
  145MOL     H529093   1.419   2.328   6.555  0.6353  1.8163  0.1839
  145MOL     H629094   1.535   2.326   6.685  0.1598 -1.4432  0.3634
  145MOL     H729095   1.364   2.403   6.839 -0.9469  0.8618 -0.3023
  145MOL     H829096   1.496   2.593   6.807 -1.3196  2.1402  0.4033
  145MOL     H929097   1.559   2.546   6.637 -0.4044  0.3278 -0.9901
  145MOL    H1029098   1.488   2.693   6.660 -3.1178 -0.0908 -0.0198
  145MOL    H1129099   1.402   2.207   6.678  0.8632 -0.2543 -1.2065
  145MOL    C1229100   1.181   2.372   6.713 -0.1813 -0.5339  0.7882
  145MOL    C1329101   1.087   2.465   6.798 -0.2640  0.4021  0.0085
  145MOL    O1429102   0.954   2.446   6.751 -1.4790 -0.2082  0.2641
  145MOL    C1529103   0.891   2.557   6.683 -0.1770  0.8170  0.1358
  145MOL    H1629104   1.159   2.267   6.733 -0.2681 -0.9072 -1.1563
  145MOL    H1729105   1.158   2.395   6.609  0.0055  0.6041  1.0020
  145MOL    H1829106   1.134   2.563   6.807  3.8327 -1.5247  1.0787
  145MOL    H1929107   0.967   2.602   6.620 -0.6663  0.5997 -0.6124
  145MOL    H2029108   0.803   2.529   6.624 -0.1821  1.7857 -0.3306
  145MOL    H2129109   0.849   2.631   6.752 -2.3672  0.5292 -0.8610
  145MOL    C2229110   1.092   2.402   6.940  0.7627  0.3611 -0.4423
  145MOL    C2329111   1.026   2.486   7.049 -0.4681 -0.2402  0.2496
  145MOL    O2429112   1.005   2.385   7.154  0.3094  0.1107  0.3813
  145MOL    C2529113   0.875   2.402   7.221 -0.5204 -0.1156 -0.0806
  145MOL    H2629114   1.192   2.369   6.966  1.2990  1.0245 -1.6420
  145MOL    H2729115   1.024   2.316   6.941 -1.2691  1.9144 -0.2867
  145MOL    H2829116   0.932   2.521   7.005  0.5043  1.8708 -0.2381
  145MOL    H2929117   0.875   2.500   7.269 -0.1769  0.5862 -1.4845
  145MOL    H3029118   0.795   2.386   7.149 -0.4685 -0.5132 -0.0471
  145MOL    H3129119   0.882   2.324   7.296  0.7458 -0.0755 -0.1490
  145MOL    C3229120   1.113   2.590   7.114 -0.0931 -0.9361  0.0122
  145MOL    C3329121   1.078   2.739   7.073  0.4298  0.6101  0.2299
  145MOL    O3429122   0.939   2.744   7.096 -0.2380  0.4119  0.0996
  145MOL    C3529123   0.862   2.849   7.036  0.0514  0.7775  0.5856
  145MOL    H3629124   1.213   2.576   7.072  0.8241 -1.3988  2.2936
  145MOL    H3729125   1.116   2.588   7.223 -1.5325  1.8201  0.1502
  145MOL    H3829126   1.093   2.757   6.966 -1.4288  1.8092  0.1406
  145MOL    H3929127   0.878   2.859   6.929 -1.4251 -0.4917  0.2522
  145MOL    H4029128   0.757   2.828   7.053  0.7405 -2.2828  1.4107
  145MOL    H4129129   0.884   2.950   7.073  0.7961  0.4315  1.1082
  145MOL    C4229130   1.142   2.850   7.151 -0.4132 -0.5377  0.2600
  145MOL    C4329131   1.288   2.884   7.106  0.8598  0.3123  0.2142
  145MOL    O4429132   1.370   2.767   7.133 -0.2592  0.2085 -0.4927
  145MOL    C4529133   1.511   2.795   7.138 -0.0884  0.5421 -0.2809
  145MOL    H4629134   1.160   2.807   7.249 -0.7319 -1.6995 -0.1762
  145MOL    H4729135   1.082   2.939   7.164  0.4592 -0.0571  0.9670
  145MOL    H4829136   1.332   2.952   7.179  2.5085  0.1054 -0.5620
  145MOL    H4929137   1.547   2.805   7.035  0.1120 -1.0996 -0.3854
  145MOL    H5029138   1.531   2.884   7.197 -2.4453  1.6340 -1.0920
  145MOL    H5129139   1.563   2.716   7.192 -1.1671  1.3803  2.0643
  145MOL    C5229140   1.293   2.936   6.951 -0.6058 -0.7690 -0.1249
  145MOL    C5329141   1.185   3.035   6.918 -0.2118  0.4361  0.0266
  145MOL    O5429142   1.188   3.139   7.012 -0.5187  0.5847 -0.1406
  145MOL    C5529143   1.069   3.217   7.028 -0.0168  0.0675  0.3446
  145MOL    H5629144   1.309   2.847   6.889 -0.3712 -1.1031  0.4111
  145MOL    H5729145   1.389   2.986   6.939  1.6404 -4.5955  0.7898
  145MOL    H5829146   1.083   2.997   6.913  0.4818 -1.2658 -1.8430
  145MOL    H5929147   1.020   3.230   6.932 -0.4165 -0.7685  0.4341
  145MOL    H6029148   0.993   3.174   7.093 -1.7462  1.0704 -0.9720
  145MOL    H6129149   1.099   3.309   7.078 -1.1359  2.0424 -2.5272
  145MOL    C6229150   1.207   3.083   6.774  0.3247 -0.5271 -0.0037
  145MOL    C6329151   1.157   2.988   6.657 -0.1929  0.4554  0.2533
  145MOL    O6429152   1.015   2.994   6.658  0.2305 -0.6665 -0.6991
  145MOL    C6529153   0.942   2.881   6.642  0.3474  1.2664  0.7428
  145MOL    H6629154   1.309   3.113   6.754 -0.0389 -0.6327 -2.2412
  145MOL    H6729155   1.155   3.173   6.741 -1.1992 -2.2309 -2.4907
  145MOL    H6829156   1.203   2.894   6.685  0.8427  0.4449 -1.4431
  145MOL    H6929157   1.006   2.794   6.660  0.0762  0.8662 -0.1695
  145MOL    H7029158   0.851   2.876   6.701  0.0110 -1.9433  0.0510
  145MOL    H7129159   0.909   2.876   6.538  1.2232  1.4866  0.4501
  145MOL    C7229160   1.206   3.033   6.517 -0.6365  0.5993 -0.0898
  145MOL    C7329161   1.176   2.927   6.408 -0.6835 -0.1137  0.5261
  145MOL    O7429162   1.247   2.980   6.301  0.4743  0.0169 -0.0957
  145MOL    C7529163   1.186   3.083   6.233 -0.4687  0.1691  0.2766
  145MOL    H7629164   1.314   3.045   6.525 -0.6812  0.8820  0.1193
  145MOL    H7729165   1.166   3.133   6.496  0.6437  1.1759  0.1223
  145MOL    H7829166   1.069   2.911   6.396 -0.3856 -1.5625 -0.3119
  145MOL    H7929167   1.244   3.094   6.141 -1.4471 -1.1315 -0.5118
  145MOL    H8029168   1.091   3.052   6.189 -0.4807  0.9858 -0.2923
  145MOL    H8129169   1.181   3.185   6.271  1.2736 -0.5654  2.5727
  145MOL    C8229170   1.243   2.792   6.435 -0.2958 -0.0667  0.0299
  145MOL    C8329171   1.194   2.672   6.350 -1.0387  0.5231  0.4694
  145MOL    O8429172   1.055   2.661   6.364  0.0163 -0.3599  0.2049
  145MOL    C8529173   0.988   2.537   6.344  0.0845 -0.3104 -0.1543
  145MOL    H8629174   1.210   2.763   6.534 -1.5076  0.6725 -0.1495
  145MOL    H8729175   1.351   2.800   6.439 -0.2640 -0.0128 -0.7721
  145MOL    H8829176   1.246   2.585   6.391  2.0055  1.4954 -1.1902
  145MOL    H8929177   1.020   2.494   6.249  0.5928  1.6208 -0.8883
  145MOL    H9029178   1.014   2.474   6.428 -0.9067  2.9850  2.7731
  145MOL    H9129179   0.880   2.548   6.326 -0.7204 -4.1089  1.9310
  145MOL    C9229180   1.211   2.690   6.192  0.5762  0.0820  0.1067
  145MOL    C9329181   1.353   2.709   6.144  0.1522  0.1401  0.0812
  145MOL    O9429182   1.430   2.595   6.187  0.1241  0.0573 -0.0883
  145MOL    C9529183   1.528   2.621   6.294  0.1509  0.7023  0.2722
  145MOL    H9629184   1.149   2.776   6.166  0.1764 -0.4450 -0.7168
  145MOL    H9729185   1.160   2.611   6.136  0.4384 -0.9324  1.6360
  145MOL    H9829186   1.390   2.799   6.192  1.6720 -0.2848 -0.2511
  145MOL    H9929187   1.582   2.715   6.279 -1.2459  1.4635 -0.0220
  145MOL   H10029188   1.490   2.612   6.395 -0.1281 -1.6825 -0.0033
  145MOL   H10129189   1.605   2.543   6.284 -1.6858 -1.0702 -0.3821
  145MOL   C10229190   1.369   2.709   5.994 -0.6763  0.2953  0.7345
  145MOL   C10329191   1.361   2.845   5.917 -1.4471  0.6433  0.1715
  145MOL   O10429192   1.492   2.906   5.905  0.4416  0.4290 -0.1047
  145MOL   C10529193   1.509   3.045   5.930 -0.4290  0.2850 -0.2111
  145MOL   H10629194   1.303   2.631   5.953 -0.4157 -0.5619  1.9232
  145MOL   H10729195   1.468   2.666   5.977  0.5102  3.5903 -1.1434
  145MOL   H10829196   1.297   2.906   5.980 -0.9605  0.4672  0.8458
  145MOL   H10929197   1.613   3.070   5.910 -0.4025  1.2972  1.1661
  145MOL   H11029198   1.441   3.102   5.866  2.4300  3.1524 -0.8142
  145MOL   H11129199   1.481   3.063   6.034 -3.6871  1.5595 -1.2496
  145MOL   C11229200   1.308   2.833   5.768 -0.4716  0.0611  0.3903
  145MOL   C11329201   1.160   2.804   5.751  0.2479  0.1624  0.6658
  145MOL   O11429202   1.076   2.890   5.821 -0.4151 -0.2013 -0.1253
  145MOL   C11529203   0.967   2.835   5.894 -0.2876 -0.1699  0.1343
  145MOL   H11629204   1.358   2.754   5.711  0.7037  1.4236 -0.4992
  145MOL   H11729205   1.341   2.920   5.712  0.0979  0.4879  1.3797
  145MOL   H11829206   1.149   2.706   5.796 -0.7607 -0.3896 -0.7363
  145MOL   H11929207   1.007   2.764   5.966 -0.3529 -0.9398 -0.5817
  145MOL   H12029208   0.923   2.911   5.959 -2.2365 -0.9471 -0.2427
  145MOL   H12129209   0.890   2.785   5.835 -1.1564  2.0940 -0.7266
  145MOL   C12229210   1.097   2.792   5.611  0.0450  0.3698 -0.1409
  145MOL   C12329211   1.085   2.908   5.519 -0.4212 -0.3914 -0.9173
  145MOL   O12429212   1.213   2.935   5.467  0.0516 -0.3286  0.4431
  145MOL   C12529213   1.245   3.067   5.448  0.0441 -0.9305  0.6861
  145MOL   H12629214   1.000   2.744   5.623  1.1776 -1.6389  1.2970
  145MOL   H12729215   1.155   2.719   5.553  0.2162 -0.1359  0.6588
  145MOL   H12829216   1.045   2.988   5.579  2.2428 -1.2052  2.1069
  145MOL   H12929217   1.209   3.128   5.530  0.2514  1.0958 -0.7074
  145MOL   H13029218   1.353   3.081   5.446 -0.0318 -0.4067  0.2858
  145MOL   H13129219   1.212   3.103   5.351  2.0646 -1.1238 -0.1077
  145MOL   C13229220   0.981   2.883   5.403 -0.3085 -0.2241 -0.2902
  145MOL   C13329221   0.830   2.895   5.452  0.4276  0.0820  0.0018
  145MOL   O13429222   0.812   3.033   5.458  0.1836  0.2233  0.1276
  145MOL   C13529223   0.738   3.077   5.576 -0.4855  0.3935 -0.1282
  145MOL   H13629224   0.999   2.780   5.371 -0.9726 -0.6417  0.6705
  145MOL   H13729225   1.006   2.947   5.318 -3.1216  1.5741  0.1823
  145MOL   H13829226   0.811   2.849   5.548 -0.6372 -0.9866 -0.7055
  145MOL   H13929227   0.646   3.020   5.573  0.2799 -0.9661  1.2656
  145MOL   H14029228   0.800   3.052   5.663  0.8131  2.8367 -0.3025
  145MOL   H14129229   0.730   3.185   5.567 -2.4628  0.2448 -0.4069
  145MOL   C14229230   0.734   2.848   5.336  0.1537 -0.0730  0.3675
  145MOL   C14329231   0.727   2.693   5.327  0.1545 -0.2995  0.0333
  145MOL   O14429232   0.675   2.636   5.447  0.2524 -0.2933 -0.1430
  145MOL   C14529233   0.762   2.570   5.535  0.0462  0.7226  0.1804
  145MOL   H14629234   0.761   2.901   5.245 -1.1903  0.2359  0.1458
  145MOL   H14729235   0.632   2.885   5.349  1.0171  2.7557 -0.5441
  145MOL   H14829236   0.830   2.660   5.317 -0.2161 -1.0719 -1.3560
  145MOL   H14929237   0.701   2.499   5.590 -1.9986  2.5140  0.2744
  145MOL   H15029238   0.835   2.508   5.483 -1.5384  0.0143 -1.2721
  145MOL   H15129239   0.811   2.632   5.610 -0.7878  0.2521  1.1259
  145MOL   C15229240   0.634   2.641   5.212  0.2785 -0.1709 -0.2709
  145MOL   C15329241   0.615   2.492   5.196 -0.3942 -0.2790 -0.5478
  145MOL   O15429242   0.509   2.444   5.110 -0.1319  0.0384 -0.3352
  145MOL   C15529243   0.384   2.439   5.185 -0.4463 -0.2601  0.3551
  145MOL   H15629244   0.670   2.688   5.120  0.0857 -0.0010 -0.2598
  145MOL   H15729245   0.533   2.676   5.236 -0.1711 -1.6490  0.0192
  145MOL   H15829246   0.598   2.447   5.294 -2.0092 -1.0249 -1.1613
  145MOL   H15929247   0.364   2.341   5.228 -2.1365  0.0090  0.2219
  145MOL   H16029248   0.382   2.517   5.261  1.4468  0.0956  0.0545
  145MOL   H16129249   0.313   2.469   5.108  2.1174 -0.8340 -2.3309
  145MOL   C16229250   0.741   2.424   5.134  0.4326  0.3470  0.4629
  145MOL   C16329251   0.749   2.271   5.151  0.2065 -0.9482 -0.2056
  145MOL   O16429252   0.868   2.235   5.082 -0.3854 -0.1077  0.1120
  145MOL   C16529253   0.844   2.143   4.976  0.1144 -0.1950 -0.4195
  145MOL   H16629254   0.835   2.461   5.177  2.4909 -0.3740 -3.2035
  145MOL   H16729255   0.752   2.444   5.027  0.4497 -2.5972 -0.1140
  145MOL   H16829256   0.668   2.228   5.092  0.6707 -1.0391 -0.7862
  145MOL   H16929257   0.809   2.199   4.890 -2.4394  1.1642  1.4395
  145MOL   H17029258   0.941   2.099   4.952 -0.0544 -1.4143  1.0091
  145MOL   H17129259   0.790   2.052   5.005  0.4752 -0.9077 -1.9618
  145MOL   C17229260   0.737   2.218   5.301  0.1370  0.3317  0.1089
  145MOL   C17329261   0.603   2.177   5.359  0.0502 -0.0047 -0.3772
  145MOL   O17429262   0.586   2.045   5.296 -0.1230 -0.6506 -0.0374
  145MOL   C17529263   0.481   2.035   5.200 -1.9815 -0.3424  0.0135
  145MOL   H17629264   0.784   2.299   5.358 -1.4140  0.8239  0.7055
  145MOL   H17729265   0.798   2.128   5.313 -1.1769 -0.4135  1.3795
  145MOL   H17829266   0.529   2.246   5.319 -1.5340 -1.2893  0.2833
  145MOL   H17929267   0.384   2.052   5.247 -0.8533  1.8294  1.5977
  145MOL   H18029268   0.493   2.103   5.116 -0.3360 -0.4893  0.1189
  145MOL   H18129269   0.486   1.932   5.163 -0.3711 -0.5794  0.8522
  145MOL   C18229270   0.613   2.165   5.514 -0.4934  0.5234 -0.1515
  145MOL   C18329271   0.485   2.107   5.573 -0.0424  0.2815 -0.0611
  145MOL   O18429272   0.526   2.080   5.703 -0.3625 -0.7914  0.4963
  145MOL   C18529273   0.510   1.940   5.730  0.0931  0.5117 -0.1760
  145MOL   H18629274   0.633   2.263   5.557  0.1667  0.2638  0.1257
  145MOL   H18729275   0.694   2.095   5.535 -0.0837  0.3204 -2.3271
  145MOL   H18829276   0.460   2.017   5.517  0.8277 -1.2530  1.9676
  145MOL   H18929277   0.406   1.913   5.711  0.2908  0.6146 -1.4137
  145MOL   H19029278   0.588   1.880   5.684  1.1151 -0.3627  2.5466
  145MOL   H19129279   0.520   1.909   5.835  0.7942  0.7697 -0.1666
  145MOL   C19229280   0.370   2.206   5.589 -0.6487  0.3019  0.3976
  145MOL   C19329281   0.228   2.145   5.613  0.3503 -0.8654 -0.5028
  145MOL   O19429282   0.131   2.254   5.604 -1.2695  0.1193  0.3658
  145MOL   C19529283   0.005   2.204   5.649 -0.3652  0.5901  0.5521
  145MOL   H19629284   0.360   2.260   5.494 -2.9623 -0.6951  0.0501
  145MOL   H19729285   0.407   2.288   5.650 -0.9514  0.7086  0.0391
  145MOL   H19829286   0.215   2.083   5.702 -1.2101 -0.4117 -0.3901
  145MOL   H19929287   7.750   2.290   5.664  1.3497  2.1484 -0.5822
  145MOL   H20029288   7.780   2.138   5.569 -0.7531  0.7035  0.6311
  145MOL   H20129289   0.008   2.155   5.746  1.0099 -0.6495 -0.0918
  145MOL   H20229290   0.217   2.075   5.531  0.0164 -2.9392  1.2871
  146MOL     C129291   7.646   6.601   3.254 -0.1380 -0.1519 -0.4921
  146MOL     C229292   7.601   6.663   3.392  0.6549 -0.4815  0.3317
  146MOL     O329293   7.485   6.741   3.370 -0.0488  0.3391 -0.0407
  146MOL     C429294   7.497   6.883   3.347  0.3012  0.2152  0.2516
  146MOL     H529295   7.746   6.557   3.260  0.2626  1.0146  2.4958
  146MOL     H629296   7.574   6.530   3.214  1.1059 -1.2440 -0.8310
  146MOL     H729297   7.683   6.729   3.422  1.4242 -1.0213 -0.5495
  146MOL     H829298   7.564   6.933   3.416 -1.5742  0.2950  2.0844
  146MOL     H929299   7.519   6.907   3.243  2.3994 -0.1779  0.5953
  146MOL    H1029300   7.399   6.929   3.365  0.0111  0.2711 -1.3640
  146MOL    H1129301   7.669   6.683   3.186 -0.3422  0.2707 -0.0591
  146MOL    C1229302   7.578   6.559   3.499 -0.1272  0.0787  0.5697
  146MOL    C1329303   7.501   6.612   3.621  0.0608  0.5741 -0.6554
  146MOL    O1429304   7.470   6.510   3.712  0.2590 -0.5184 -0.4368
  146MOL    C1529305   7.343   6.458   3.717 -0.5534  0.0339  0.1057
  146MOL    H1629306   7.675   6.519   3.525  0.4174  2.1389  1.7744
  146MOL    H1729307   7.518   6.484   3.447  0.5007  0.1007 -0.1842
  146MOL    H1829308   7.405   6.651   3.587 -0.0894  0.3332 -0.5088
  146MOL    H1929309   7.345   6.421   3.820 -1.1279  1.8400  0.7853
  146MOL    H2029310   7.264   6.532   3.708 -0.5892 -0.3415 -2.8359
  146MOL    H2129311   7.325   6.376   3.648  2.0019 -0.5347  0.0695
  146MOL    C2229312   7.581   6.711   3.707  0.8278 -0.3059  0.3989
  146MOL    C2329313   7.494   6.793   3.801  0.2863 -0.0759 -0.4047
  146MOL    O2429314   7.578   6.883   3.877  0.3627  0.0799 -0.3212
  146MOL    C2529315   7.674   6.816   3.957 -0.2404 -0.5629  0.0810
  146MOL    H2629316   7.632   6.785   3.645  2.0887 -1.2218  0.3167
  146MOL    H2729317   7.657   6.652   3.759  2.0177  0.4293 -0.4763
  146MOL    H2829318   7.451   6.724   3.874  1.5545 -1.7758 -1.2283
  146MOL    H2929319   7.637   6.718   3.986 -0.9663 -0.3892 -0.2529
  146MOL    H3029320   7.772   6.802   3.910 -0.4756 -0.7104 -0.3733
  146MOL    H3129321   7.688   6.875   4.047 -1.2932 -0.2904  0.0671
  146MOL    C3229322   7.378   6.871   3.734 -0.8618  0.3629 -0.0984
  146MOL    C3329323   7.276   6.941   3.819 -0.1804 -0.2081 -0.0702
  146MOL    O3429324   7.196   7.050   3.765 -0.5200  0.3796  0.3513
  146MOL    C3529325   7.249   7.178   3.784  0.0400 -0.7916  0.5334
  146MOL    H3629326   7.324   6.809   3.661  0.4440  3.6883 -4.0841
  146MOL    H3729327   7.422   6.951   3.675  1.2241 -1.2002 -0.7105
  146MOL    H3829328   7.331   6.994   3.897 -1.9866  1.8348 -0.1581
  146MOL    H3929329   7.345   7.190   3.733 -0.5497 -0.9495 -0.6478
  146MOL    H4029330   7.174   7.253   3.760 -0.0169 -0.5854  1.3449
  146MOL    H4129331   7.263   7.192   3.891  0.6240  4.6218 -0.0991
  146MOL    C4229332   7.173   6.840   3.883  0.2053 -0.7136 -0.4777
  146MOL    C4329333   7.073   6.902   3.986  0.8645  0.2353 -0.5310
  146MOL    O4429334   6.954   6.958   3.931 -0.2970 -0.2976 -0.4206
  146MOL    C4529335   6.938   7.095   3.947  0.2992  0.3647  0.2055
  146MOL    H4629336   7.241   6.772   3.935  1.6694  1.1002  0.0294
  146MOL    H4729337   7.113   6.789   3.808 -0.3102  0.6344 -0.9800
  146MOL    H4829338   7.130   6.973   4.047 -1.0675 -0.1726  1.7882
  146MOL    H4929339   6.952   7.129   4.049  0.7844  0.4244  0.1173
  146MOL    H5029340   7.013   7.143   3.885 -0.0698  2.2007  1.1528
  146MOL    H5129341   6.839   7.118   3.908  0.8321 -0.2319 -1.5552
  146MOL    C5229342   7.044   6.798   4.086  0.0777  0.6857  0.7715
  146MOL    C5329343   6.981   6.848   4.216  0.3685  0.0615 -0.1249
  146MOL    O5429344   6.846   6.891   4.197 -0.3329  0.1013  0.3462
  146MOL    C5529345   6.758   6.789   4.157  0.1347  0.3305 -0.4873
  146MOL    H5629346   7.136   6.756   4.126 -0.1884  0.0769  0.7501
  146MOL    H5729347   6.986   6.719   4.038 -0.1688  2.6338 -2.2552
  146MOL    H5829348   7.016   6.949   4.237 -0.0662  0.6252 -2.0447
  146MOL    H5929349   6.773   6.773   4.050 -1.0319 -0.4681 -0.5368
  146MOL    H6029350   6.748   6.699   4.218  2.3199  0.9649  0.8580
  146MOL    H6129351   6.657   6.830   4.155 -0.7966 -1.8702 -0.4742
  146MOL    C6229352   6.984   6.749   4.332  0.3647  0.2921 -0.2316
  146MOL    C6329353   7.122   6.757   4.407  0.3582 -0.4128  0.0809
  146MOL    O6429354   7.149   6.891   4.436 -0.2564  0.7447 -0.0456
  146MOL    C6529355   7.288   6.926   4.437  0.2133  0.2725 -0.0659
  146MOL    H6629356   6.964   6.647   4.301 -0.1308  0.4521 -0.4358
  146MOL    H6729357   6.915   6.768   4.414 -2.2943  0.0585 -2.3306
  146MOL    H6829358   7.201   6.725   4.339 -1.0679 -2.5997 -0.6055
  146MOL    H6929359   7.355   6.910   4.352  0.0491  0.9326 -0.3220
  146MOL    H7029360   7.292   7.035   4.449 -0.5985  0.3037 -0.1149
  146MOL    H7129361   7.333   6.885   4.527  1.3085  0.6698 -0.4099
  146MOL    C7229362   7.133   6.649   4.522 -0.3184  0.1545 -0.1444
  146MOL    C7329363   7.158   6.509   4.465  0.4198 -0.2402 -0.2614
  146MOL    O7429364   7.285   6.500   4.402 -0.4810  0.4742 -0.8005
  146MOL    C7529365   7.287   6.452   4.277 -0.5870  0.7180  0.3733
  146MOL    H7629366   7.040   6.650   4.580 -0.8436 -0.2849 -0.9707
  146MOL    H7729367   7.210   6.677   4.593 -0.1305  0.2163 -0.3728
  146MOL    H7829368   7.076   6.482   4.397 -1.2520  2.6786  0.5115
  146MOL    H7929369   7.237   6.528   4.216  0.6214 -0.2605 -1.9215
  146MOL    H8029370   7.391   6.429   4.252 -0.7765  0.5894 -0.3267
  146MOL    H8129371   7.238   6.356   4.262  3.0323 -1.1197 -0.4779
  146MOL    C8229372   7.153   6.389   4.562  0.5588  0.0563 -0.6277
  146MOL    C8329373   7.030   6.392   4.658  0.1209 -0.4961 -0.5241
  146MOL    O8429374   6.920   6.428   4.571 -0.1973  0.2605 -0.2841
  146MOL    C8529375   6.815   6.498   4.637 -0.7501  0.5337 -0.0861
  146MOL    H8629376   7.247   6.376   4.616  0.7434 -0.8973 -1.1743
  146MOL    H8729377   7.137   6.298   4.505 -3.6016  0.8871 -0.9292
  146MOL    H8829378   7.041   6.466   4.736 -2.5448  0.4249 -0.9820
  146MOL    H8929379   6.851   6.600   4.645  1.5109 -0.1708 -0.8326
  146MOL    H9029380   6.732   6.506   4.568 -1.3782 -0.7458  0.4961
  146MOL    H9129381   6.777   6.458   4.731 -1.8334  0.2359 -0.6402
  146MOL    C9229382   7.004   6.254   4.730  0.5371  0.0930  0.6171
  146MOL    C9329383   7.098   6.210   4.848  0.0463 -0.3045 -0.0267
  146MOL    O9429384   7.220   6.186   4.779  0.4253 -0.0817 -0.1185
  146MOL    C9529385   7.343   6.165   4.858  0.9781  0.5880  0.1685
  146MOL    H9629386   7.007   6.183   4.647  1.8631  0.9654 -0.0955
  146MOL    H9729387   6.898   6.252   4.758  0.2286 -0.1078 -0.5346
  146MOL    H9829388   7.059   6.117   4.890 -0.4637  0.2719  0.7680
  146MOL    H9929389   7.372   6.261   4.901 -1.0708  1.6388 -0.7066
  146MOL   H10029390   7.327   6.084   4.929 -0.3404  0.0284 -0.7305
  146MOL   H10129391   7.421   6.130   4.790 -1.0752 -1.1232 -1.3782
  146MOL   C10229392   7.120   6.311   4.964 -1.1166  0.1306  0.2826
  146MOL   C10329393   6.990   6.353   5.023  0.3848  0.2117 -0.6766
  146MOL   O10429394   6.925   6.249   5.102  0.2022 -0.1388 -0.0486
  146MOL   C10529395   6.784   6.253   5.115 -0.3482  0.1577 -0.5080
  146MOL   H10629396   7.179   6.396   4.928 -0.8913  0.4461  1.3762
  146MOL   H10729397   7.178   6.271   5.047 -2.3590 -0.1313  1.0289
  146MOL   H10829398   6.920   6.383   4.945  0.0539 -1.1546 -0.9144
  146MOL   H10929399   6.765   6.166   5.178 -2.4199  0.4290 -0.7299
  146MOL   H11029400   6.754   6.345   5.165 -0.6479 -0.1614 -0.1044
  146MOL   H11129401   6.732   6.234   5.021  1.8934  1.1503 -2.0099
  146MOL   C11229402   6.997   6.466   5.123 -0.7145  0.0058 -0.0513
  146MOL   C11329403   7.058   6.599   5.076  0.2653  0.2549 -0.6329
  146MOL   O11429404   6.974   6.633   4.965  0.0714 -0.3880 -0.9960
  146MOL   C11529405   7.012   6.736   4.875  0.2761 -0.7121 -0.4672
  146MOL   H11629406   7.073   6.438   5.196 -0.6754 -1.1941 -0.5413
  146MOL   H11729407   6.909   6.494   5.181  1.2292  2.6522  1.7511
  146MOL   H11829408   7.163   6.588   5.051  0.3275 -0.6766 -0.0006
  146MOL   H11929409   7.108   6.709   4.830  0.4252 -2.9872  1.1265
  146MOL   H12029410   6.941   6.749   4.794 -1.6864 -0.3387  1.2663
  146MOL   H12129411   7.031   6.831   4.925 -4.4089  0.3160 -0.4076
  146MOL   C12229412   7.052   6.708   5.188 -0.1349  0.9379  0.1809
  146MOL   C12329413   7.116   6.666   5.321 -0.3666 -0.7402  0.3021
  146MOL   O12429414   7.250   6.623   5.290  0.7779 -0.8196  0.3295
  146MOL   C12529415   7.321   6.565   5.395 -0.2101  0.2023  0.3075
  146MOL   H12629416   6.948   6.728   5.214 -0.0651  1.3682  0.1323
  146MOL   H12729417   7.103   6.801   5.161  1.8361 -0.0706  0.3699
  146MOL   H12829418   7.053   6.583   5.353 -1.4059 -0.9118 -2.0799
  146MOL   H12929419   7.350   6.643   5.467 -0.2162 -2.4679  3.2948
  146MOL   H13029420   7.264   6.492   5.452 -0.8046 -1.1205 -1.9133
  146MOL   H13129421   7.418   6.525   5.365 -0.5154 -0.7449  0.5788
  146MOL   C13229422   7.116   6.759   5.439  0.7697 -0.7097 -0.2049
  146MOL   C13329423   6.970   6.792   5.482  1.2065  0.1739  0.0233
  146MOL   O13429424   6.890   6.673   5.484  0.4021  0.3130 -0.0899
  146MOL   C13529425   6.752   6.699   5.445 -0.1345 -0.7007  0.4313
  146MOL   H13629426   7.174   6.849   5.420  1.4941 -1.1051  0.0903
  146MOL   H13729427   7.161   6.715   5.529 -2.0310  0.2402  1.7097
  146MOL   H13829428   6.927   6.853   5.403  1.4443  0.1747 -0.1049
  146MOL   H13929429   6.703   6.601   5.446 -0.6741 -0.5081 -3.1024
  146MOL   H14029430   6.707   6.774   5.510  1.0825  1.1497 -0.8338
  146MOL   H14129431   6.757   6.737   5.344 -1.2105 -0.6388  0.4029
  146MOL   C14229432   6.961   6.864   5.613 -0.3090  0.0865  0.4682
  146MOL   C14329433   6.991   7.014   5.598 -0.4279  0.1571 -0.2135
  146MOL   O14429434   6.892   7.066   5.503  0.4035 -0.1518  0.1515
  146MOL   C14529435   6.939   7.162   5.406 -0.0756 -0.5609  0.2477
  146MOL   H14629436   7.030   6.806   5.674  0.4441 -1.1517 -1.5160
  146MOL   H14729437   6.861   6.854   5.655 -0.6738  2.4276  0.2278
  146MOL   H14829438   7.086   7.031   5.549 -0.3648  2.3776  0.6149
  146MOL   H14929439   7.025   7.125   5.349 -1.2584 -2.6368 -0.2050
  146MOL   H15029440   6.848   7.181   5.348  0.1568  1.4799  0.4925
  146MOL   H15129441   6.971   7.253   5.457  0.7944  0.9810 -2.8532
  146MOL   C15229442   6.983   7.093   5.729  0.2358 -0.2275  0.6179
  146MOL   C15329443   7.097   7.059   5.834  0.6180 -0.0216  0.1729
  146MOL   O15429444   7.222   7.067   5.769  0.2231  0.2378 -0.7978
  146MOL   C15529445   7.321   6.971   5.817  0.3989 -0.1348 -0.0551
  146MOL   H15629446   6.883   7.075   5.769 -0.2933 -0.4930 -0.8038
  146MOL   H15729447   6.977   7.194   5.689 -0.4330 -0.4868  0.0503
  146MOL   H15829448   7.089   6.955   5.865 -0.1082 -0.2793 -0.8220
  146MOL   H15929449   7.415   7.012   5.780 -0.0136  1.2002  0.3706
  146MOL   H16029450   7.321   6.973   5.926  0.0120 -0.3413 -0.0515
  146MOL   H16129451   7.310   6.870   5.777  0.5191  0.0445 -0.5347
  146MOL   C16229452   7.090   7.145   5.955  0.0723  0.1728 -0.0435
  146MOL   C16329453   7.129   7.286   5.935 -0.7538 -0.7470 -0.3120
  146MOL   O16429454   7.015   7.374   5.912  0.2331 -0.0820 -0.0089
  146MOL   C16529455   7.048   7.510   5.869 -0.0178  0.4156 -0.4439
  146MOL   H16629456   7.163   7.110   6.028  0.8748 -2.1721 -1.9019
  146MOL   H16729457   6.991   7.139   6.000 -0.1844  0.8366 -0.5314
  146MOL   H16829458   7.181   7.305   5.840  0.1297  1.0065  0.4933
  146MOL   H16929459   7.095   7.520   5.772 -0.5137 -1.3310 -0.8844
  146MOL   H17029460   6.949   7.554   5.857 -0.5074 -0.6584 -0.4763
  146MOL   H17129461   7.115   7.572   5.928  0.6837  0.2877 -1.1069
  146MOL   C17229462   7.214   7.337   6.054 -0.4360  0.7030  0.6262
  146MOL   C17329463   7.363   7.289   6.037  0.2641  0.4931 -0.7749
  146MOL   O17429464   7.400   7.342   5.916 -0.2492  0.1627  0.3446
  146MOL   C17529465   7.509   7.293   5.844 -0.4363  0.2447  0.6651
  146MOL   H17629466   7.174   7.297   6.147 -1.3526 -0.4591 -0.2489
  146MOL   H17729467   7.216   7.446   6.060 -1.5274  0.7283  0.6155
  146MOL   H17829468   7.369   7.180   6.028 -1.2787  0.1515  1.7477
  146MOL   H17929469   7.604   7.339   5.871 -0.3757  1.9875 -2.2862
  146MOL   H18029470   7.535   7.188   5.858 -1.3049 -0.1137 -0.3265
  146MOL   H18129471   7.473   7.314   5.743 -2.4365  0.9882  1.5310
  146MOL   C18229472   7.450   7.359   6.143 -0.4659  0.1828  0.7133
  146MOL   C18329473   7.401   7.343   6.291 -0.0447 -0.2093  0.2414
  146MOL   O18429474   7.421   7.210   6.329  0.4786  0.6594  0.0739
  146MOL   C18529475   7.316   7.159   6.414 -0.3261  0.1020 -0.4841
  146MOL   H18629476   7.444   7.465   6.119 -1.9309  0.6724  3.0884
  146MOL   H18729477   7.556   7.333   6.137  0.0021  2.3627 -1.1314
  146MOL   H18829478   7.297   7.373   6.301 -0.5296 -2.2760  1.8068
  146MOL   H18929479   7.215   7.160   6.371 -1.1404 -1.4594  1.3265
  146MOL   H19029480   7.331   7.054   6.441 -0.1183  0.4070  0.6077
  146MOL   H19129481   7.300   7.221   6.502 -0.2016  0.9530 -1.0562
  146MOL   C19229482   7.473   7.448   6.387 -0.0631 -0.8106 -0.1480
  146MOL   C19329483   7.440   7.589   6.359 -0.8469 -0.0180  0.0948
  146MOL   O19429484   7.494   7.669   6.458  0.0539 -0.3839 -0.2184
  146MOL   C19529485   7.432   7.793   6.479  0.1277 -0.4931  0.3532
  146MOL   H19629486   7.581   7.435   6.388  0.0821  0.3134 -0.9212
  146MOL   H19729487   7.449   7.430   6.491  2.6259 -0.9551  0.4631
  146MOL   H19829488   7.332   7.606   6.355 -0.8300 -0.0258 -0.5623
  146MOL   H19929489   7.485   0.043   6.551 -1.6639 -0.6023  1.7994
  146MOL   H20029490   7.413   0.041   6.389  1.0580  0.9632  1.0937
  146MOL   H20129491   7.336   7.767   6.524 -0.6965  1.3448 -0.3189
  146MOL   H20229492   7.481   7.623   6.264  0.2613 -0.3444  0.4530
  147MOL     C129493   5.246   4.102   3.249  0.1391  0.5809 -0.6413
  147MOL     C229494   5.378   4.028   3.225  0.3163  0.8275  0.4172
  147MOL     O329495   5.491   4.080   3.299 -0.4622  0.4212 -0.1672
  147MOL     C429496   5.540   4.202   3.248 -0.0214 -0.3081 -0.1233
  147MOL     H529497   5.243   4.195   3.192 -2.3755 -0.4965 -2.3317
  147MOL     H629498   5.176   4.046   3.188  0.1622 -1.0342  0.7729
  147MOL     H729499   5.398   4.025   3.118 -2.9862  1.6161 -0.2733
  147MOL     H829500   5.582   4.182   3.149  3.4960  1.3889  0.9487
  147MOL     H929501   5.461   4.274   3.227 -1.0773 -1.0957  1.0656
  147MOL    H1029502   5.624   4.248   3.298  0.6482 -2.6316  0.9503
  147MOL    H1129503   5.212   4.113   3.352 -1.6231 -1.6690 -0.9676
  147MOL    C1229504   5.369   3.883   3.274  0.0673 -0.4606  0.3588
  147MOL    C1329505   5.294   3.790   3.178  0.0409  0.4329 -0.2242
  147MOL    O1429506   5.367   3.798   3.051  0.3702  0.1295 -0.5602
  147MOL    C1529507   5.278   3.796   2.940 -0.3063 -0.1587  0.3348
  147MOL    H1629508   5.328   3.879   3.375 -1.6154  0.9759 -0.2543
  147MOL    H1729509   5.475   3.858   3.279  0.0915 -0.1570  1.7419
  147MOL    H1829510   5.194   3.830   3.167 -0.9598 -2.1711 -1.1785
  147MOL    H1929511   5.218   3.707   2.920 -2.9852  1.7524 -0.3589
  147MOL    H2029512   5.205   3.876   2.949 -0.0515  0.2808 -1.3363
  147MOL    H2129513   5.343   3.816   2.855  0.6027 -0.6756  0.8950
  147MOL    C2229514   5.295   3.645   3.240 -0.1785 -0.8862 -0.0070
  147MOL    C2329515   5.206   3.533   3.173  0.0357  0.4417 -0.5113
  147MOL    O2429516   5.237   3.403   3.235  0.8162  0.0812 -0.0918
  147MOL    C2529517   5.341   3.330   3.170  0.9862 -0.3181  0.2191
  147MOL    H2629518   5.270   3.654   3.346  0.3111  1.8665 -0.1000
  147MOL    H2729519   5.401   3.623   3.228  0.3837  0.8360  1.5476
  147MOL    H2829520   5.223   3.525   3.065 -0.6860 -2.5028 -0.4332
  147MOL    H2929521   5.348   3.227   3.206  0.0722 -1.0074 -1.5303
  147MOL    H3029522   5.322   3.322   3.063 -0.0390 -0.2559  0.3913
  147MOL    H3129523   5.441   3.374   3.175  0.5254  0.7720 -0.0598
  147MOL    C3229524   5.057   3.570   3.204  0.1283 -0.1220 -0.1349
  147MOL    C3329525   4.949   3.471   3.150  0.1250 -0.5482 -0.0197
  147MOL    O3429526   4.824   3.508   3.206 -0.3032 -0.0587  0.0541
  147MOL    C3529527   4.790   3.447   3.329 -0.3521  0.0201 -0.0975
  147MOL    H3629528   5.034   3.671   3.168 -1.6002  0.2188  1.8689
  147MOL    H3729529   5.048   3.572   3.312  0.3272 -0.8214 -0.1047
  147MOL    H3829530   4.966   3.372   3.193 -2.5475 -1.7159 -1.4685
  147MOL    H3929531   4.786   3.339   3.317 -0.6742 -0.0088  0.2377
  147MOL    H4029532   4.868   3.458   3.404  0.7792 -0.6544 -1.1719
  147MOL    H4129533   4.694   3.484   3.365 -1.2060  0.9647 -3.2121
  147MOL    C4229534   4.936   3.461   2.997  0.2926  0.2345  0.0477
  147MOL    C4329535   4.856   3.334   2.953 -0.5573  0.5984  0.0739
  147MOL    O4429536   4.838   3.346   2.807  0.4834 -0.6463  0.5737
  147MOL    C4529537   4.718   3.397   2.748 -0.6915  0.1533  0.3756
  147MOL    H4629538   5.034   3.460   2.949  0.6727  0.6342  0.8052
  147MOL    H4729539   4.886   3.545   2.950 -0.5566 -1.0121 -1.2873
  147MOL    H4829540   4.758   3.314   2.996 -0.3659 -0.0349  0.2145
  147MOL    H4929541   4.709   3.504   2.769  1.6416  0.2147  1.1528
  147MOL    H5029542   4.718   3.395   2.639  0.1861 -0.5136  0.3857
  147MOL    H5129543   4.634   3.338   2.784  0.4646 -1.7187  0.0756
  147MOL    C5229544   4.939   3.203   2.972 -0.5801 -0.5848  0.7463
  147MOL    C5329545   4.865   3.079   2.989  0.3324  0.3923 -0.5898
  147MOL    O5429546   4.804   3.051   2.862  0.3021  0.7335 -0.0281
  147MOL    C5529547   4.684   2.972   2.867  0.7226 -0.1235 -0.3223
  147MOL    H5629548   4.989   3.214   3.068  1.0786 -0.8225 -0.0784
  147MOL    H5729549   5.018   3.203   2.897 -0.9503 -2.3178  0.3273
  147MOL    H5829550   4.791   3.093   3.067  1.9722 -1.3779  1.3671
  147MOL    H5929551   4.704   2.870   2.901 -1.3060  0.3238  2.4454
  147MOL    H6029552   4.599   3.018   2.918 -0.0185  0.7642 -2.3165
  147MOL    H6129553   4.671   2.972   2.759 -1.8707  0.5844 -0.0486
  147MOL    C6229554   4.950   2.952   3.025  0.7864  0.1214  0.1351
  147MOL    C6329555   5.047   2.970   3.139 -0.3324  0.6185 -0.4529
  147MOL    O6429556   4.967   2.993   3.258 -0.7626  0.3741  0.0876
  147MOL    C6529557   5.020   3.080   3.355 -0.8361  0.2634 -0.7584
  147MOL    H6629558   5.004   2.907   2.942 -0.1643 -0.2307 -0.3014
  147MOL    H6729559   4.876   2.879   3.057  0.4664  0.1567 -0.5264
  147MOL    H6829560   5.108   3.058   3.122  1.4415 -0.6368 -0.6912
  147MOL    H6929561   4.948   3.100   3.434 -1.2780  0.2179 -1.1465
  147MOL    H7029562   5.086   3.008   3.404 -2.3858 -0.0816  0.8879
  147MOL    H7129563   5.058   3.171   3.309 -1.2272 -0.6051 -2.8391
  147MOL    C7229564   5.133   2.851   3.169 -0.2207  0.5150 -0.0974
  147MOL    C7329565   5.249   2.810   3.072 -0.1053  0.4033  0.1486
  147MOL    O7429566   5.339   2.915   3.093 -0.1137 -0.1353 -0.0923
  147MOL    C7529567   5.358   3.000   2.982  0.3257  0.0083  0.4133
  147MOL    H7629568   5.077   2.759   3.187  4.7814 -2.5424  0.9420
  147MOL    H7729569   5.178   2.861   3.268  0.8516 -0.4568 -0.4743
  147MOL    H7829570   5.213   2.790   2.971  3.1150  0.0735 -0.9965
  147MOL    H7929571   5.373   2.938   2.893  1.7364  0.4421  0.3366
  147MOL    H8029572   5.268   3.058   2.962 -1.4678 -3.1821 -1.0888
  147MOL    H8129573   5.442   3.069   2.984 -0.3072  0.8749 -1.6641
  147MOL    C8229574   5.313   2.681   3.119 -0.2770  0.4976 -0.0796
  147MOL    C8329575   5.451   2.654   3.053 -0.0592 -0.2270 -0.7569
  147MOL    O8429576   5.526   2.575   3.144 -0.2895  0.0516  0.6849
  147MOL    C8529577   5.599   2.644   3.245  0.1302  0.5961 -0.3013
  147MOL    H8629578   5.243   2.600   3.098  0.1273  0.4450 -1.2704
  147MOL    H8729579   5.334   2.691   3.226  3.8052 -0.9092 -0.6744
  147MOL    H8829580   5.516   2.740   3.039 -0.0792 -0.2636 -1.0654
  147MOL    H8929581   5.697   2.667   3.202 -0.0519  1.2700 -0.3638
  147MOL    H9029582   5.559   2.742   3.272 -2.6472 -0.2194 -1.3161
  147MOL    H9129583   5.614   2.578   3.330  0.2700  0.4213 -0.4607
  147MOL    C9229584   5.439   2.581   2.921  0.3278  1.0421  0.6204
  147MOL    C9329585   5.555   2.578   2.820  0.3562 -0.3953 -0.0204
  147MOL    O9429586   5.516   2.477   2.730 -0.6542 -0.4865  0.0595
  147MOL    C9529587   5.599   2.367   2.735  0.3299  0.1583 -0.9227
  147MOL    H9629588   5.347   2.600   2.865 -0.0485 -0.4993  0.7037
  147MOL    H9729589   5.431   2.474   2.939 -0.3448  0.6829 -1.5986
  147MOL    H9829590   5.639   2.549   2.884 -0.9500 -1.6129  1.1911
  147MOL    H9929591   5.702   2.391   2.759  1.0764 -2.7634 -1.0621
  147MOL   H10029592   5.570   2.312   2.824 -0.4710  0.8489 -0.7456
  147MOL   H10129593   5.592   2.305   2.645 -1.0023  1.0073 -1.4315
  147MOL   C10229594   5.566   2.714   2.753 -0.4715 -0.4156 -0.3499
  147MOL   C10329595   5.693   2.734   2.668 -0.5002  0.4135 -0.1669
  147MOL   O10429596   5.808   2.683   2.746 -0.0289  0.2783  0.7031
  147MOL   C10529597   5.830   2.753   2.865  0.0535 -0.0557  0.8358
  147MOL   H10629598   5.546   2.800   2.817  0.6785  0.4923 -1.2079
  147MOL   H10729599   5.490   2.730   2.677 -0.8098  0.2197  0.1161
  147MOL   H10829600   5.714   2.833   2.626  0.9003 -0.5827 -1.9162
  147MOL   H10929601   5.814   2.860   2.853  1.4379  0.1883  1.0933
  147MOL   H11029602   5.776   2.731   2.957 -0.7378  0.5200  0.5181
  147MOL   H11129603   5.936   2.743   2.889  0.5344  0.7664 -0.8202
  147MOL   C11229604   5.687   2.645   2.537 -0.2935  0.7617  0.3175
  147MOL   C11329605   5.803   2.670   2.443  0.0085 -0.2218 -0.3854
  147MOL   O11429606   5.831   2.560   2.363 -0.1158  0.1831 -0.2780
  147MOL   C11529607   5.907   2.459   2.428 -0.0191 -0.2843 -0.4668
  147MOL   H11629608   5.598   2.651   2.475  0.6811  1.1189 -1.0727
  147MOL   H11729609   5.674   2.540   2.562  0.2150  0.9476  1.4264
  147MOL   H11829610   5.887   2.691   2.510 -0.8507  0.8445  0.4000
  147MOL   H11929611   5.999   2.497   2.472 -1.3064  0.5824  1.5448
  147MOL   H12029612   5.863   2.419   2.520 -1.2909 -1.2682 -1.4738
  147MOL   H12129613   5.930   2.377   2.360  2.3428 -0.7388  0.8387
  147MOL   C12229614   5.777   2.787   2.345 -0.7017  0.0984 -0.2761
  147MOL   C12329615   5.902   2.847   2.273 -0.0855 -0.1711  0.2325
  147MOL   O12429616   5.845   2.913   2.165  0.5849 -0.0403  0.4296
  147MOL   C12529617   5.869   2.859   2.033  0.5157 -0.5066 -0.2616
  147MOL   H12629618   5.713   2.863   2.391 -0.1876  0.1435  0.3723
  147MOL   H12729619   5.715   2.758   2.260 -0.7373  0.9364 -0.5444
  147MOL   H12829620   5.969   2.765   2.247  0.8509 -0.4182  3.3160
  147MOL   H12929621   5.939   2.922   1.979  0.4149 -0.3353 -0.1965
  147MOL   H13029622   5.910   2.758   2.040  0.2714 -0.5595  0.5616
  147MOL   H13129623   5.780   2.847   1.971 -0.1147  0.8851  0.3387
  147MOL   C13229624   5.986   2.946   2.352  0.8798 -0.2574 -0.1453
  147MOL   C13329625   6.112   3.005   2.276 -0.2147 -1.1598 -0.4465
  147MOL   O13429626   6.165   3.109   2.358 -0.1233 -0.1162 -0.3455
  147MOL   C13529627   6.100   3.226   2.323 -0.3875  0.0412  0.2730
  147MOL   H13629628   6.008   2.900   2.448  0.8404 -0.3841 -0.1965
  147MOL   H13729629   5.922   3.028   2.384 -0.1621 -0.9930 -0.3160
  147MOL   H13829630   6.086   3.038   2.175  0.7895  0.6408 -0.1376
  147MOL   H13929631   6.134   3.318   2.372  0.5824 -0.0597 -0.2049
  147MOL   H14029632   6.135   3.241   2.221  1.0860  1.2043  0.9120
  147MOL   H14129633   5.991   3.228   2.324 -0.3703  1.6129  1.0188
  147MOL   C14229634   6.213   2.890   2.264 -0.0492  0.5149 -0.2621
  147MOL   C14329635   6.349   2.934   2.201  0.3516  0.7266  0.4408
  147MOL   O14429636   6.436   2.820   2.202  0.3635 -0.1226  0.5565
  147MOL   C14529637   6.515   2.803   2.320  0.3683 -0.6942  0.1786
  147MOL   H14629638   6.179   2.804   2.206  0.6411 -0.1236  0.2515
  147MOL   H14729639   6.242   2.853   2.363  0.7765  0.4979 -0.5089
  147MOL   H14829640   6.395   3.014   2.258  2.2838  0.6399 -0.9479
  147MOL   H14929641   6.571   2.896   2.329 -0.7185  0.0250 -0.3802
  147MOL   H15029642   6.454   2.781   2.407 -1.4329 -1.5868 -1.2782
  147MOL   H15129643   6.580   2.715   2.309  2.2546  0.4784  1.5733
  147MOL   C15229644   6.346   2.970   2.054  0.4289  0.0234  0.8398
  147MOL   C15329645   6.480   3.029   2.006 -0.4947 -0.6062  0.2578
  147MOL   O15429646   6.508   3.008   1.862  0.0304  0.1960  0.1607
  147MOL   C15529647   6.417   3.065   1.757  0.3372  0.0149 -0.0108
  147MOL   H15629648   6.256   3.028   2.034  0.5320 -0.4756 -1.1337
  147MOL   H15729649   6.327   2.877   2.001  0.7775  0.8891 -0.8132
  147MOL   H15829650   6.558   2.969   2.053  0.4057  1.2611  1.1673
  147MOL   H15929651   6.437   3.025   1.658 -0.9608  1.6130 -0.9342
  147MOL   H16029652   6.315   3.027   1.758 -0.5924  2.4085 -0.8490
  147MOL   H16129653   6.413   3.173   1.751 -1.0167 -0.0288 -0.0899
  147MOL   C16229654   6.505   3.175   2.051 -0.7378 -0.2204 -0.1129
  147MOL   C16329655   6.655   3.212   2.028 -0.2613  0.3834  0.3861
  147MOL   O16429656   6.667   3.346   2.002  0.6773  0.0757  0.3800
  147MOL   C16529657   6.745   3.362   1.882  0.3656  0.2935  0.4750
  147MOL   H16629658   6.478   3.187   2.156 -0.6580 -1.0267  0.0016
  147MOL   H16729659   6.433   3.239   2.000  1.5159  1.6407 -1.1018
  147MOL   H16829660   6.701   3.145   1.955 -2.8274  2.7252 -3.5394
  147MOL   H16929661   6.686   3.335   1.794 -2.4279  0.2001  2.3164
  147MOL   H17029662   6.766   3.468   1.867  1.1511  0.4328  2.4456
  147MOL   H17129663   6.845   3.320   1.892 -0.9438 -3.2987 -0.5830
  147MOL   C17229664   6.721   3.199   2.167 -0.0999  0.4157 -0.5390
  147MOL   C17329665   6.874   3.193   2.176  0.3034 -0.1188 -0.3422
  147MOL   O17429666   6.914   3.209   2.305 -0.8153  1.1058 -0.0497
  147MOL   C17529667   7.055   3.242   2.322 -0.0035 -0.1405  0.0462
  147MOL   H17629668   6.683   3.114   2.224 -0.0556  1.0742  0.4830
  147MOL   H17729669   6.696   3.272   2.243  0.8181  3.3017 -2.9210
  147MOL   H17829670   6.905   3.288   2.134 -0.0433  0.3759  0.5076
  147MOL   H17929671   7.066   3.196   2.420 -1.1720 -1.0355 -0.2362
  147MOL   H18029672   7.130   3.191   2.261  0.7223  0.3717  0.5012
  147MOL   H18129673   7.068   3.350   2.323  1.1656 -0.2853  1.2633
  147MOL   C18229674   6.930   3.064   2.103  0.7012  0.5008 -0.0445
  147MOL   C18329675   6.893   2.925   2.155  0.3112  1.2595 -0.5634
  147MOL   O18429676   6.902   2.827   2.053  0.0700 -0.1671  0.8857
  147MOL   C18529677   6.781   2.750   2.013 -0.0478 -0.2742  0.0835
  147MOL   H18629678   7.036   3.079   2.081  0.8986  0.6085  0.9619
  147MOL   H18729679   6.888   3.061   2.002  0.1577 -0.3973  0.2028
  147MOL   H18829680   6.796   2.930   2.204  0.7594 -1.4588  0.7170
  147MOL   H18929681   6.710   2.821   1.971  0.8123 -0.9662 -2.6376
  147MOL   H19029682   6.807   2.671   1.943  2.9631 -0.4068  1.3053
  147MOL   H19129683   6.741   2.699   2.101  0.6467 -1.3996 -0.2428
  147MOL   C19229684   6.998   2.880   2.261 -0.3994 -0.0739  0.0435
  147MOL   C19329685   6.970   2.734   2.303  0.4135  0.4978 -0.0975
  147MOL   O19429686   7.074   2.691   2.383  0.0082 -0.0451 -0.2766
  147MOL   C19529687   7.063   2.554   2.423  0.2378  0.1974 -0.1063
  147MOL   H19629688   6.982   2.940   2.351  1.7903 -1.4709  1.4206
  147MOL   H19729689   7.099   2.895   2.222 -0.5971 -1.2329 -0.9478
  147MOL   H19829690   6.976   2.662   2.221 -0.8806 -1.0773  1.1787
  147MOL   H19929691   7.064   2.488   2.336  1.8749  1.3266 -0.9613
  147MOL   H20029692   7.148   2.527   2.485 -1.1481 -1.1738  1.2511
  147MOL   H20129693   6.963   2.534   2.464 -0.2527 -1.2897 -1.9515
  147MOL   H20229694   6.872   2.718   2.348  1.4325 -1.3555  1.5408
  148MOL     C129695   7.132   2.815   5.831  0.2530  0.6818  0.3311
  148MOL     C229696   7.104   2.762   5.974  0.1829  1.0277  0.3707
  148MOL     O329697   6.959   2.776   5.989 -0.0985  0.5301  0.0034
  148MOL     C429698   6.923   2.903   6.037  0.7803 -0.3780 -0.1433
  148MOL     H529699   7.224   2.790   5.779 -0.5745 -2.0683  0.1103
  148MOL     H629700   7.060   2.780   5.757 -0.6195  0.2231  1.3792
  148MOL     H729701   7.164   2.805   6.055  1.2452  2.4844 -1.1625
  148MOL     H829702   6.963   2.920   6.137 -0.1566  1.1788 -0.0250
  148MOL     H929703   6.942   2.978   5.960  0.3717 -1.6163 -1.4725
  148MOL    H1029704   6.819   2.916   6.067  1.1790  2.2708  0.2052
  148MOL    H1129705   7.130   2.923   5.848 -0.6028  0.3558  2.5290
  148MOL    C1229706   7.140   2.609   5.988 -0.1672 -0.1022  0.1676
  148MOL    C1329707   7.105   2.539   6.115  0.4912 -1.0562 -0.3796
  148MOL    O1429708   7.142   2.401   6.095  0.2705  0.0653 -0.3891
  148MOL    C1529709   7.026   2.319   6.083  0.6951 -0.2221  0.3389
  148MOL    H1629710   7.248   2.597   5.975 -0.3764  0.0388 -1.8173
  148MOL    H1729711   7.092   2.554   5.907  0.9621 -1.3941  0.3531
  148MOL    H1829712   7.003   2.564   6.146  1.0530  0.1136  0.6132
  148MOL    H1929713   6.985   2.286   6.179 -0.6373 -0.1735 -0.1997
  148MOL    H2029714   6.947   2.348   6.015  0.3440 -0.9427  0.4266
  148MOL    H2129715   7.071   2.237   6.026 -0.0234 -0.8723  0.6982
  148MOL    C2229716   7.205   2.578   6.233  0.5516  0.0317 -0.1510
  148MOL    C2329717   7.168   2.528   6.375  0.0234  0.4315 -0.1176
  148MOL    O2429718   7.271   2.562   6.463 -0.5848  0.5145  0.4563
  148MOL    C2529719   7.391   2.474   6.461  0.2992 -0.3288 -0.0457
  148MOL    H2629720   7.217   2.686   6.239  0.6288 -0.1005  2.8376
  148MOL    H2729721   7.305   2.551   6.200  0.9672  1.9959 -0.5683
  148MOL    H2829722   7.142   2.423   6.363  1.9808 -0.3549  2.2439
  148MOL    H2929723   7.387   2.366   6.481  0.4412 -0.5318 -1.0951
  148MOL    H3029724   7.438   2.479   6.363 -1.1617 -1.9120 -0.8719
  148MOL    H3129725   7.455   2.515   6.539  0.1169 -0.9936  0.4663
  148MOL    C3229726   7.049   2.617   6.418 -0.0228  0.3634  0.0529
  148MOL    C3329727   7.028   2.626   6.574 -0.2313  0.3782  0.1102
  148MOL    O3429728   6.907   2.702   6.604  0.4312 -0.3430  0.5255
  148MOL    C3529729   6.905   2.836   6.554  0.0880  0.1873 -0.0780
  148MOL    H3629730   6.965   2.574   6.364  0.8069 -0.4051 -0.6428
  148MOL    H3729731   7.074   2.716   6.381  0.6082  0.4211  0.6082
  148MOL    H3829732   7.110   2.686   6.614 -1.0617  1.7079 -0.1691
  148MOL    H3929733   7.006   2.865   6.585  0.4427 -0.2132 -0.8455
  148MOL    H4029734   6.893   2.866   6.450  2.1022  2.8911  0.4178
  148MOL    H4129735   6.827   2.893   6.603  2.0229  3.1330 -0.2870
  148MOL    C4229736   7.014   2.487   6.630 -0.3554 -0.0340 -0.1743
  148MOL    C4329737   6.997   2.470   6.784 -0.5578 -0.2016  0.3601
  148MOL    O4429738   7.048   2.335   6.816  0.0498  0.1120 -0.1483
  148MOL    C4529739   6.964   2.227   6.769 -0.0678 -0.4532  0.4718
  148MOL    H4629740   7.104   2.428   6.614 -0.5988 -0.3823 -0.2876
  148MOL    H4729741   6.934   2.427   6.584  1.7624 -0.4702 -3.4380
  148MOL    H4829742   6.891   2.475   6.808 -0.2219 -0.4646  1.9788
  148MOL    H4929743   6.860   2.226   6.803  0.5435 -0.1949  2.4030
  148MOL    H5029744   6.957   2.227   6.661 -2.0607 -1.8929  0.5799
  148MOL    H5129745   7.007   2.128   6.774 -1.3892 -1.1758 -1.7223
  148MOL    C5229746   7.074   2.560   6.875  0.6912  0.2332  0.0256
  148MOL    C5329747   7.081   2.511   7.023 -0.5541 -0.3994  0.4842
  148MOL    O5429748   7.163   2.595   7.103  0.0503  0.2220  0.1471
  148MOL    C5529749   7.303   2.595   7.075  0.3834  0.3259 -0.3123
  148MOL    H5629750   7.039   2.664   6.873  2.4365  0.8300 -0.1766
  148MOL    H5729751   7.176   2.563   6.839 -0.1788  0.1070 -2.5371
  148MOL    H5829752   7.115   2.407   7.024 -1.0453 -0.5781 -0.6912
  148MOL    H5929753   7.331   2.629   6.975  0.2503 -1.7723 -1.0962
  148MOL    H6029754   7.348   2.662   7.148 -0.3548  0.3795  0.1070
  148MOL    H6129755   7.349   2.499   7.098 -1.6875 -0.2046  1.8707
  148MOL    C6229756   6.943   2.495   7.089 -0.2534  0.0990  0.3216
  148MOL    C6329757   6.948   2.488   7.240 -0.2518  0.0333  0.1517
  148MOL    O6429758   6.824   2.471   7.303 -0.0783  0.0603  0.3962
  148MOL    C6529759   6.753   2.596   7.313  0.0929  0.4488 -1.1891
  148MOL    H6629760   6.879   2.417   7.047  0.8085 -0.3015 -0.5700
  148MOL    H6729761   6.885   2.583   7.058 -0.6318 -0.2717 -0.0264
  148MOL    H6829762   6.986   2.582   7.279  1.1206 -1.7923  3.4015
  148MOL    H6929763   6.669   2.586   7.382  0.4304  2.0837 -0.5210
  148MOL    H7029764   6.813   2.674   7.361 -0.0761 -0.3229  0.3061
  148MOL    H7129765   6.713   2.636   7.220  1.4740  0.8710 -1.6153
  148MOL    C7229766   7.025   2.370   7.291  0.0865 -0.3373  0.6456
  148MOL    C7329767   7.022   2.345   7.444 -0.4071 -0.2345  0.2543
  148MOL    O7429768   7.091   2.223   7.461  0.1441  0.1594 -0.2068
  148MOL    C7529769   7.015   2.106   7.459 -0.1912 -0.0684 -0.3511
  148MOL    H7629770   7.128   2.368   7.257  0.1196  0.6839  0.6761
  148MOL    H7729771   6.977   2.285   7.241  0.5387  0.5281 -1.3026
  148MOL    H7829772   6.917   2.354   7.470 -0.4394  0.0516  0.0320
  148MOL    H7929773   6.990   2.071   7.359  2.5416 -1.5507 -0.5682
  148MOL    H8029774   7.075   2.023   7.496  2.0216  1.7221  0.1224
  148MOL    H8129775   6.924   2.113   7.519 -0.3439 -2.2683 -0.2795
  148MOL    C8229776   7.111   2.448   7.524  0.0513  0.6742  1.0057
  148MOL    C8329777   7.135   2.410   7.670  0.1549  0.4864 -0.2522
  148MOL    O8429778   7.243   2.491   7.706 -0.1760  0.1684 -0.0241
  148MOL    C8529779   7.320   2.456   0.003 -0.6224 -0.2967 -0.5910
  148MOL    H8629780   7.068   2.548   7.517  2.0244  1.4443 -0.5226
  148MOL    H8729781   7.207   2.461   7.474  0.0937  2.2953  1.4617
  148MOL    H8829782   7.167   2.305   7.677 -0.0043  0.4576  0.0325
  148MOL    H8929783   7.342   2.350   0.009  3.3992  0.5321  0.9636
  148MOL    H9029784   7.422   2.492   7.804  0.3660 -2.3702  1.8163
  148MOL    H9129785   7.296   2.482   0.106  1.5650 -1.3200  0.1887
  148MOL    C9229786   6.998   2.427   7.750  0.1041 -0.6419  0.5089
  148MOL    C9329787   7.007   2.360   0.087 -0.0763  0.6198  0.4509
  148MOL    O9429788   6.887   2.389   0.165 -0.0126  0.4039 -0.1922
  148MOL    C9529789   6.899   2.486   0.267  0.3261 -0.7900 -0.2379
  148MOL    H9629790   6.904   2.395   7.704 -0.4428 -0.3937  1.4291
  148MOL    H9729791   6.994   2.536   7.757 -0.7995 -0.6283 -0.1224
  148MOL    H9829792   7.091   2.396   0.147  0.6802 -1.7345  0.8682
  148MOL    H9929793   6.968   2.458   0.347 -1.6120 -1.1378  1.3691
  148MOL   H10029794   6.951   2.576   0.234  1.4516 -1.2324  0.3071
  148MOL   H10129795   6.804   2.517   0.311  0.9007  0.2278  0.3064
  148MOL   C10229796   7.022   2.201   0.079 -0.0946 -0.1465  0.2918
  148MOL   C10329797   7.069   2.136   0.216 -0.0513  0.6728 -0.0546
  148MOL   O10429798   7.042   1.998   0.210 -0.8656 -0.1701  0.0226
  148MOL   C10529799   6.920   1.948   0.268 -0.2793 -0.2603  0.2527
  148MOL   H10629800   7.078   2.160   7.805  1.0167  0.4469  0.7313
  148MOL   H10729801   6.921   2.172   0.050  0.0877 -2.4174  1.8262
  148MOL   H10829802   6.997   2.180   0.285 -2.5265  0.4427 -2.3877
  148MOL   H10929803   6.924   1.839   0.263  0.0759 -0.1744 -1.3428
  148MOL   H11029804   6.902   1.974   0.373  0.8184  2.6207 -0.2508
  148MOL   H11129805   6.845   1.982   0.197  0.7243  3.6900  0.9799
  148MOL   C11229806   7.217   2.158   0.275  0.2628  0.5406  0.1537
  148MOL   C11329807   7.241   2.109   0.412 -0.1727  0.3784 -0.5466
  148MOL   O11429808   7.142   2.169   0.499 -0.2756 -0.2261  0.1105
  148MOL   C11529809   7.176   2.281   0.576 -0.1500 -0.4675  0.1580
  148MOL   H11629810   7.242   2.264   0.273  1.5779  0.2537  1.1535
  148MOL   H11729811   7.294   2.114   0.212 -1.1222  1.3790 -2.2049
  148MOL   H11829812   7.336   2.139   0.455  0.5947 -0.8345 -1.3734
  148MOL   H11929813   7.228   2.358   0.518 -0.1113 -2.2504 -2.2940
  148MOL   H12029814   7.090   2.340   0.608 -0.2107  1.3606 -3.1635
  148MOL   H12129815   7.231   2.249   0.664  1.3445  0.8581 -0.2716
  148MOL   C12229816   7.217   1.961   0.451 -0.4815  0.4097 -0.2956
  148MOL   C12329817   7.290   1.851   0.372 -0.4039  1.0992 -0.3667
  148MOL   O12429818   7.426   1.874   0.392  0.0237 -0.8145 -0.0001
  148MOL   C12529819   7.499   1.864   0.275 -0.6377 -0.5891 -0.2443
  148MOL   H12629820   7.109   1.946   0.454 -0.3815 -1.0609 -2.7120
  148MOL   H12729821   7.246   1.947   0.555 -0.6630  1.4960 -0.0951
  148MOL   H12829822   7.260   1.856   0.267 -1.7356 -0.2282 -0.0653
  148MOL   H12929823   7.499   1.755   0.272 -1.6693 -0.5989  0.0409
  148MOL   H13029824   7.459   1.907   0.184  1.3766 -1.9670 -1.8290
  148MOL   H13129825   7.590   1.916   0.306 -0.9821  0.3457 -0.7840
  148MOL   C13229826   7.268   1.708   0.424  0.1864 -1.2076 -0.4325
  148MOL   C13329827   7.158   1.628   0.351  0.1227 -0.2073  0.8242
  148MOL   O13429828   7.027   1.663   0.379 -0.0027 -0.2756  0.3127
  148MOL   C13529829   6.987   1.631   0.508  0.2669  0.0613 -0.0039
  148MOL   H13629830   7.253   1.716   0.531 -1.3496 -0.5861 -0.6722
  148MOL   H13729831   7.361   1.652   0.416  2.0288  1.7595 -0.7503
  148MOL   H13829832   7.181   1.531   0.394 -0.2085 -1.0573 -0.8669
  148MOL   H13929833   7.053   1.670   0.586 -0.4559 -0.7576  1.0303
  148MOL   H14029834   6.893   1.680   0.534 -1.3030 -3.3713  1.0493
  148MOL   H14129835   6.979   1.527   0.537  0.1118  0.0372 -0.1351
  148MOL   C14229836   7.176   1.611   0.192  0.1821 -0.2619 -0.7366
  148MOL   C14329837   7.299   1.539   0.142 -1.0397  1.1517  1.5021
  148MOL   O14429838   7.285   1.402   0.196 -0.0373 -0.3070  0.2245
  148MOL   C14529839   7.403   1.335   0.213 -0.9071  0.1918 -0.3416
  148MOL   H14629840   7.161   1.709   0.146 -0.2993  0.8461  1.6569
  148MOL   H14729841   7.087   1.557   0.161 -0.9737  0.3758  1.3768
  148MOL   H14829842   7.384   1.597   0.177 -1.0751  1.9462  0.3145
  148MOL   H14929843   7.465   1.324   0.124 -0.3104 -1.6404  0.2799
  148MOL   H15029844   7.464   1.382   0.289 -0.4963 -0.6811 -0.1285
  148MOL   H15129845   7.375   1.241   0.262 -0.7753 -0.8577 -2.2288
  148MOL   C15229846   7.307   1.546   7.789 -0.5014  0.0790 -0.3063
  148MOL   C15329847   7.381   1.669   7.726 -0.9349 -0.4502  0.5881
  148MOL   O15429848   7.354   1.783   7.795  0.1220 -0.4422  0.0737
  148MOL   C15529849   7.240   1.847   7.745  0.9190  0.0391  0.1990
  148MOL   H15629850   7.207   1.537   7.748 -0.6047 -1.7638  0.3089
  148MOL   H15729851   7.358   1.456   7.756  2.4732  1.6045 -0.0481
  148MOL   H15829852   7.360   1.669   7.620 -0.5797 -0.7824  0.5134
  148MOL   H15929853   7.209   1.938   7.795  0.2065 -1.1116  1.8968
  148MOL   H16029854   7.253   1.881   7.642  0.5013 -3.0920 -0.9359
  148MOL   H16129855   7.154   1.779   7.746  1.0835 -0.1685  0.9787
  148MOL   C16229856   7.538   1.641   7.737  0.5312  0.5153 -0.9091
  148MOL   C16329857   7.636   1.747   7.681 -0.6825  0.0243  0.0671
  148MOL   O16429858   7.670   1.844   7.778 -0.7046  0.0024  0.4736
  148MOL   C16529859   7.665   1.976   7.735 -0.0096  0.0964  0.0406
  148MOL   H16629860   7.556   1.541   7.698 -1.1772  0.0907 -0.6445
  148MOL   H16729861   7.565   1.624   0.030  2.0321  0.3273 -1.3087
  148MOL   H16829862   7.588   1.786   7.591 -0.4176 -0.8581 -0.4554
  148MOL   H16929863   7.747   1.992   7.665  0.7089 -0.9699  0.6244
  148MOL   H17029864   7.566   1.987   7.690  0.7484  1.2906 -1.3813
  148MOL   H17129865   7.673   2.042   0.010 -1.0660 -0.8660  0.8984
  148MOL   C17229866   7.767   1.682   7.633 -0.7276  0.2099  0.5105
  148MOL   C17329867   7.760   1.595   7.503  0.0513  0.3772 -0.2654
  148MOL   O17429868   7.750   1.661   7.382 -0.3435 -0.4260 -0.2799
  148MOL   C17529869   0.043   1.742   7.343 -0.0627  0.1012  0.2873
  148MOL   H17629870   0.001   1.631   7.718  1.1777  0.5178 -0.2713
  148MOL   H17729871   0.030   1.761   7.616 -1.3868  1.2010  2.1693
  148MOL   H17829872   7.661   1.552   7.514  0.3668 -0.0920  0.8279
  148MOL   H17929873   0.020   1.789   7.247  0.5801  3.1676  1.5716
  148MOL   H18029874   0.048   1.831   7.406 -2.4874  0.3068  0.2517
  148MOL   H18129875   0.134   1.684   7.329 -0.2623  0.1475 -1.3137
  148MOL   C18229876   0.043   1.473   7.500 -0.2146 -0.3367  0.0783
  148MOL   C18329877   0.014   1.367   7.382  0.1352  0.0459 -0.6293
  148MOL   O18429878   0.119   1.270   7.367  0.5372  0.3501  0.4913
  148MOL   C18529879   0.144   1.223   7.240  0.5361  0.0063  0.2238
  148MOL   H18629880   0.043   1.418   7.594  0.3057 -1.5234 -0.6003
  148MOL   H18729881   0.143   1.512   7.484 -0.7433  1.0520  0.1225
  148MOL   H18829882   0.026   1.426   7.291  0.7779  0.9235  0.0218
  148MOL   H18929883   0.057   1.170   7.201 -0.1562  0.1383  1.5429
  148MOL   H19029884   0.167   1.303   7.171 -2.8226  1.1606  0.3469
  148MOL   H19129885   0.231   1.158   7.248 -0.0290 -1.0476 -1.8165
  148MOL   C19229886   7.685   1.296   7.380  0.3054  0.5849 -0.1350
  148MOL   C19329887   7.663   1.193   7.492 -0.0578 -0.1604 -0.1422
  148MOL   O19429888   7.657   1.250   7.624 -0.5494 -0.7499  0.9650
  148MOL   C19529889   7.628   1.143   7.712 -0.4715 -0.3669 -0.1013
  148MOL   H19629890   7.676   1.247   7.283  0.4431  0.5322 -0.1209
  148MOL   H19729891   7.600   1.365   7.385  0.5341  1.0142 -1.6828
  148MOL   H19829892   7.747   1.124   7.482  0.1200 -0.3999  2.6533
  148MOL   H19929893   7.610   1.188   7.810 -2.1106 -1.1084 -0.0386
  148MOL   H20029894   7.531   1.095   7.697 -0.5321 -0.3231  0.1463
  148MOL   H20129895   7.700   1.063   7.725 -0.8359 -0.8087 -0.7337
  148MOL   H20229896   7.565   1.147   7.478  0.3241 -1.0012 -0.1259
  149MOL     C129897   3.480   2.127   0.849 -0.5679 -0.2017 -0.0367
  149MOL     C229898   3.483   2.014   0.746  0.7351  0.7004 -0.2210
  149MOL     O329899   3.481   1.888   0.812  0.0691 -0.3873  0.2069
  149MOL     C429900   3.583   1.838   0.893  0.4183  0.2432 -0.0265
  149MOL     H529901   3.554   2.106   0.926 -1.4488 -0.6720  0.7054
  149MOL     H629902   3.501   2.214   0.788  1.4472 -1.3233 -0.9838
  149MOL     H729903   3.577   2.025   0.693  0.6998  4.4763  0.3472
  149MOL     H829904   3.674   1.832   0.833 -0.6371 -2.1616 -1.4789
  149MOL     H929905   3.590   1.886   0.991  1.5852  0.6704 -0.3078
  149MOL    H1029906   3.557   1.733   0.910 -0.3971  0.5521  0.6846
  149MOL    H1129907   3.381   2.142   0.893  0.5533  1.6463  1.9176
  149MOL    C1229908   3.360   2.027   0.650  0.2226 -0.1906  0.0344
  149MOL    C1329909   3.363   1.956   0.513 -0.2612  0.8301  0.6877
  149MOL    O1429910   3.238   1.949   0.451  0.2798 -0.0707  0.0375
  149MOL    C1529911   3.211   1.847   0.356 -0.1337  0.5741 -0.1978
  149MOL    H1629912   3.352   2.132   0.621 -1.0374 -0.0397  0.8973
  149MOL    H1729913   3.268   1.998   0.699  0.0044  1.0270  0.3707
  149MOL    H1829914   3.390   1.851   0.530 -0.0621  1.1102  2.1937
  149MOL    H1929915   3.275   1.854   0.268 -1.5539  1.8702 -1.1615
  149MOL    H2029916   3.224   1.749   0.403  2.0190  1.4894  1.2041
  149MOL    H2129917   3.114   1.845   0.306 -1.9004  2.0374  3.0016
  149MOL    C2229918   3.466   2.018   0.410  0.5232  0.0498  0.6736
  149MOL    C2329919   3.417   2.139   0.328 -0.0099 -0.0168  0.5493
  149MOL    O2429920   3.383   2.245   0.416 -0.6346 -0.6692  0.2472
  149MOL    C2529921   3.251   2.285   0.405 -0.1589 -0.1800  0.1007
  149MOL    H2629922   3.499   1.946   0.334 -1.7403 -0.0158 -0.2905
  149MOL    H2729923   3.554   2.046   0.468 -0.5174  1.1144  1.7337
  149MOL    H2829924   3.340   2.101   0.261 -0.6996  1.1837  0.6453
  149MOL    H2929925   3.228   2.335   0.312  2.1611 -0.5970 -0.7226
  149MOL    H3029926   3.189   2.195   0.412 -0.2576 -0.0496  0.9659
  149MOL    H3129927   3.230   2.348   0.491 -1.6361  1.3802 -1.3685
  149MOL    C3229928   3.519   2.187   0.232 -0.4768 -0.4751  0.4158
  149MOL    C3329929   3.467   2.294   0.130 -0.5971 -0.2505  0.2236
  149MOL    O3429930   3.582   2.360   0.092 -0.7286 -0.8958  0.2125
  149MOL    C3529931   3.635   2.473   0.166  0.1004 -0.5250 -0.5213
  149MOL    H3629932   3.557   2.110   0.165  1.1496 -0.3683  1.1837
  149MOL    H3729933   3.606   2.218   0.289  0.3200 -1.0910 -0.4487
  149MOL    H3829934   3.404   2.363   0.187  0.1015  0.9774 -0.4659
  149MOL    H3929935   3.684   2.442   0.258  0.1383 -0.3077 -0.4688
  149MOL    H4029936   3.703   2.531   0.104  0.4862 -1.3590 -0.8907
  149MOL    H4129937   3.547   2.532   0.192  1.5210  0.7246  1.5682
  149MOL    C4229938   3.385   2.228   0.012 -0.3943 -0.4639  0.1405
  149MOL    C4329939   3.352   2.333   7.722  0.0273  0.4297 -0.3821
  149MOL    O4429940   3.297   2.269   7.609  0.2313  0.8795  0.0831
  149MOL    C4529941   3.379   2.224   7.495 -0.3883 -0.7373  0.0567
  149MOL    H4629942   3.299   2.167   0.041 -1.0844 -0.3385 -1.5333
  149MOL    H4729943   3.450   2.161   7.767 -1.1041 -0.8275 -0.2722
  149MOL    H4829944   3.437   2.389   7.685  0.5848 -1.0378 -1.3454
  149MOL    H4929945   3.422   2.313   7.449 -3.4374  0.2166 -1.0807
  149MOL    H5029946   3.467   2.176   7.538 -0.6611  0.5521  2.1126
  149MOL    H5129947   3.334   2.155   7.423 -0.6879  1.2372 -1.6681
  149MOL    C5229948   3.239   2.429   7.778 -0.2709  0.0140  0.4053
  149MOL    C5329949   3.207   2.530   7.660 -0.5356 -0.6169 -0.1363
  149MOL    O5429950   3.068   2.565   7.657  0.3343  0.0230 -0.6808
  149MOL    C5529951   2.987   2.461   7.609  0.3469 -0.1939  0.1071
  149MOL    H5629952   3.278   2.488   0.050 -1.3360 -0.7660  1.4743
  149MOL    H5729953   3.146   2.380   7.806 -0.6780 -0.4484 -1.7004
  149MOL    H5829954   3.237   2.489   7.563 -0.4370  0.8060 -0.7302
  149MOL    H5929955   2.994   2.370   7.669  1.8532  0.5629  1.0975
  149MOL    H6029956   2.886   2.503   7.605  0.3544 -0.2896 -1.1999
  149MOL    H6129957   3.013   2.444   7.505  0.2035 -0.2611  0.0813
  149MOL    C6229958   3.282   2.664   7.668  0.2289  0.3363 -0.4046
  149MOL    C6329959   3.261   2.763   7.545 -0.1576 -0.2447 -0.0703
  149MOL    O6429960   3.378   2.848   7.550  0.5033  0.1914  0.1952
  149MOL    C6529961   3.375   2.965   7.631  0.5857  0.2515  1.2548
  149MOL    H6629962   3.384   2.627   7.675  0.2842 -0.0309 -2.6832
  149MOL    H6729963   3.259   2.713   7.763 -1.5323 -1.3659  0.0817
  149MOL    H6829964   3.178   2.830   7.565 -0.2367  0.3114 -2.1399
  149MOL    H6929965   3.344   2.945   7.733 -2.2138 -1.5236  0.1104
  149MOL    H7029966   3.470   3.018   7.627  0.6379  0.1473  1.1173
  149MOL    H7129967   3.308   3.038   7.584  0.0209 -1.2375 -0.3111
  149MOL    C7229968   3.253   2.699   7.404  0.4356 -0.3459 -0.0792
  149MOL    C7329969   3.290   2.795   7.288 -0.6069  0.5972 -0.0213
  149MOL    O7429970   3.277   2.723   7.168 -0.4191 -0.0615 -0.5183
  149MOL    C7529971   3.387   2.639   7.140  0.4029  0.2364  0.5867
  149MOL    H7629972   3.153   2.661   7.382  0.9784 -1.5853 -0.4373
  149MOL    H7729973   3.309   2.606   7.397  1.0014 -0.1796  1.8462
  149MOL    H7829974   3.393   2.828   7.307 -0.9490  2.0983 -0.6629
  149MOL    H7929975   3.393   2.605   7.037 -0.8435  2.6891 -0.3492
  149MOL    H8029976   3.481   2.693   7.148  0.9411 -0.8708  1.9518
  149MOL    H8129977   3.394   2.555   7.209 -0.0175  0.5600  1.0293
  149MOL    C8229978   3.204   2.916   7.280 -0.0090 -0.8299 -0.1312
  149MOL    C8329979   3.239   3.010   7.162  0.2182  0.2786  0.4465
  149MOL    O8429980   3.130   3.102   7.138 -0.1330 -0.2212 -0.5007
  149MOL    C8529981   3.069   3.097   7.010 -0.1891 -0.8802  0.3803
  149MOL    H8629982   3.218   2.976   7.370  0.5097 -2.4643  0.9140
  149MOL    H8729983   3.102   2.876   7.279  0.6595 -2.7069  1.8243
  149MOL    H8829984   3.252   2.958   7.067  0.7758  0.5087  0.3946
  149MOL    H8929985   2.974   3.150   7.017  0.6814  0.8721 -0.7602
  149MOL    H9029986   3.132   3.131   6.927  2.0137 -0.6420  2.1070
  149MOL    H9129987   3.044   2.995   6.979  0.0755 -0.9344  0.3444
  149MOL    C9229988   3.375   3.087   7.199  0.1373 -0.1369  0.0034
  149MOL    C9329989   3.429   3.185   7.091  0.0179 -1.0986 -0.1156
  149MOL    O9429990   3.453   3.314   7.147  0.2472  0.1354 -0.7659
  149MOL    C9529991   3.372   3.418   7.091 -0.1786 -0.1539 -0.0249
  149MOL    H9629992   3.442   3.007   7.232  0.0306  0.6707  2.2921
  149MOL    H9729993   3.350   3.148   7.286 -1.1775  0.5693 -0.8671
  149MOL    H9829994   3.365   3.187   7.003 -0.6092 -2.2606  0.3015
  149MOL    H9929995   3.393   3.519   7.125 -0.7161  0.4528 -1.4748
  149MOL   H10029996   3.364   3.408   6.983  0.1978  2.5734 -0.3238
  149MOL   H10129997   3.271   3.408   7.132 -0.3570  0.4708 -0.3145
  149MOL   C10229998   3.578   3.156   7.049  0.0778  0.3138  0.6336
  149MOL   C10329999   3.602   3.013   6.986  0.0228 -0.6120  0.1600
  149MOL   O10430000   3.569   3.026   6.852  0.2852  0.0693  0.1773
  149MOL   C10530001   3.509   2.906   6.795  0.4284 -0.0139  0.3278
  149MOL   H10630002   3.629   3.174   7.144 -1.0307 -0.4375  1.3874
  149MOL   H10730003   3.619   3.240   6.992  1.5263  0.0401  1.2335
  149MOL   H10830004   3.545   2.939   7.041 -2.0028  1.3286  0.7204
  149MOL   H10930005   3.530   2.810   6.843  3.0693  0.6931  0.6387
  149MOL   H11030006   3.402   2.915   6.810  0.5555  1.8674  0.1613
  149MOL   H11130007   3.524   2.895   6.687  2.0757  2.5759  0.2559
  149MOL   C11230008   3.754   2.981   6.980  0.4746  0.1419 -0.1084
  149MOL   C11330009   3.820   2.913   7.101  0.3117 -0.2240 -1.2196
  149MOL   O11430010   3.866   2.781   7.066 -0.4189 -0.4046  0.4486
  149MOL   C11530011   3.775   2.679   7.090  0.8420 -0.4516 -0.0747
  149MOL   H11630012   3.806   3.069   6.944  1.0890 -0.7326 -1.3828
  149MOL   H11730013   3.775   2.912   6.898  0.9344 -0.7200  0.7231
  149MOL   H11830014   3.744   2.900   7.178  1.9977 -1.4496  0.2643
  149MOL   H11930015   3.813   2.588   7.044  0.2972  0.1086 -1.6484
  149MOL   H12030016   3.763   2.665   7.198 -1.3034 -0.1443 -0.2482
  149MOL   H12130017   3.675   2.694   7.050  1.3131  0.7993 -0.8235
  149MOL   C12230018   3.941   2.996   7.156 -0.3903 -0.0485  0.7275
  149MOL   C12330019   4.014   2.929   7.276 -0.3386 -0.0416  0.6709
  149MOL   O12430020   4.153   2.929   7.259 -0.9688  0.1356 -0.1167
  149MOL   C12530021   4.202   2.821   7.189 -0.1018  0.8491  0.2603
  149MOL   H12630022   3.908   3.096   7.182 -0.9015  0.3157 -1.2396
  149MOL   H12730023   4.022   3.010   7.084 -0.3554 -1.9135  0.3726
  149MOL   H12830024   3.986   2.824   7.274 -0.8399  0.0263  2.7064
  149MOL   H12930025   4.306   2.836   7.158 -0.0150 -0.2433 -0.0028
  149MOL   H13030026   4.205   2.719   7.228 -2.0686  1.5346  2.2926
  149MOL   H13130027   4.162   2.816   7.088  0.1863 -0.5664  0.2022
  149MOL   C13230028   3.997   2.999   7.408 -0.1853  0.6663  0.3827
  149MOL   C13330029   3.854   2.994   7.468 -0.6004 -0.3068 -0.1052
  149MOL   O13430030   3.841   2.851   7.510  0.5461 -0.2318  0.0914
  149MOL   C13530031   3.716   2.788   7.530 -0.3634 -0.6291  0.0324
  149MOL   H13630032   4.015   3.105   7.389 -2.5111  0.4432 -3.7711
  149MOL   H13730033   4.069   2.965   7.483 -0.5754 -0.8823  0.0866
  149MOL   H13830034   3.768   3.023   7.407 -2.1691  0.3000  2.3291
  149MOL   H13930035   3.667   2.820   7.622 -0.0846  0.8277 -0.3102
  149MOL   H14030036   3.645   2.839   7.465 -0.7788  1.2147  1.8583
  149MOL   H14130037   3.728   2.680   7.526 -0.3454 -0.5761 -1.5494
  149MOL   C14230038   3.839   3.075   7.604 -0.8680 -0.2136  0.1034
  149MOL   C14330039   3.809   3.225   7.583  0.0355 -0.9029 -0.2571
  149MOL   O14430040   3.667   3.226   7.580 -0.0868  0.2802 -0.2197
  149MOL   C14530041   3.615   3.294   7.464  0.2298  0.1035  0.3875
  149MOL   H14630042   3.931   3.053   7.659  0.1599  2.9256 -0.3076
  149MOL   H14730043   3.764   3.028   7.668 -1.5326 -0.3837 -0.7942
  149MOL   H14830044   3.842   3.262   7.486  0.3486 -1.1905 -0.2594
  149MOL   H14930045   3.508   3.310   7.479  0.1467  1.0967 -1.2072
  149MOL   H15030046   3.673   3.385   7.448 -1.5805  0.7903 -2.5615
  149MOL   H15130047   3.627   3.225   7.381  0.7801 -0.9252  1.3052
  149MOL   C15230048   3.850   3.314   7.705 -0.2915 -0.2755  0.1135
  149MOL   C15330049   3.847   3.461   7.684 -0.2812 -0.1456  0.6897
  149MOL   O15430050   3.839   3.521   7.810 -0.6162  0.1230 -0.4304
  149MOL   C15530051   3.720   3.594   0.036 -0.4930  0.4356 -0.1621
  149MOL   H15630052   3.948   3.287   7.744  0.1854 -1.3541 -1.7641
  149MOL   H15730053   3.781   3.290   7.786  0.6493 -1.7938  0.4786
  149MOL   H15830054   3.750   3.476   7.637 -0.3963 -1.3182  0.5411
  149MOL   H15930055   3.679   3.651   7.763  1.2843  0.1645 -1.2544
  149MOL   H16030056   3.643   3.529   0.079 -0.1921 -0.5598 -1.0850
  149MOL   H16130057   3.750   3.659   0.117 -1.1488  0.3930  0.1154
  149MOL   C16230058   3.964   3.520   7.608  0.3890  0.3006 -0.3571
  149MOL   C16330059   4.103   3.545   7.682  0.5460 -0.0521 -0.2236
  149MOL   O16430060   4.199   3.555   7.576 -0.1984 -0.4695 -0.1974
  149MOL   C16530061   4.323   3.503   7.619 -0.3305  0.8118 -0.5570
  149MOL   H16630062   3.934   3.614   7.562  1.9188  2.8503  3.6029
  149MOL   H16730063   3.988   3.442   7.536  1.7072  1.0817 -0.7809
  149MOL   H16830064   4.126   3.461   7.748  0.8748  0.7657  0.7091
  149MOL   H16930065   4.330   3.395   7.606  1.6087  0.6826  1.3247
  149MOL   H17030066   4.409   3.546   7.568  0.6113  1.1209  1.2358
  149MOL   H17130067   4.345   3.515   7.725  1.1112 -0.7891 -0.6557
  149MOL   C17230068   4.114   3.671   7.772  0.0732 -0.2387 -0.5062
  149MOL   C17330069   4.040   3.802   7.725 -0.2449  0.6100  0.0229
  149MOL   O17430070   4.049   3.896   0.022 -0.3587  0.2027  0.0859
  149MOL   C17530071   3.957   3.871   0.128  0.0610  0.5214 -0.5845
  149MOL   H17630072   4.220   3.680   7.796 -0.4798 -1.3710  2.4862
  149MOL   H17730073   4.078   3.651   0.062 -1.1681  0.5279 -0.7823
  149MOL   H17830074   3.934   3.782   7.705  0.5072 -0.8493 -2.7334
  149MOL   H17930075   3.940   3.958   0.192 -0.4091  0.8812 -1.1898
  149MOL   H18030076   3.856   3.851   0.092  0.5208 -0.0514 -1.5904
  149MOL   H18130077   3.986   3.791   0.195 -1.1883  1.0268  0.5785
  149MOL   C18230078   4.108   3.860   7.602  0.1664 -0.8324 -0.6312
  149MOL   C18330079   4.049   3.999   7.544  0.6007  0.5240  0.3867
  149MOL   O18430080   4.085   4.019   7.409 -0.1245  0.6455  0.6978
  149MOL   C18530081   4.208   4.096   7.391 -0.5321  0.3624  0.1030
  149MOL   H18630082   4.116   3.782   7.526 -0.3302 -1.2832 -0.2331
  149MOL   H18730083   4.207   3.880   7.642 -2.1533  2.0711  4.2603
  149MOL   H18830084   4.081   4.079   7.610 -0.6643  0.0998  1.5250
  149MOL   H18930085   4.218   4.183   7.456 -0.2211 -0.3992  1.0868
  149MOL   H19030086   4.299   4.036   7.395 -0.4501  0.5552  1.2501
  149MOL   H19130087   4.228   4.133   7.290  0.2150 -0.5040 -0.0701
  149MOL   C19230088   3.904   4.006   7.547  0.3134 -0.0784  0.1296
  149MOL   C19330089   3.830   4.118   7.476 -0.3311  0.1709 -0.4839
  149MOL   O19430090   3.690   4.123   7.499  0.0596  0.2703 -0.0403
  149MOL   C19530091   3.636   4.232   7.427  0.7497  0.2764 -0.0666
  149MOL   H19630092   3.871   4.012   7.651  0.3335 -3.3151  0.3918
  149MOL   H19730093   3.862   3.908   7.523  1.8910 -0.4591 -1.1747
  149MOL   H19830094   3.849   4.115   7.369 -0.6082  1.0160 -0.5637
  149MOL   H19930095   3.656   4.326   7.478  1.5241  0.0696  0.0157
  149MOL   H20030096   3.667   4.250   7.324  0.5101  0.8728 -0.0353
  149MOL   H20130097   3.529   4.211   7.425  1.0703 -1.3450 -1.1387
  149MOL   H20230098   3.874   4.215   7.501 -1.0642 -0.1426  2.1340
  150MOL     C130099   7.080   2.370   3.493 -0.4302  0.0619 -0.6874
  150MOL     C230100   7.003   2.309   3.608  0.3040 -0.1309  0.3626
  150MOL     O330101   6.862   2.320   3.568  0.1993  0.6056 -0.1855
  150MOL     C430102   6.807   2.455   3.579  0.3891  0.1111 -0.1761
  150MOL     H530103   7.083   2.479   3.504 -0.6198 -0.2409  3.2961
  150MOL     H630104   7.183   2.338   3.503 -0.9021 -2.0172 -2.3388
  150MOL     H730105   7.016   2.353   3.707  1.5314 -0.6939  0.4518
  150MOL     H830106   6.842   2.511   3.666  1.1110 -0.0100 -0.3825
  150MOL     H930107   6.847   2.522   3.503 -0.0016  0.1911 -0.3090
  150MOL    H1030108   6.698   2.460   3.581  0.3164 -1.4328  0.9086
  150MOL    H1130109   7.052   2.337   3.393  3.0607 -1.9229 -1.0749
  150MOL    C1230110   7.030   2.155   3.627  0.3654  0.1502  0.2136
  150MOL    C1330111   6.944   2.083   3.734 -0.0360 -1.2530 -0.3473
  150MOL    O1430112   6.979   1.944   3.701 -0.2099  0.0003  0.0337
  150MOL    C1530113   6.869   1.852   3.713 -0.1001 -0.5616  0.0331
  150MOL    H1630114   7.136   2.156   3.654 -0.0325  0.1168  1.7790
  150MOL    H1730115   7.009   2.112   3.529 -1.9845 -0.5162  0.9918
  150MOL    H1830116   6.839   2.086   3.706 -0.5758 -2.6653  1.4703
  150MOL    H1930117   6.910   1.752   3.703  1.4866  0.0477  0.2775
  150MOL    H2030118   6.833   1.851   3.816  0.2606 -1.3808  0.1595
  150MOL    H2130119   6.803   1.870   3.628 -1.3521 -3.2254  0.3955
  150MOL    C2230120   6.973   2.116   3.881  0.3198  0.0689 -0.1680
  150MOL    C2330121   6.870   2.216   3.938  0.1676  0.7875 -0.3294
  150MOL    O2430122   6.751   2.144   3.983  0.1274 -0.1235  0.1598
  150MOL    C2530123   6.638   2.156   3.896 -0.8200 -0.0605 -0.7176
  150MOL    H2630124   7.076   2.147   3.891  0.4987 -1.0547  1.6600
  150MOL    H2730125   6.953   2.030   3.945 -0.1620 -1.1814 -1.9526
  150MOL    H2830126   6.860   2.308   3.881 -2.2616  1.7766  1.5884
  150MOL    H2930127   6.647   2.253   3.848  1.7860 -0.5779 -1.3796
  150MOL    H3030128   6.652   2.077   3.821 -0.3172  1.3709 -2.1664
  150MOL    H3130129   6.538   2.148   3.937 -0.9691 -0.5190 -1.1559
  150MOL    C3230130   6.928   2.270   4.070  0.0627  0.4638 -0.2515
  150MOL    C3330131   6.926   2.425   4.095 -0.0248 -0.1491 -0.0488
  150MOL    O3430132   6.997   2.507   4.001 -0.9131  0.3159 -0.3637
  150MOL    C3530133   7.141   2.511   4.013 -0.3795  0.3812  0.4698
  150MOL    H3630134   7.036   2.252   4.076  0.2853  2.1180  0.9316
  150MOL    H3730135   6.894   2.217   4.159 -0.6196 -0.3479 -0.9908
  150MOL    H3830136   6.959   2.440   4.198  1.5927 -2.3804 -0.1926
  150MOL    H3930137   7.178   2.411   3.989  0.3832  0.6679  0.4571
  150MOL    H4030138   7.181   2.577   3.937  2.1370 -0.4048  1.0652
  150MOL    H4130139   7.166   2.541   4.115  0.6885  1.4596 -0.1061
  150MOL    C4230140   6.788   2.478   4.074 -0.6349  0.5508 -0.5925
  150MOL    C4330141   6.760   2.605   4.152 -0.5351  0.2846 -0.1564
  150MOL    O4430142   6.685   2.693   4.065  0.0331  0.2497  0.4983
  150MOL    C4530143   6.754   2.804   4.008  0.6514  0.1189  0.3900
  150MOL    H4630144   6.716   2.402   4.105  1.8575 -0.4686  3.0573
  150MOL    H4730145   6.779   2.495   3.967  0.1609 -2.8063 -1.2583
  150MOL    H4830146   6.853   2.639   4.197  0.1572 -1.7369  0.0008
  150MOL    H4930147   6.813   2.764   3.925  0.2523 -1.2579  0.7580
  150MOL    H5030148   6.686   2.881   3.973  0.9401 -1.0573 -2.9370
  150MOL    H5130149   6.813   2.836   4.094 -0.5176 -4.2694  2.9872
  150MOL    C5230150   6.671   2.579   4.278  0.4101  0.6108 -0.0604
  150MOL    C5330151   6.635   2.709   4.362 -0.5425 -0.3302 -0.5619
  150MOL    O5430152   6.541   2.687   4.472  0.3828  0.5674  0.4836
  150MOL    C5530153   6.415   2.639   4.430 -0.5624  0.0511 -0.3441
  150MOL    H5630154   6.724   2.503   4.335 -0.3744  0.1593  0.0747
  150MOL    H5730155   6.573   2.540   4.250  0.4422  0.6911 -0.2838
  150MOL    H5830156   6.597   2.794   4.306 -0.1776  0.0891 -0.1864
  150MOL    H5930157   6.330   2.703   4.453 -0.5232  1.0079 -2.7447
  150MOL    H6030158   6.397   2.599   4.330 -0.7011 -1.8081  0.3936
  150MOL    H6130159   6.401   2.545   4.484  0.1439  2.5509  4.4491
  150MOL    C6230160   6.758   2.781   4.428  0.0038  0.5135 -0.2592
  150MOL    C6330161   6.738   2.916   4.500  0.5817 -0.1417 -0.6501
  150MOL    O6430162   6.865   2.958   4.551 -0.0924 -0.0230  0.9104
  150MOL    C6530163   6.901   2.931   4.686  0.0542 -0.8387 -0.2219
  150MOL    H6630164   6.834   2.786   4.350 -0.8915  1.2419 -1.0918
  150MOL    H6730165   6.804   2.720   4.506 -2.5864 -0.8968  0.2262
  150MOL    H6830166   6.671   2.912   4.586  0.4454  4.4770 -0.4252
  150MOL    H6930167   6.820   2.955   4.756  0.2736 -1.9875  0.4371
  150MOL    H7030168   6.939   2.830   4.691  0.9776 -0.5380 -1.1148
  150MOL    H7130169   6.978   3.005   4.709 -0.0595 -0.3880 -1.2657
  150MOL    C7230170   6.690   3.038   4.417 -0.2298  0.1280  0.3588
  150MOL    C7330171   6.598   3.131   4.497 -1.1378 -0.6823  0.6606
  150MOL    O7430172   6.577   3.258   4.436  0.2218 -0.4560 -0.5360
  150MOL    C7530173   6.672   3.359   4.453  0.3291 -0.5499  0.7160
  150MOL    H7630174   6.645   3.013   4.321 -1.0461 -1.1913  1.0735
  150MOL    H7730175   6.785   3.086   4.394  0.6011 -0.9831  1.3954
  150MOL    H7830176   6.653   3.154   4.588 -0.3128 -0.7831  0.1932
  150MOL    H7930177   6.768   3.324   4.418  1.1673 -0.3738  2.7752
  150MOL    H8030178   6.650   3.439   4.381  0.7615 -0.8277  0.2721
  150MOL    H8130179   6.673   3.391   4.557 -2.3282 -0.4299  0.7571
  150MOL    C8230180   6.456   3.080   4.527  0.4688 -0.2770  0.0087
  150MOL    C8330181   6.357   3.062   4.405  0.2444  0.0135  0.3306
  150MOL    O8430182   6.417   2.981   4.304  0.2414 -0.2518  0.0967
  150MOL    C8530183   6.407   3.024   4.169  0.0682 -0.5394 -0.1391
  150MOL    H8630184   6.420   3.153   4.598  2.8599  1.4387 -0.4956
  150MOL    H8730185   6.469   2.985   4.578  1.7421  0.7339  1.5997
  150MOL    H8830186   6.333   3.161   4.365  1.8474 -0.6052 -2.2924
  150MOL    H8930187   6.459   3.118   4.147  1.1688 -0.5077  2.4309
  150MOL    H9030188   6.457   2.943   4.116  0.5302  0.0429 -0.6114
  150MOL    H9130189   6.302   3.023   4.141 -0.5476  2.2278  1.8541
  150MOL    C9230190   6.221   3.012   4.450 -0.3039 -0.1118 -0.3349
  150MOL    C9330191   6.143   3.108   4.548  0.3870 -0.7188 -0.1183
  150MOL    O9430192   6.073   3.214   4.477  0.0753 -0.1553  0.1743
  150MOL    C9530193   6.113   3.350   4.513 -0.4292 -0.4943  0.2786
  150MOL    H9630194   6.238   2.916   4.500 -3.6197  0.0487  1.2316
  150MOL    H9730195   6.153   2.990   4.368 -0.6781  0.5242 -0.2007
  150MOL    H9830196   6.207   3.150   4.625  1.1044  1.9406 -2.0800
  150MOL    H9930197   6.064   3.418   4.444 -0.2771  1.1679  1.7765
  150MOL   H10030198   6.084   3.391   4.610 -1.4063 -0.7954  0.1209
  150MOL   H10130199   6.220   3.365   4.499 -0.2580 -1.7845  0.1439
  150MOL   C10230200   6.038   3.017   4.620 -0.4778 -0.9478  0.5995
  150MOL   C10330201   5.948   3.096   4.724  0.0806 -0.3970  0.9416
  150MOL   O10430202   5.814   3.048   4.707 -0.2728  0.1168  0.2594
  150MOL   C10530203   5.751   3.111   4.594  0.1213  0.4514 -0.3632
  150MOL   H10630204   6.087   2.930   4.662 -1.8962 -2.4398 -0.7158
  150MOL   H10730205   5.976   2.966   4.545 -0.9498 -2.0240  1.6989
  150MOL   H10830206   5.951   3.202   4.698  1.4937 -0.6208  0.1315
  150MOL   H10930207   5.661   3.053   4.577  0.1616 -0.3307  1.9147
  150MOL   H11030208   5.728   3.214   4.623 -0.8080 -0.0194  0.6246
  150MOL   H11130209   5.813   3.103   4.505  0.3632 -0.9847 -0.0834
  150MOL   C11230210   5.961   3.055   4.873 -0.1634  0.4470  0.4892
  150MOL   C11330211   6.102   3.088   4.931  0.2166 -0.4720 -0.0795
  150MOL   O11430212   6.207   3.014   4.861 -0.4376 -0.1005 -0.3560
  150MOL   C11530213   6.322   2.974   4.931  0.6948 -1.0284  0.0367
  150MOL   H11630214   5.950   2.946   4.876  1.4319  0.1689 -1.8303
  150MOL   H11730215   5.874   3.089   4.929 -0.4350 -0.3570  0.5661
  150MOL   H11830216   6.090   3.058   5.035 -1.7093  0.1724 -0.0894
  150MOL   H11930217   6.395   3.052   4.914 -1.9098  1.2670 -1.0212
  150MOL   H12030218   6.285   2.975   5.034  0.4627  3.4425  0.0205
  150MOL   H12130219   6.357   2.878   4.892 -0.8148 -1.7176  0.3257
  150MOL   C12230220   6.144   3.234   4.944 -0.3588  0.7552  0.2541
  150MOL   C12330221   6.046   3.326   5.010 -0.2021 -0.3584  0.1428
  150MOL   O12430222   6.037   3.263   5.139 -0.3013 -0.3418  0.5836
  150MOL   C12530223   5.906   3.271   5.195 -0.1399 -0.4330  0.7572
  150MOL   H12630224   6.173   3.271   4.845  0.9874  0.7912  0.6530
  150MOL   H12730225   6.244   3.229   4.987  0.6023  0.1916 -1.9598
  150MOL   H12830226   5.952   3.323   4.954  1.3393 -0.2140 -2.5504
  150MOL   H12930227   5.908   3.253   5.303 -3.6347  2.6187  1.4290
  150MOL   H13030228   5.864   3.370   5.177 -0.2911 -0.9648 -1.9698
  150MOL   H13130229   5.845   3.194   5.148  0.2477  0.3175 -1.0160
  150MOL   C13230230   6.094   3.475   5.031  0.3290 -0.1002 -0.2226
  150MOL   C13330231   6.085   3.555   4.896  0.1181  0.0680 -0.6908
  150MOL   O13430232   5.947   3.595   4.876 -0.5355 -0.0550 -0.6665
  150MOL   C13530233   5.878   3.525   4.770 -0.1047  0.3901  0.2961
  150MOL   H13630234   6.194   3.468   5.073 -0.0183 -2.0343  0.3378
  150MOL   H13730235   6.039   3.525   5.110  1.2033 -0.9172  0.9144
  150MOL   H13830236   6.125   3.501   4.810 -0.9557 -1.1777 -0.4215
  150MOL   H13930237   5.934   3.540   4.678  0.5176  1.5403  0.8552
  150MOL   H14030238   5.882   3.417   4.785  0.1765  0.6335  2.1022
  150MOL   H14130239   5.781   3.565   4.742 -0.1299 -0.1821 -0.4453
  150MOL   C14230240   6.175   3.680   4.907 -0.3879  0.1139 -0.3905
  150MOL   C14330241   6.326   3.657   4.884  0.5471 -0.4566  0.4885
  150MOL   O14430242   6.340   3.628   4.747 -0.0592 -0.4040 -0.1709
  150MOL   C14530243   6.435   3.528   4.721  0.0352  0.2930 -0.6527
  150MOL   H14630244   6.145   3.728   5.000  0.8848  0.6248 -0.2322
  150MOL   H14730245   6.126   3.743   4.832  0.6988 -1.1735 -2.2497
  150MOL   H14830246   6.361   3.575   4.947  0.9999 -0.3924  0.3215
  150MOL   H14930247   6.441   3.430   4.769 -0.1033  0.0289 -1.1599
  150MOL   H15030248   6.404   3.494   4.621  5.3512 -2.2135 -1.6173
  150MOL   H15130249   6.539   3.558   4.710 -0.3557  1.5342 -1.0001
  150MOL   C15230250   6.409   3.777   4.930  0.2812  0.2727  0.1663
  150MOL   C15330251   6.549   3.741   4.963  0.8172 -0.9571  0.0774
  150MOL   O15430252   6.622   3.849   5.026  0.5202  0.1905  0.1985
  150MOL   C15530253   6.671   3.956   4.943 -0.4878 -0.1102  0.6286
  150MOL   H15630254   6.355   3.830   5.009  2.6023 -1.6259  3.1444
  150MOL   H15730255   6.405   3.850   4.849 -2.0044 -0.0585 -0.0612
  150MOL   H15830256   6.598   3.703   4.873 -2.1761 -1.5488 -1.3614
  150MOL   H15930257   6.737   3.912   4.868  0.1642  0.7543  0.6850
  150MOL   H16030258   6.584   4.012   4.910 -0.9229 -0.2527  1.5242
  150MOL   H16130259   6.717   4.022   5.016  2.0910 -1.1413  0.0091
  150MOL   C16230260   6.570   3.636   5.075  0.5278  0.2566 -0.0332
  150MOL   C16330261   6.463   3.645   5.196 -0.1260 -0.7506  0.2788
  150MOL   O16430262   6.497   3.550   5.299  0.3216  0.0576 -0.0051
  150MOL   C16530263   6.484   3.419   5.264 -0.0588  0.0724  1.1476
  150MOL   H16630264   6.671   3.643   5.115  0.1463  0.0822  0.9792
  150MOL   H16730265   6.577   3.540   5.023  1.6706  1.0027 -1.2923
  150MOL   H16830266   6.363   3.624   5.157 -0.0071 -1.2863  0.2564
  150MOL   H16930267   6.544   3.403   5.174  0.6231  4.2489  0.7716
  150MOL   H17030268   6.507   3.352   5.347  0.4107 -0.2688  0.7505
  150MOL   H17130269   6.377   3.404   5.250  0.1974 -0.4774 -0.4003
  150MOL   C17230270   6.455   3.782   5.260  0.4328 -0.1180  0.7008
  150MOL   C17330271   6.345   3.778   5.374  0.8100  0.2413  0.0798
  150MOL   O17430272   6.323   3.914   5.431  0.2040  0.2972  0.4119
  150MOL   C17530273   6.422   3.959   5.514  0.4734 -0.3023 -0.4278
  150MOL   H17630274   6.438   3.855   5.181 -0.7121  0.5617  1.5592
  150MOL   H17730275   6.551   3.806   5.304  0.3703  1.5585 -0.0228
  150MOL   H17830276   6.386   3.722   5.458  0.4454 -1.2523 -0.7225
  150MOL   H17930277   6.435   3.903   5.606  0.6673 -0.4295 -0.5339
  150MOL   H18030278   6.517   3.954   5.461  0.6482  0.6594 -0.2203
  150MOL   H18130279   6.398   4.059   5.551 -2.3130 -1.1481  0.1205
  150MOL   C18230280   6.212   3.697   5.343 -0.4362  0.2213 -0.0854
  150MOL   C18330281   6.106   3.718   5.459  0.2234 -0.0191  0.0959
  150MOL   O18430282   6.003   3.641   5.401 -0.1087 -0.3955  0.4001
  150MOL   C18530283   5.916   3.729   5.322  0.0653 -0.0685  0.0994
  150MOL   H18630284   6.234   3.591   5.334  1.2952  0.7058 -1.8421
  150MOL   H18730285   6.183   3.726   5.242  0.2368  2.5030  0.3351
  150MOL   H18830286   6.081   3.823   5.473 -1.5068 -0.3676 -0.2262
  150MOL   H18930287   5.836   3.758   5.391  0.1157 -0.7304  0.4296
  150MOL   H19030288   5.975   3.818   5.299 -1.4750  0.8859 -0.2913
  150MOL   H19130289   5.879   3.686   5.228  0.8061  0.2273 -0.3339
  150MOL   C19230290   6.146   3.663   5.592 -0.6164  0.1116  0.7681
  150MOL   C19330291   6.037   3.644   5.691  0.3197 -0.1355 -0.0430
  150MOL   O19430292   6.088   3.604   5.818  0.2817  0.1089 -0.1265
  150MOL   C19530293   6.098   3.463   5.819  0.8765  0.0709  0.4560
  150MOL   H19630294   6.229   3.719   5.634  1.1137 -1.8727  0.1013
  150MOL   H19730295   6.195   3.567   5.573 -2.3145 -0.2715 -2.0972
  150MOL   H19830296   5.958   3.581   5.649  0.7552 -0.4027 -0.4579
  150MOL   H19930297   5.996   3.427   5.822  0.5680  0.6719 -1.7968
  150MOL   H20030298   6.167   3.446   5.736 -0.1538  0.5481 -0.5088
  150MOL   H20130299   6.149   3.434   5.911  1.4391  0.7597  0.3660
  150MOL   H20230300   6.002   3.747   5.703  1.2168  0.1961 -0.2866
  151MOL     C130301   5.752   2.097   2.516 -0.0386 -0.2726 -0.0108
  151MOL     C230302   5.808   1.961   2.573 -0.1561  0.0786 -0.0884
  151MOL     O330303   5.809   1.955   2.716 -0.3522 -0.1173 -0.0618
  151MOL     C430304   5.914   2.031   2.789  0.2176 -0.7305 -0.1863
  151MOL     H530305   5.805   2.183   2.557 -1.7021 -0.3212  2.3111
  151MOL     H630306   5.770   2.097   2.408 -0.5702 -0.9028 -0.0997
  151MOL     H730307   5.911   1.957   2.535 -0.2632  1.2219 -0.5494
  151MOL     H830308   5.912   2.139   2.777 -0.7838 -0.2977  3.3615
  151MOL     H930309   5.915   2.006   2.895 -0.5975  1.5334  0.3759
  151MOL    H1030310   6.010   2.002   2.746 -1.1599 -2.5763 -2.1292
  151MOL    H1130311   5.646   2.108   2.536 -0.1499 -1.5361  0.1137
  151MOL    C1230312   5.719   1.838   2.535  0.3805  0.7252  0.0949
  151MOL    C1330313   5.773   1.702   2.559  0.1334 -0.5570  0.2726
  151MOL    O1430314   5.668   1.606   2.516 -0.0045  0.2333 -0.5279
  151MOL    C1530315   5.592   1.546   2.615 -0.0529  0.5712  0.5273
  151MOL    H1630316   5.693   1.849   2.430 -1.3073  2.3877  0.6592
  151MOL    H1730317   5.625   1.837   2.591  1.1288 -1.3553  1.3906
  151MOL    H1830318   5.789   1.693   2.667  2.6256  2.4204  0.2238
  151MOL    H1930319   5.640   1.475   2.682  0.0713 -0.7328 -0.8953
  151MOL    H2030320   5.549   1.620   2.682  0.1977  1.5335 -0.3537
  151MOL    H2130321   5.513   1.487   2.567 -0.4770  1.9123 -0.4595
  151MOL    C2230322   5.900   1.666   2.478 -1.0910  0.2555 -0.6253
  151MOL    C2330323   5.956   1.524   2.481 -0.3614 -0.8578  0.0369
  151MOL    O2430324   6.086   1.523   2.414  0.0376 -0.8800 -0.3233
  151MOL    C2530325   6.078   1.495   2.277  0.1795  0.2986  0.2261
  151MOL    H2630326   5.979   1.734   2.511 -1.8740  0.7154  0.3368
  151MOL    H2730327   5.878   1.698   2.376 -2.6686  0.6898 -0.1550
  151MOL    H2830328   5.886   1.461   2.426 -1.3290  2.2588 -2.4591
  151MOL    H2930329   6.014   1.570   2.232  0.0367 -0.4863 -0.8923
  151MOL    H3030330   6.171   1.479   2.223 -0.8266 -0.3815 -1.3308
  151MOL    H3130331   6.028   1.399   2.261  0.4846  0.0905  0.5026
  151MOL    C3230332   5.975   1.463   2.627 -0.5418 -0.4749  0.2234
  151MOL    C3330333   6.064   1.340   2.637  0.4231  0.9449 -0.4748
  151MOL    O3430334   6.101   1.304   2.778 -0.4377  0.0331 -0.1126
  151MOL    C3530335   6.210   1.378   2.833 -0.0860  0.3414  0.3369
  151MOL    H3630336   5.876   1.447   2.670 -0.6176  0.0094  0.2342
  151MOL    H3730337   6.012   1.532   2.703 -0.3342  1.4498 -1.5790
  151MOL    H3830338   6.155   1.362   2.582  1.2911  0.1083  0.5937
  151MOL    H3930339   6.187   1.484   2.846 -0.8574 -0.1908  3.5987
  151MOL    H4030340   6.227   1.338   2.933 -0.6994  0.0310  0.3167
  151MOL    H4130341   6.290   1.361   2.761 -2.6154 -1.6443 -2.1229
  151MOL    C4230342   5.989   1.216   2.571 -0.0342  0.5064  0.5511
  151MOL    C4330343   6.074   1.116   2.513 -0.7068  0.3612 -0.1606
  151MOL    O4430344   6.153   1.170   2.405 -0.5912  0.0912 -0.0531
  151MOL    C4530345   6.188   1.073   2.306  0.3819 -0.7192  0.3211
  151MOL    H4630346   5.905   1.237   2.506  0.0604 -1.6292 -0.3225
  151MOL    H4730347   5.935   1.163   2.650 -0.3571  0.4566  0.2954
  151MOL    H4830348   6.011   1.034   2.480  1.3637 -1.6261  0.6883
  151MOL    H4930349   6.270   1.114   2.247 -0.3633  1.8448  0.9718
  151MOL    H5030350   6.206   0.975   2.348 -1.6817  0.1441  3.3931
  151MOL    H5130351   6.105   1.063   2.236 -1.6349 -0.6577  2.6193
  151MOL    C5230352   6.179   1.046   2.609  0.2466 -0.3067 -0.2897
  151MOL    C5330353   6.114   0.924   2.678 -0.4992 -0.4617 -0.5451
  151MOL    O5430354   6.086   0.829   2.577 -0.0990 -0.0821 -0.4719
  151MOL    C5530355   5.958   0.774   2.584  0.3424  1.0132  0.3025
  151MOL    H5630356   6.207   1.119   2.685  2.0555  1.0369 -2.1871
  151MOL    H5730357   6.270   1.015   2.559  0.3307  1.0180 -0.9697
  151MOL    H5830358   6.026   0.951   2.737 -1.1446 -2.8029 -0.3868
  151MOL    H5930359   5.891   0.857   2.564 -1.1882 -0.4817 -0.9645
  151MOL    H6030360   5.952   0.698   2.506  0.8905  1.4777 -0.1988
  151MOL    H6130361   5.924   0.731   2.678  0.8348 -1.0099 -0.4167
  151MOL    C6230362   6.217   0.846   2.769  0.4968  0.1204  0.2233
  151MOL    C6330363   6.248   0.930   2.898 -0.3256  0.4663  0.2935
  151MOL    O6430364   6.345   1.033   2.870 -0.1490 -0.3603 -0.0209
  151MOL    C6530365   6.483   0.990   2.859 -0.6267  0.5293 -0.9238
  151MOL    H6630366   6.309   0.813   2.722 -0.6713 -3.7861  0.5485
  151MOL    H6730367   6.170   0.761   2.819  0.3492 -0.9020 -1.6161
  151MOL    H6830368   6.295   0.865   2.972 -0.4177 -1.2835 -1.1381
  151MOL    H6930369   6.514   0.898   2.909 -1.2873  0.2552 -1.0260
  151MOL    H7030370   6.515   1.006   2.756  0.1926  1.1504 -0.5796
  151MOL    H7130371   6.547   1.052   2.923  1.5258 -1.2092 -1.3255
  151MOL    C7230372   6.127   1.000   2.964 -0.1442 -0.0465  0.1169
  151MOL    C7330373   6.156   1.064   3.100 -0.4824 -0.2947 -0.0417
  151MOL    O7430374   6.037   1.118   3.164  0.5610  0.3671 -0.6787
  151MOL    C7530375   6.009   1.251   3.129  0.3736 -0.2869 -0.9616
  151MOL    H7630376   6.039   0.936   2.975 -2.0205  1.9529 -2.5387
  151MOL    H7730377   6.085   1.077   2.899  1.4231  0.1471 -0.6908
  151MOL    H7830378   6.236   1.137   3.096 -1.4169  0.8582  1.7226
  151MOL    H7930379   6.095   1.317   3.142  0.5358 -0.2391 -2.1966
  151MOL    H8030380   5.991   1.252   3.021  1.9033  0.0750 -1.2220
  151MOL    H8130381   5.930   1.297   3.187  1.9508  1.0807  0.1427
  151MOL    C8230382   6.197   0.951   3.205  0.0877  0.2704  0.9234
  151MOL    C8330383   6.217   0.996   3.354  0.3984 -0.0095 -0.8540
  151MOL    O8430384   6.260   0.885   3.436 -0.0978  0.0813 -0.1271
  151MOL    C8530385   6.152   0.848   3.521  0.7300 -0.3064  0.7111
  151MOL    H8630386   6.294   0.908   3.183 -0.0327  1.3464 -2.0308
  151MOL    H8730387   6.119   0.875   3.202  0.7019 -0.3043 -1.2986
  151MOL    H8830388   6.122   1.028   3.396 -0.1290 -1.0167 -1.2699
  151MOL    H8930389   6.057   0.840   3.468  0.2315  0.6885  1.4462
  151MOL    H9030390   6.177   0.762   3.583 -3.0343  0.0258  2.8343
  151MOL    H9130391   6.138   0.926   3.595  1.2325  1.1932 -0.7403
  151MOL    C9230392   6.302   1.121   3.379 -0.0293 -0.3923 -0.0574
  151MOL    C9330393   6.450   1.100   3.428  0.1878  0.0125 -0.4398
  151MOL    O9430394   6.524   1.064   3.313 -0.4359  0.1296 -0.2485
  151MOL    C9530395   6.562   0.931   3.311  0.0289 -0.5756 -0.8972
  151MOL    H9630396   6.254   1.179   3.457  1.1265 -0.1074  0.4560
  151MOL    H9730397   6.308   1.184   3.291 -0.9382  0.0147  0.1680
  151MOL    H9830398   6.467   1.032   3.511 -0.4784  0.3449 -0.0280
  151MOL    H9930399   6.620   0.916   3.220 -0.9593  0.3783 -1.6872
  151MOL   H10030400   6.623   0.914   3.400 -2.7503 -0.6318  1.0409
  151MOL   H10130401   6.474   0.867   3.312 -0.4530  0.0881 -0.3488
  151MOL   C10230402   6.510   1.235   3.475 -0.0788 -0.9571 -0.6639
  151MOL   C10330403   6.466   1.279   3.612 -0.0182 -0.2918  0.2991
  151MOL   O10430404   6.514   1.192   3.714  0.5223  0.0222 -0.1965
  151MOL   C10530405   6.413   1.153   3.812 -0.6413  0.3068  0.0291
  151MOL   H10630406   6.487   1.317   3.408  0.8501 -0.6920 -0.6591
  151MOL   H10730407   6.619   1.232   3.478 -0.0157  0.9266 -0.4477
  151MOL   H10830408   6.358   1.287   3.624 -0.1166  0.6954 -1.1073
  151MOL   H10930409   6.455   1.102   3.898 -1.1999  0.0393  0.1414
  151MOL   H11030410   6.360   1.243   3.844  0.4546  0.8866  0.2313
  151MOL   H11130411   6.347   1.078   3.769 -0.5358 -0.5531  1.3582
  151MOL   C11230412   6.526   1.415   3.640  0.4871 -0.2101  0.2625
  151MOL   C11330413   6.472   1.542   3.568  0.3012  0.1958  0.4556
  151MOL   O11430414   6.517   1.550   3.436  0.3428  0.3850 -0.8082
  151MOL   C11530415   6.524   1.679   3.388  0.0406  0.1612  0.0275
  151MOL   H11630416   6.634   1.419   3.625  0.4444  0.1757  0.0504
  151MOL   H11730417   6.522   1.439   3.746 -0.8832  1.3449 -0.1281
  151MOL   H11830418   6.526   1.618   3.625 -3.3414  1.6582  2.2161
  151MOL   H11930419   6.555   1.682   3.284 -0.5358 -1.9223 -0.2260
  151MOL   H12030420   6.426   1.726   3.381 -0.6893 -1.4061 -0.4942
  151MOL   H12130421   6.590   1.739   3.451 -0.5113 -2.0719  2.8446
  151MOL   C12230422   6.319   1.551   3.563  0.3527  0.5003 -1.0161
  151MOL   C12330423   6.254   1.570   3.696 -0.2501  0.6043 -0.3295
  151MOL   O12430424   6.304   1.693   3.751  0.2044  0.1949  0.2046
  151MOL   C12530425   6.381   1.672   3.871 -0.0080 -0.4207  0.1554
  151MOL   H12630426   6.287   1.457   3.519 -1.0887  1.9264 -3.1361
  151MOL   H12730427   6.280   1.640   3.512  2.1273  1.8523 -0.0788
  151MOL   H12830428   6.277   1.480   3.753  0.4570 -0.1825 -1.8280
  151MOL   H12930429   6.417   1.767   3.910 -1.2621  0.3207 -0.4428
  151MOL   H13030430   6.326   1.623   3.952  0.1189 -0.9067 -0.0489
  151MOL   H13130431   6.474   1.617   3.858 -0.5030 -0.7905 -2.1304
  151MOL   C13230432   6.106   1.574   3.687 -0.9796 -0.0246  0.2074
  151MOL   C13330433   6.035   1.561   3.830 -0.7340 -0.6217  0.0861
  151MOL   O13430434   5.896   1.582   3.813 -0.5126 -0.0850  0.2081
  151MOL   C13530435   5.835   1.656   3.911 -0.9866 -0.4918 -0.0670
  151MOL   H13630436   6.054   1.504   3.621  0.4100 -0.8230 -0.0593
  151MOL   H13730437   6.081   1.666   3.635  0.3428  0.6042  0.6567
  151MOL   H13830438   6.069   1.648   3.887 -1.5905 -1.5995  2.1422
  151MOL   H13930439   5.733   1.671   3.873 -1.0472  2.6838  1.2013
  151MOL   H14030440   5.844   1.602   4.005  0.5241  0.2635  0.2279
  151MOL   H14130441   5.883   1.752   3.925 -1.8488 -0.2910  1.6004
  151MOL   C14230442   6.055   1.433   3.911  0.0703  0.2090  0.0822
  151MOL   C14330443   5.983   1.300   3.856 -0.1912 -0.2249  0.2079
  151MOL   O14430444   6.057   1.267   3.747  0.0840  0.3320 -0.0374
  151MOL   C14530445   5.977   1.218   3.641 -0.0968 -0.0448  0.1033
  151MOL   H14630446   6.027   1.463   4.012 -1.1742 -0.5782 -0.0163
  151MOL   H14730447   6.161   1.407   3.913 -0.2079 -0.8680  1.2973
  151MOL   H14830448   5.881   1.328   3.832  0.4749  1.4043 -0.8003
  151MOL   H14930449   5.902   1.148   3.678  0.0220  0.0004  0.4297
  151MOL   H15030450   5.909   1.292   3.600  0.5857  1.1499  1.0955
  151MOL   H15130451   6.043   1.165   3.572  1.9990  0.2942  1.7693
  151MOL   C15230452   5.966   1.190   3.962 -0.9259  0.0544  0.2862
  151MOL   C15330453   6.081   1.095   3.995  0.0193  0.1449  0.8647
  151MOL   O15430454   6.076   1.054   4.128 -0.3407  0.0831  0.1895
  151MOL   C15530455   6.214   1.029   4.184  0.7617 -0.3453 -0.9540
  151MOL   H15630456   5.875   1.137   3.933 -0.1975 -1.4135  0.6949
  151MOL   H15730457   5.951   1.235   4.060  1.5636  0.8134  0.3467
  151MOL   H15830458   6.173   1.142   3.960 -0.2416 -0.7125 -1.0418
  151MOL   H15930459   6.254   0.936   4.144  1.6604 -0.5856  0.4996
  151MOL   H16030460   6.286   1.108   4.162  0.4435 -0.4688 -2.4699
  151MOL   H16130461   6.214   1.022   4.293 -0.7887  1.6429 -0.7904
  151MOL   C16230462   6.087   0.971   3.904  0.0807  0.3888 -1.3118
  151MOL   C16330463   5.980   0.857   3.932  0.1697  0.0708  0.4490
  151MOL   O16430464   5.986   0.798   3.804 -0.1042  0.8585 -0.0363
  151MOL   C16530465   5.861   0.814   3.734  0.4839  0.0803  0.1921
  151MOL   H16630466   6.184   0.922   3.902 -0.6393 -1.1834  0.4004
  151MOL   H16730467   6.073   1.004   3.801  0.1204 -0.5713 -1.6318
  151MOL   H16830468   5.886   0.908   3.953  1.3438  2.4332  0.2045
  151MOL   H16930469   5.826   0.917   3.729 -0.3432 -0.2074  0.0175
  151MOL   H17030470   5.871   0.773   3.633  1.5335  0.4443  0.1463
  151MOL   H17130471   5.782   0.764   3.791  1.3658 -0.7788  0.6857
  151MOL   C17230472   6.016   0.748   4.031  0.1093 -0.0821 -0.1279
  151MOL   C17330473   5.911   0.627   4.045 -0.2203  0.2781  0.0199
  151MOL   O17430474   5.954   0.552   4.167  0.2809 -0.1769 -0.0600
  151MOL   C17530475   6.029   0.439   4.132  0.1820  0.2865 -0.1954
  151MOL   H17630476   6.019   0.801   4.127 -0.4956 -1.1042  0.4633
  151MOL   H17730477   6.113   0.711   3.999 -0.4120  0.2136 -2.0946
  151MOL   H17830478   5.913   0.564   3.956  1.1763 -0.0070  0.2329
  151MOL   H17930479   6.045   0.380   4.222 -0.5624 -0.4740 -0.5494
  151MOL   H18030480   5.967   0.369   4.075  0.9851 -0.9129  0.3837
  151MOL   H18130481   6.124   0.469   4.089  0.3169 -0.8789 -0.7530
  151MOL   C18230482   5.764   0.668   4.077  0.1314  0.6351 -0.4755
  151MOL   C18330483   5.678   0.541   4.114 -0.1902  0.2019 -0.1964
  151MOL   O18430484   5.555   0.595   4.150 -0.7890  0.0174  0.5697
  151MOL   C18530485   5.540   0.631   4.290  0.1239 -0.4955  0.0762
  151MOL   H18630486   5.717   0.719   3.993  0.3733  0.7038 -0.5675
  151MOL   H18730487   5.767   0.741   4.159 -2.8154 -0.5037  0.7265
  151MOL   H18830488   5.718   0.490   4.202  4.5740  2.4265 -0.9022
  151MOL   H18930489   5.468   0.713   4.296 -0.3396 -1.0214  2.1326
  151MOL   H19030490   5.505   0.545   4.347  0.2385  0.1770  1.1771
  151MOL   H19130491   5.625   0.684   4.333  0.6340 -0.4308 -0.9919
  151MOL   C19230492   5.657   0.433   4.009 -0.1715  0.1139 -0.0035
  151MOL   C19330493   5.609   0.489   3.876  0.2375  0.6340  0.6403
  151MOL   O19430494   5.581   0.373   3.789 -0.0743  0.2305  0.0691
  151MOL   C19530495   5.691   0.313   3.732 -0.5558 -0.2528  0.0895
  151MOL   H19630496   5.580   0.363   4.042  1.5677 -2.1925 -0.7281
  151MOL   H19730497   5.749   0.376   4.001  0.2978  0.9363 -0.4321
  151MOL   H19830498   5.686   0.551   3.831 -1.4729  2.2665 -0.1287
  151MOL   H19930499   5.741   0.366   3.650 -1.8644  0.1993 -0.4327
  151MOL   H20030500   5.764   0.295   3.810 -0.6671 -0.5457  0.1254
  151MOL   H20130501   5.673   0.213   3.692 -0.1222 -1.0375  1.8491
  151MOL   H20230502   5.519   0.549   3.888 -0.3704 -0.3713  1.2242
  152MOL     C130503   6.149   7.119   5.789 -0.3130  0.1323  0.3335
  152MOL     C230504   6.093   7.264   5.789  0.1116 -0.7372  0.3727
  152MOL     O330505   6.177   7.326   5.880 -0.4874 -0.6236  0.1720
  152MOL     C430506   6.144   7.455   5.930  0.2143 -0.1952 -0.2320
  152MOL     H530507   6.239   7.104   5.730 -1.4732 -1.1471 -1.1555
  152MOL     H630508   6.166   7.086   5.891 -2.9272  1.5089  1.2616
  152MOL     H730509   5.998   7.269   5.842 -1.0554 -1.9576 -1.5557
  152MOL     H830510   6.080   7.446   6.019 -2.0405 -0.2170 -1.8013
  152MOL     H930511   6.220   7.529   5.952 -0.8555  0.4975  1.2622
  152MOL    H1030512   6.072   7.499   5.861  1.6832  1.1452 -0.9448
  152MOL    H1130513   6.071   7.058   5.743 -0.6783  1.1504 -0.4074
  152MOL    C1230514   6.098   7.312   5.639 -0.0434 -0.6374  1.4037
  152MOL    C1330515   6.001   7.421   5.589 -0.2644  0.1779 -0.2503
  152MOL    O1430516   6.034   7.433   5.456  0.3825 -0.0403 -0.1913
  152MOL    C1530517   6.102   7.550   5.418 -0.6807 -0.1993 -0.0940
  152MOL    H1630518   6.064   7.229   5.576  1.6486 -1.6164  1.7583
  152MOL    H1730519   6.199   7.347   5.620 -0.7463 -0.4291 -2.2575
  152MOL    H1830520   6.018   7.517   5.640  1.2842 -0.9056  1.3214
  152MOL    H1930521   6.116   7.544   5.310 -2.1187 -2.1488 -0.1997
  152MOL    H2030522   6.046   7.642   5.436 -1.9851 -1.1859  0.9292
  152MOL    H2130523   6.197   7.553   5.471 -1.0345  0.5597  0.5014
  152MOL    C2230524   5.851   7.383   5.585  0.4234  0.0338 -0.2600
  152MOL    C2330525   5.771   7.372   5.717  0.2690  0.7501 -0.3417
  152MOL    O2430526   5.787   7.497   5.781 -0.2004 -0.2447  0.4208
  152MOL    C2530527   5.761   7.501   5.923  0.0258  0.0806 -0.0823
  152MOL    H2630528   5.836   7.293   5.526  0.4527 -0.5360  0.5969
  152MOL    H2730529   5.807   7.468   5.533 -1.3964  0.6653  2.2067
  152MOL    H2830530   5.805   7.286   5.775  1.4502  1.6278  0.2990
  152MOL    H2930531   5.847   7.447   5.962  0.1730 -1.0486 -1.9185
  152MOL    H3030532   5.783   7.599   5.966  1.6584 -0.4915  0.4392
  152MOL    H3130533   5.671   7.450   5.956  0.6696 -0.6583  0.5629
  152MOL    C3230534   5.617   7.349   5.686 -0.5301 -0.5933 -0.2180
  152MOL    C3330535   5.577   7.204   5.668  0.2144 -0.1667  0.1902
  152MOL    O3430536   5.609   7.138   5.789 -0.3862  0.2113  0.0373
  152MOL    C3530537   5.635   6.999   5.756 -0.5048 -0.4166  0.7487
  152MOL    H3630538   5.589   7.410   5.600  1.6258  1.4099  0.4361
  152MOL    H3730539   5.558   7.383   5.771 -1.2276 -0.1339 -0.8807
  152MOL    H3830540   5.636   7.172   5.583  0.1140 -3.5448  1.3130
  152MOL    H3930541   5.729   6.998   5.699  0.1159 -0.3543  1.7587
  152MOL    H4030542   5.633   6.945   5.850  0.7749 -0.2977  0.8554
  152MOL    H4130543   5.562   6.942   5.699 -1.0837  0.3544  0.7165
  152MOL    C4230544   5.429   7.194   5.637 -0.2898  0.0648  0.6585
  152MOL    C4330545   5.390   7.241   5.496 -0.2926 -0.9673  0.8171
  152MOL    O4430546   5.426   7.128   5.406 -0.0196 -0.3663 -0.0018
  152MOL    C4530547   5.454   7.151   5.273 -0.0602 -0.2060  0.3173
  152MOL    H4630548   5.368   7.249   5.709 -4.2956 -1.4934 -1.3704
  152MOL    H4730549   5.386   7.096   5.660 -1.9316  0.4102 -0.8559
  152MOL    H4830550   5.461   7.317   5.463  1.9453 -1.9741  3.0715
  152MOL    H4930551   5.420   7.065   5.215 -1.4360 -0.4306  1.4226
  152MOL    H5030552   5.399   7.239   5.240 -0.4277 -1.0191 -1.2823
  152MOL    H5130553   5.559   7.175   5.254  0.3316 -0.2357  2.3218
  152MOL    C5230554   5.239   7.277   5.486 -0.6309  0.1411 -0.0378
  152MOL    C5330555   5.192   7.414   5.530 -0.5156 -0.5378 -0.0290
  152MOL    O5430556   5.250   7.504   5.444  0.4960  0.4472  0.1461
  152MOL    C5530557   5.355   7.591   5.496  0.2795 -0.1140 -0.4829
  152MOL    H5630558   5.198   7.189   5.536  1.8645 -0.4310  1.0718
  152MOL    H5730559   5.210   7.259   5.383  0.1745 -2.3054  0.1391
  152MOL    H5830560   5.229   7.430   5.631  0.7252 -0.8738 -0.4245
  152MOL    H5930561   5.350   7.605   5.604 -1.8339  0.3034 -0.6102
  152MOL    H6030562   5.456   7.557   5.473 -0.0537 -0.1714 -1.9422
  152MOL    H6130563   5.359   7.688   5.446 -3.6716  0.1510 -0.4390
  152MOL    C6230564   5.044   7.437   5.534 -0.0755  0.1709 -0.4944
  152MOL    C6330565   4.991   7.493   5.665 -0.5597 -0.2703  0.2763
  152MOL    O6430566   5.018   7.631   5.661 -0.4095  0.2230  0.0392
  152MOL    C6530567   5.018   7.710   5.774  0.1294  0.3339 -0.3607
  152MOL    H6630568   4.991   7.342   5.523  0.2945  0.0337 -1.1349
  152MOL    H6730569   5.002   7.497   5.453 -1.2298  1.5748  1.1174
  152MOL    H6830570   5.039   7.452   5.754  1.6160  0.7165 -0.4199
  152MOL    H6930571   5.099   7.697   5.846  2.0858  0.6405 -2.4404
  152MOL    H7030572   5.034   7.805   5.723  2.2787  1.2168  1.8552
  152MOL    H7130573   4.916   7.718   5.811 -0.0020 -3.2039  0.1982
  152MOL    C7230574   4.841   7.465   5.674  0.4679  0.1096 -0.3948
  152MOL    C7330575   4.801   7.319   5.709 -0.1315  0.0967 -0.2494
  152MOL    O7430576   4.883   7.274   5.822  0.7096 -0.2334  0.2646
  152MOL    C7530577   5.003   7.192   5.807  0.2229  0.1096 -0.3736
  152MOL    H7630578   4.786   7.483   5.581  1.3068 -0.1393 -0.9486
  152MOL    H7730579   4.788   7.522   5.750  1.6311  0.4041  0.2008
  152MOL    H7830580   4.825   7.258   5.622 -1.8399 -1.6717  0.4864
  152MOL    H7930581   5.088   7.232   5.751 -0.9698  2.3518 -0.6661
  152MOL    H8030582   5.038   7.160   5.905  0.8298 -3.2828 -1.6290
  152MOL    H8130583   4.971   7.099   5.761 -1.0521 -0.2590  1.2093
  152MOL    C8230584   4.643   7.308   5.731 -0.3551  0.4250 -0.4369
  152MOL    C8330585   4.584   7.352   5.871 -0.0800  0.2296  0.3282
  152MOL    O8430586   4.441   7.361   5.855 -0.0058  0.2688  0.0602
  152MOL    C8530587   4.380   7.472   5.794 -0.1328  0.0912 -0.0392
  152MOL    H8630588   4.635   7.199   5.730 -1.3913  0.3868  3.4761
  152MOL    H8730589   4.591   7.355   5.647 -0.7747  1.4856  0.3947
  152MOL    H8830590   4.621   7.452   5.892 -0.4117  0.2403  0.8675
  152MOL    H8930591   4.271   7.468   5.802  0.0263  1.6008  3.4355
  152MOL    H9030592   4.414   7.563   5.843  0.7351 -1.6522  2.7179
  152MOL    H9130593   4.410   7.470   5.689  0.7874  0.6348  0.2051
  152MOL    C9230594   4.610   7.260   5.998 -0.1324 -0.4633 -0.4615
  152MOL    C9330595   4.531   7.295   6.123 -0.2834 -0.2384  0.3867
  152MOL    O9430596   4.557   7.187   6.213 -0.2946 -1.1615  0.1875
  152MOL    C9530597   4.428   7.151   6.288 -0.9737 -0.1108 -0.2592
  152MOL    H9630598   4.714   7.247   6.028  0.1499  0.6188 -0.9338
  152MOL    H9730599   4.574   7.161   5.973  0.4619 -0.3763 -1.6653
  152MOL    H9830600   4.429   7.293   6.084  0.6756  0.9534 -2.3195
  152MOL    H9930601   4.392   7.243   6.334  1.9175  1.1588 -0.3839
  152MOL   H10030602   4.362   7.117   6.208 -1.1460  0.9957 -0.6010
  152MOL   H10130603   4.435   7.070   6.360  0.0016  1.1735  1.1448
  152MOL   C10230604   4.559   7.430   6.178  0.7851  0.4495  0.9521
  152MOL   C10330605   4.707   7.465   6.203 -0.3908  0.2633  0.4202
  152MOL   O10430606   4.775   7.513   6.088  0.3339 -0.3318 -0.2261
  152MOL   C10530607   4.914   7.501   6.067 -0.5876 -0.1699 -0.0951
  152MOL   H10630608   4.503   7.432   6.272 -1.4923  1.5411 -0.3729
  152MOL   H10730609   4.524   7.524   6.135  1.1164  0.2412  0.2350
  152MOL   H10830610   4.758   7.373   6.232  0.7313  0.0184 -2.2005
  152MOL   H10930611   4.947   7.401   6.096 -1.2156  0.1225  1.6925
  152MOL   H11030612   4.931   7.522   5.962 -1.7567  3.1649  0.3215
  152MOL   H11130613   4.960   7.578   6.129  0.5388 -0.0134 -1.1197
  152MOL   C11230614   4.735   7.577   6.314 -0.2570 -0.3634 -0.5878
  152MOL   C11330615   4.693   7.527   6.454 -0.2412  0.2294 -0.6061
  152MOL   O11430616   4.798   7.439   6.491 -0.3058  0.0751  0.1052
  152MOL   C11530617   4.761   7.344   6.589 -0.5444 -0.0527 -0.6378
  152MOL   H11630618   4.673   7.665   6.296 -2.2078 -1.4820  0.4518
  152MOL   H11730619   4.839   7.608   6.317 -0.9230  1.9860 -0.6385
  152MOL   H11830620   4.607   7.460   6.445  0.3410 -0.7333  0.7688
  152MOL   H11930621   4.690   7.381   6.663  0.2071  2.2737 -1.0591
  152MOL   H12030622   4.723   7.248   6.555 -0.1085 -0.2988 -0.4417
  152MOL   H12130623   4.835   7.322   6.667 -1.1829 -1.1848 -0.3360
  152MOL   C12230624   4.672   7.639   6.553 -0.0509 -0.0243  0.2207
  152MOL   C12330625   4.532   7.708   6.551  0.0984 -0.4166 -0.6676
  152MOL   O12430626   4.438   7.611   6.585 -0.0275  0.4738  0.0513
  152MOL   C12530627   4.328   7.592   6.497  0.2307 -0.1998 -0.0166
  152MOL   H12630628   4.748   7.716   6.538  1.5048 -1.1082  2.2655
  152MOL   H12730629   4.688   7.609   6.657 -1.0840 -0.8353  0.1490
  152MOL   H12830630   4.514   7.758   6.456  0.6385  1.4444  0.1873
  152MOL   H12930631   4.295   7.687   6.456  0.9905  1.0233  2.1549
  152MOL   H13030632   4.365   7.527   6.417  0.1758  0.6658 -0.7565
  152MOL   H13130633   4.251   7.541   6.555  0.4884 -0.6103 -0.0353
  152MOL   C13230634   4.517   0.000   6.663  0.5770  0.7542 -0.0734
  152MOL   C13330635   4.595   0.136   6.656  0.6635  0.6914 -0.1370
  152MOL   O13430636   4.522   0.241   6.588  0.4542 -0.4066 -0.4890
  152MOL   C13530637   4.480   0.208   6.458  0.5273 -0.2680 -0.3013
  152MOL   H13630638   4.543   7.759   6.755 -5.6118 -3.6135 -0.4281
  152MOL   H13730639   4.413   0.019   6.690  1.7403  1.3977  4.3650
  152MOL   H13830640   4.685   0.120   6.595  0.0408  0.8812 -1.1166
  152MOL   H13930641   4.448   0.294   6.400 -0.3506 -0.8768 -0.7400
  152MOL   H14030642   4.567   0.176   6.401  0.4044 -1.1110 -0.0232
  152MOL   H14130643   4.395   0.139   6.454  0.0349  0.4212 -1.7194
  152MOL   C14230644   4.634   0.187   6.798  0.4920  0.2362  0.5748
  152MOL   C14330645   4.746   0.289   6.810 -0.4352 -0.0180  0.5161
  152MOL   O14430646   4.770   0.330   6.939  0.0394  0.5709 -0.1160
  152MOL   C14530647   4.682   0.430   6.987 -0.4267 -0.0805 -0.7439
  152MOL   H14630648   4.654   0.107   6.870 -2.1520  0.3639  1.5273
  152MOL   H14730649   4.543   0.228   6.843  0.0861 -2.0423  1.9271
  152MOL   H14830650   4.712   0.372   6.748 -1.2362 -0.6817  0.0555
  152MOL   H14930651   4.674   0.522   6.929 -1.5178 -0.1237 -0.6656
  152MOL   H15030652   4.584   0.386   7.000 -0.5219 -0.1462 -1.6677
  152MOL   H15130653   4.720   0.457   7.085 -0.7932  0.4247 -0.7430
  152MOL   C15230654   4.883   0.254   6.751 -1.4015  0.1185  0.0574
  152MOL   C15330655   4.991   0.363   6.736 -0.1915  0.1060 -0.1042
  152MOL   O15430656   5.079   0.308   6.637 -0.3313 -0.5231  0.3775
  152MOL   C15530657   5.174   0.214   6.687  0.0407  0.3064  0.0623
  152MOL   H15630658   4.863   0.227   6.648  0.4701  1.0084 -0.5472
  152MOL   H15730659   4.911   0.160   6.799  1.4822 -0.2572 -2.2404
  152MOL   H15830660   5.044   0.376   6.830 -3.1645  0.8422  1.5504
  152MOL   H15930661   5.241   0.275   6.748 -1.2389  1.0062  0.8049
  152MOL   H16030662   5.135   0.125   6.735  0.9495  0.3338  0.8732
  152MOL   H16130663   5.220   0.174   6.597  1.8515  1.5776  0.4033
  152MOL   C16230664   4.927   0.502   6.680  0.1479 -0.0222  0.0409
  152MOL   C16330665   5.020   0.615   6.641  0.0014 -0.4575  0.8988
  152MOL   O16430666   4.939   0.725   6.619  0.4024 -0.3261  0.0524
  152MOL   C16530667   4.946   0.792   6.492 -0.3174 -0.1723 -0.1861
  152MOL   H16630668   4.865   0.541   6.760  3.3649  3.4481  0.9832
  152MOL   H16730669   4.869   0.475   6.592 -1.3419  0.9958  0.6871
  152MOL   H16830670   5.070   0.595   6.546 -1.2730 -1.7441  0.4772
  152MOL   H16930671   5.046   0.783   6.450 -0.3175  1.8731 -0.6801
  152MOL   H17030672   4.869   0.756   6.424 -0.3006 -0.9854  0.2235
  152MOL   H17130673   4.917   0.894   6.519 -1.0102  0.0484 -1.7582
  152MOL   C17230674   5.132   0.644   6.737  0.1969 -0.0661  0.1470
  152MOL   C17330675   5.253   0.739   6.706 -0.2524  0.0617 -0.1629
  152MOL   O17430676   5.201   0.870   6.710  0.5667 -0.1865 -0.5767
  152MOL   C17530677   5.287   0.976   6.665 -0.5180  0.4659 -0.6949
  152MOL   H17630678   5.182   0.548   6.753  2.8357  1.1148 -0.8798
  152MOL   H17730679   5.078   0.677   6.826 -0.5672 -1.0817  0.0756
  152MOL   H17830680   5.270   0.716   6.601 -2.3288 -1.6061 -0.1901
  152MOL   H17930681   5.348   0.964   6.575 -0.3694 -0.8367 -0.4256
  152MOL   H18030682   5.225   1.064   6.648 -0.3747  0.3708 -1.7759
  152MOL   H18130683   5.362   0.994   6.742  0.1804  2.8068 -1.8628
  152MOL   C18230684   5.373   0.709   6.805  0.4320 -0.8871 -0.2683
  152MOL   C18330685   5.459   0.585   6.800  0.0792  0.3301 -0.0852
  152MOL   O18430686   5.400   0.467   6.841  0.0514 -0.0057 -0.2633
  152MOL   C18530687   5.388   0.460   6.984  0.6318 -0.2547 -0.3929
  152MOL   H18630688   5.334   0.713   6.907 -1.2324  0.4937 -0.9274
  152MOL   H18730689   5.445   0.791   6.812  2.2441 -2.3243 -1.7366
  152MOL   H18830690   5.550   0.592   6.860  1.7257 -2.9814 -2.0401
  152MOL   H18930691   5.484   0.446   7.033  0.4276 -1.0322 -0.2132
  152MOL   H19030692   5.348   0.551   7.030 -1.0698 -1.4456  0.5374
  152MOL   H19130693   5.321   0.381   7.016  0.0051  1.1670  1.9294
  152MOL   C19230694   5.508   0.569   6.656 -0.0131  0.0078 -0.3087
  152MOL   C19330695   5.610   0.457   6.643  0.2969  0.5961 -0.3546
  152MOL   O19430696   5.669   0.459   6.516 -0.0824  0.0652 -0.4418
  152MOL   C19530697   5.759   0.353   6.506  0.0266  0.9347 -0.0898
  152MOL   H19630698   5.560   0.659   6.624 -1.2718  0.4224 -1.2396
  152MOL   H19730699   5.423   0.547   6.591 -2.0549  2.3420  1.4737
  152MOL   H19830700   5.555   0.364   6.643  0.3966  0.5340 -1.2983
  152MOL   H19930701   5.705   0.261   6.483  0.2888  0.2577  1.8848
  152MOL   H20030702   5.827   0.367   6.422  2.0545 -0.2180  1.3035
  152MOL   H20130703   5.829   0.349   6.589  0.8979  0.2117 -0.8546
  152MOL   H20230704   5.684   0.462   6.724  0.3632 -1.7859 -0.2461
  153MOL     C130705   2.766   0.870   1.060  0.1371  1.5182  0.0232
  153MOL     C230706   2.643   0.954   1.014  0.3844 -0.8027 -0.4416
  153MOL     O330707   2.658   1.086   1.050  0.1115  0.5066  0.3266
  153MOL     C430708   2.613   1.117   1.181 -0.4241  0.0113  0.0545
  153MOL     H530709   2.731   0.767   1.056 -0.3886  1.7182 -0.6166
  153MOL     H630710   2.847   0.894   0.991  0.1659 -0.6275 -0.7477
  153MOL     H730711   2.558   0.916   1.071  2.4481 -1.5354  2.2392
  153MOL     H830712   2.693   1.076   1.243 -1.3824 -1.1319  0.5562
  153MOL     H930713   2.612   1.225   1.200  0.5020 -0.0352  0.4066
  153MOL    H1030714   2.517   1.075   1.212 -0.1763  0.0981  0.9486
  153MOL    H1130715   2.792   0.889   1.164  0.0749 -2.4586  0.8489
  153MOL    C1230716   2.624   0.947   0.859  0.2594 -0.5406  0.0075
  153MOL    C1330717   2.514   1.023   0.802  0.5818 -0.0222 -0.9936
  153MOL    O1430718   2.545   1.041   0.661  0.5309  0.3278 -0.1362
  153MOL    C1530719   2.515   1.168   0.614  0.8147 -0.1624  0.3033
  153MOL    H1630720   2.630   0.846   0.820  1.1053 -0.2733 -0.5593
  153MOL    H1730721   2.712   0.984   0.807  0.9266 -1.3791  0.5326
  153MOL    H1830722   2.513   1.120   0.852  0.3116 -0.5133 -0.0287
  153MOL    H1930723   2.566   1.187   0.520 -1.1165 -0.2119 -0.7725
  153MOL    H2030724   2.407   1.183   0.609  0.5635 -2.5930 -2.5828
  153MOL    H2130725   2.548   1.248   0.681 -0.2018  1.0046 -0.5674
  153MOL    C2230726   2.372   0.952   0.822  0.3419  0.3562 -0.5509
  153MOL    C2330727   2.351   0.805   0.796 -0.7451  0.2800  0.0964
  153MOL    O2430728   2.416   0.737   0.900  0.5563  0.1687  0.2293
  153MOL    C2530729   2.469   0.608   0.872 -0.0881 -0.3243 -0.4516
  153MOL    H2630730   2.301   1.005   0.759 -0.2762  1.4080  1.0042
  153MOL    H2730731   2.328   0.976   0.918 -1.0045 -0.9827 -0.8087
  153MOL    H2830732   2.402   0.796   0.700 -0.9592  2.3587 -0.2385
  153MOL    H2930733   2.499   0.574   0.971  0.5655  2.4965  0.3794
  153MOL    H3030734   2.388   0.547   0.833 -0.0369 -1.4596  1.1694
  153MOL    H3130735   2.559   0.602   0.811  0.4138 -1.1723  0.3582
  153MOL    C3230736   2.203   0.753   0.795  0.5976 -0.1047 -0.3448
  153MOL    C3330737   2.139   0.729   0.656  0.5031 -1.1327 -0.0855
  153MOL    O3430738   2.013   0.679   0.694 -0.1815 -0.3736  0.2791
  153MOL    C3530739   1.993   0.537   0.670 -0.0079 -0.1925  0.0805
  153MOL    H3630740   2.141   0.824   0.850 -2.9405 -2.0738 -1.6060
  153MOL    H3730741   2.200   0.657   0.847  2.8424  0.1042  0.2203
  153MOL    H3830742   2.202   0.660   0.600  1.7842 -0.5629  0.6359
  153MOL    H3930743   2.066   0.477   0.725  0.5800  1.1345  0.7847
  153MOL    H4030744   1.894   0.494   0.684  0.3685 -1.7966 -2.0225
  153MOL    H4130745   2.018   0.529   0.564  2.8819  1.4177  0.5623
  153MOL    C4230746   2.130   0.860   0.571 -0.3115 -0.5471  0.5435
  153MOL    C4330747   2.064   0.853   0.434 -0.7604  0.7303 -0.3105
  153MOL    O4430748   2.137   0.775   0.338 -0.4273 -0.2487  0.4932
  153MOL    C4530749   2.270   0.822   0.308 -0.0262  0.2711  0.2272
  153MOL    H4630750   2.230   0.901   0.562 -0.8511  1.0533  1.6134
  153MOL    H4730751   2.072   0.931   0.631 -0.9764 -0.3386 -0.3347
  153MOL    H4830752   2.073   0.957   0.403 -1.4087  1.4476  1.7899
  153MOL    H4930753   2.290   0.789   0.206 -1.7047  1.5974 -0.5502
  153MOL    H5030754   2.271   0.931   0.316 -0.7477  0.4160 -1.4216
  153MOL    H5130755   2.341   0.790   0.384  0.1333 -0.0505 -0.0582
  153MOL    C5230756   1.917   0.801   0.432  0.0433  0.3254 -0.2051
  153MOL    C5330757   1.809   0.894   0.485 -0.3305  0.7624 -0.4441
  153MOL    O5430758   1.818   1.000   0.390  0.1888  0.4966 -0.0854
  153MOL    C5530759   1.784   1.131   0.441 -0.2046  0.5598 -0.2096
  153MOL    H5630760   1.911   0.698   0.469 -0.5774  0.2214 -0.5837
  153MOL    H5730761   1.895   0.789   0.326  0.5235 -2.4814 -0.0255
  153MOL    H5830762   1.826   0.927   0.587  0.2644 -0.7344 -0.0382
  153MOL    H5930763   1.680   1.130   0.474 -1.0424 -0.9411 -2.7478
  153MOL    H6030764   1.855   1.156   0.520  0.1092 -2.1269  0.3976
  153MOL    H6130765   1.795   1.192   0.352 -1.0574 -0.4352 -1.0075
  153MOL    C6230766   1.669   0.834   0.478 -0.7427 -0.1058 -0.3334
  153MOL    C6330767   1.640   0.735   0.593 -0.5868  0.6928 -0.2538
  153MOL    O6430768   1.616   0.799   0.717  0.1581 -0.9465 -0.4318
  153MOL    C6530769   1.687   0.761   0.826 -0.1428 -1.0150 -0.3682
  153MOL    H6630770   1.640   0.815   0.375  0.6478  2.8116 -1.3150
  153MOL    H6730771   1.598   0.916   0.494 -0.4521  0.1543 -0.3724
  153MOL    H6830772   1.729   0.672   0.602  0.7272  2.5968  0.4758
  153MOL    H6930773   1.668   0.837   0.902  0.7417 -0.3079 -0.8376
  153MOL    H7030774   1.652   0.660   0.848 -0.7055 -0.8954 -0.7314
  153MOL    H7130775   1.795   0.768   0.811 -0.2110  0.7074 -0.1181
  153MOL    C7230776   1.531   0.634   0.568  0.1309 -0.2767 -0.3578
  153MOL    C7330777   1.568   0.531   0.465  0.1776 -0.0924 -0.6729
  153MOL    O7430778   1.658   0.436   0.531  0.3762 -0.2116  0.6388
  153MOL    C7530779   1.755   0.387   0.443  0.0036  0.3763 -0.2349
  153MOL    H7630780   1.460   0.699   0.517  0.4098 -1.7484 -2.7200
  153MOL    H7730781   1.490   0.596   0.662 -1.1723  2.2069  0.1154
  153MOL    H7830782   1.614   0.581   0.381 -3.5511  2.5827 -1.2465
  153MOL    H7930783   1.709   0.332   0.360 -0.7637 -0.4928  0.7524
  153MOL    H8030784   1.820   0.466   0.406 -0.1431  0.4043 -0.4374
  153MOL    H8130785   1.812   0.314   0.500  0.5672 -0.2393 -1.5537
  153MOL    C8230786   1.452   0.457   0.411  0.4302  0.2311 -0.1258
  153MOL    C8330787   1.330   0.530   0.346 -0.4268 -0.3477  0.2478
  153MOL    O8430788   1.371   0.575   0.221 -0.3059  0.7060  0.3378
  153MOL    C8530789   1.305   0.689   0.167  0.8872 -0.0379  0.0327
  153MOL    H8630790   1.408   0.407   0.498  1.5928  0.5647  0.6677
  153MOL    H8730791   1.476   0.369   0.352  0.1953 -0.3457  0.6210
  153MOL    H8830792   1.305   0.619   0.404  0.3874 -0.6217  1.0290
  153MOL    H8930793   1.329   0.779   0.223  0.6036  1.0128 -1.4923
  153MOL    H9030794   1.364   0.709   0.077  0.3055 -1.6101 -0.7228
  153MOL    H9130795   1.196   0.692   0.168  0.9146  1.0408  1.2750
  153MOL    C9230796   1.209   0.432   0.333  0.4284  0.2093 -0.4471
  153MOL    C9330797   1.127   0.415   0.467  0.5711 -0.2283  0.9682
  153MOL    O9430798   1.054   0.533   0.480 -0.1870 -0.3363  0.2006
  153MOL    C9530799   1.046   0.563   0.615  0.5649 -0.4500 -0.4359
  153MOL    H9630800   1.247   0.334   0.303 -1.1158 -0.3241 -0.7010
  153MOL    H9730801   1.146   0.458   0.248 -0.9462  3.1293  1.3777
  153MOL    H9830802   1.198   0.391   0.546 -0.6600 -0.3646  2.0453
  153MOL    H9930803   0.987   0.653   0.633 -0.9229 -2.0552  3.3158
  153MOL   H10030804   1.016   0.480   0.680  0.3435  0.1032  0.1746
  153MOL   H10130805   1.146   0.589   0.650 -0.1027 -0.8240  1.8495
  153MOL   C10230806   1.021   0.299   0.459 -0.3184 -0.2799 -0.7592
  153MOL   C10330807   1.080   0.155   0.448  0.0518  0.2722  0.0356
  153MOL   O10430808   1.117   0.134   0.307 -0.4237  0.2727 -0.0499
  153MOL   C10530809   1.016   0.101   0.217 -0.2105  0.1416  0.3289
  153MOL   H10630810   0.956   0.316   0.374 -0.1077  1.7500 -0.5286
  153MOL   H10730811   0.964   0.315   0.551  1.9792 -0.3620  0.7324
  153MOL   H10830812   1.001   0.084   0.474  0.4347  0.3907  1.5581
  153MOL   H10930813   0.953   0.017   0.246 -1.3989  0.0458 -2.4432
  153MOL   H11030814   0.943   0.179   0.193 -0.6198  0.3829  2.2497
  153MOL   H11130815   1.061   0.063   0.126  0.3546 -0.7443  0.9698
  153MOL   C11230816   1.202   0.121   0.544 -0.3801 -0.2291 -0.1466
  153MOL   C11330817   1.232   7.788   0.563 -0.2050  0.1933  0.4782
  153MOL   O11430818   1.126   7.726   0.635 -0.0968 -0.4759  0.3137
  153MOL   C11530819   1.171   7.630   0.730 -1.3517  0.3985 -0.2234
  153MOL   H11630820   1.173   0.168   0.639 -0.4690 -0.1621 -0.2063
  153MOL   H11730821   1.287   0.177   0.505 -0.0762 -1.7008 -1.6114
  153MOL   H11830822   1.322   7.794   0.623 -0.5476  1.8585  0.8697
  153MOL   H11930823   1.230   7.547   0.690 -1.7424 -1.4568  2.8656
  153MOL   H12030824   1.227   7.680   0.808  0.7343 -1.4546 -0.4856
  153MOL   H12130825   1.087   7.591   0.787 -3.1160  3.2949 -0.7459
  153MOL   C12230826   1.251   7.705   0.433 -0.0234 -0.0293  0.2875
  153MOL   C12330827   1.364   7.754   0.340  0.5484 -0.0859  0.0162
  153MOL   O12430828   1.478   7.747   0.414  0.4086  0.1324  0.6609
  153MOL   C12530829   1.559   0.056   0.408 -0.1098 -0.6286 -0.3733
  153MOL   H12630830   1.160   7.695   0.373  1.1354  0.1082 -1.5320
  153MOL   H12730831   1.260   7.598   0.452  0.3451 -0.7369 -3.4672
  153MOL   H12830832   1.341   0.046   0.311 -1.3683 -1.0264 -1.9391
  153MOL   H12930833   1.559   0.108   0.312  3.7400  3.6341  1.7278
  153MOL   H13030834   1.509   0.119   0.481  0.4606 -0.0732 -0.4612
  153MOL   H13130835   1.667   0.048   0.425  0.3493  0.3623 -2.5827
  153MOL   C13230836   1.366   7.661   0.221 -0.0563  0.1307 -0.6022
  153MOL   C13330837   1.460   7.697   0.110 -0.2555  0.4531  0.5979
  153MOL   O13430838   1.467   0.025   0.069 -0.7170  0.2171 -0.0432
  153MOL   C13530839   1.359   0.064   7.795  0.5280  0.4168 -0.3979
  153MOL   H13630840   1.269   7.655   0.171  0.2198 -0.1366 -1.1175
  153MOL   H13730841   1.375   7.562   0.265 -1.2142  0.5644  0.6223
  153MOL   H13830842   1.441   7.636   0.022  0.6179  0.6998  0.2325
  153MOL   H13930843   1.365   0.170   7.772 -0.4020  0.5583  0.0182
  153MOL   H14030844   1.347   7.807   7.710  0.7669  1.0152 -0.9081
  153MOL   H14130845   1.268   0.058   0.044  1.6921  0.5505  1.4191
  153MOL   C14230846   1.605   7.652   0.143  0.4173 -0.2894  0.1239
  153MOL   C14330847   1.702   7.633   0.025 -0.8833  0.4911  0.2371
  153MOL   O14430848   1.658   7.536   7.746 -0.1808 -0.1647  0.2037
  153MOL   C14530849   1.657   7.397   7.790  0.4954  0.3848  0.1076
  153MOL   H14630850   1.588   7.561   0.200 -1.9505 -0.0651 -0.1878
  153MOL   H14730851   1.648   7.727   0.210 -2.6073  2.1827 -0.5960
  153MOL   H14830852   1.794   7.593   0.067  0.5373  3.3512  0.0046
  153MOL   H14930853   1.752   7.372   0.026  1.1828  0.3561 -1.2755
  153MOL   H15030854   1.591   7.379   0.064  0.7996  0.2994  0.3280
  153MOL   H15130855   1.643   7.326   7.708 -0.7199  0.3304  0.3558
  153MOL   C15230856   1.720   7.764   7.755  0.1038  0.2191 -0.4332
  153MOL   C15330857   1.776   0.076   0.016 -0.0870  0.8711  0.5941
  153MOL   O15430858   1.902   0.031   0.062 -0.2723  0.0934  0.0016
  153MOL   C15530859   1.954   0.109   0.170  0.7409  0.3831  0.3170
  153MOL   H15630860   1.633   7.797   7.699  1.4982  3.3227 -0.8864
  153MOL   H15730861   1.792   7.733   7.679 -0.2079  2.0578 -1.5155
  153MOL   H15830862   1.709   0.095   0.100  0.8190  1.1316  1.2616
  153MOL   H15930863   2.057   0.077   0.186 -0.7603 -4.8298  0.4980
  153MOL   H16030864   1.972   0.217   0.166 -0.9266  0.7446  1.9106
  153MOL   H16130865   1.905   0.090   0.266 -3.0574 -0.7872 -1.7554
  153MOL   C16230866   1.795   0.195   7.734 -0.2624  0.1116 -0.1463
  153MOL   C16330867   1.665   0.277   7.713 -0.3849  0.0188 -0.1182
  153MOL   O16430868   1.672   0.356   0.018 -0.0734  0.4272  0.6725
  153MOL   C16530869   1.550   0.413   0.047  0.3909  0.4963  0.1332
  153MOL   H16630870   1.837   0.151   7.644 -0.0429  0.2385 -0.1063
  153MOL   H16730871   1.868   0.260   7.783 -1.6692  2.0604 -0.5871
  153MOL   H16830872   1.581   0.207   7.717  0.7189 -1.3938 -1.2501
  153MOL   H16930873   1.479   0.338   0.081 -0.0614  0.0028 -1.8413
  153MOL   H17030874   1.579   0.480   0.127 -1.7320  0.9030  0.5903
  153MOL   H17130875   1.514   0.467   7.770 -1.2512  0.0291  0.5092
  153MOL   C17230876   1.674   0.358   7.579  0.3459  0.7418  0.0106
  153MOL   C17330877   1.555   0.338   7.484 -0.3566 -0.1956 -0.4200
  153MOL   O17430878   1.584   0.426   7.373 -0.7331  0.1663  0.2536
  153MOL   C17530879   1.498   0.542   7.360 -0.4838  0.3485 -0.7330
  153MOL   H17630880   1.763   0.341   7.520 -1.8357 -0.6274 -3.0064
  153MOL   H17730881   1.678   0.464   7.603 -1.0775  0.8671 -0.2312
  153MOL   H17830882   1.467   0.363   7.543 -0.1235 -0.8564  0.2165
  153MOL   H17930883   1.395   0.511   7.344 -0.6513 -0.4113  1.6161
  153MOL   H18030884   1.496   0.598   7.453  1.0689 -0.8694  0.0724
  153MOL   H18130885   1.524   0.605   7.274  1.3662  0.8216  0.1416
  153MOL   C18230886   1.540   0.198   7.440 -0.4230 -1.0212  0.3384
  153MOL   C18330887   1.403   0.155   7.381 -0.0603 -1.3199  0.7046
  153MOL   O18430888   1.299   0.184   7.471 -0.3680 -0.3535  0.7412
  153MOL   C18530889   1.183   0.104   7.461 -0.0331  0.5878 -0.5745
  153MOL   H18630890   1.570   0.127   7.518 -1.2612 -0.4160  1.2184
  153MOL   H18730891   1.607   0.171   7.359 -2.5556 -1.3569 -1.3461
  153MOL   H18830892   1.397   0.047   7.367 -1.3316 -1.0727 -0.7527
  153MOL   H18930893   1.131   0.149   7.376 -0.3907  0.9005 -0.1973
  153MOL   H19030894   1.197   7.809   7.441 -1.6288  1.0295 -4.5190
  153MOL   H19130895   1.126   0.112   7.554  0.4953  0.0194 -0.1962
  153MOL   C19230896   1.361   0.225   7.247 -0.6226  0.5888  0.4912
  153MOL   C19330897   1.460   0.188   7.133 -0.3283  0.9139 -0.4505
  153MOL   O19430898   1.411   0.242   7.006 -0.2264  0.3689  0.3893
  153MOL   C19530899   1.472   0.177   6.899 -0.4314 -0.0664  0.6610
  153MOL   H19630900   1.359   0.334   7.252 -1.9055  0.6123 -0.3716
  153MOL   H19730901   1.261   0.199   7.213 -0.4875  1.0057 -0.2382
  153MOL   H19830902   1.486   0.082   7.137 -2.1121  0.4781  0.6567
  153MOL   H19930903   1.580   0.191   6.906 -0.6952  2.1940  0.4180
  153MOL   H20030904   1.460   0.069   6.912  0.0397 -0.4126 -1.6222
  153MOL   H20130905   1.437   0.194   6.798  2.0652  3.2781  0.2876
  153MOL   H20230906   1.558   0.233   7.149  1.4069 -2.0816 -2.1695
  154MOL     C130907   4.400   5.943   1.525  0.1279  0.2327 -0.3764
  154MOL     C230908   4.278   6.030   1.569 -0.6457  0.4009  0.0623
  154MOL     O330909   4.193   6.003   1.456  0.1937 -0.4041  0.2551
  154MOL     C430910   4.133   6.117   1.392  0.1534  0.3184  0.4509
  154MOL     H530911   4.476   5.915   1.598  0.9602 -2.3585 -2.1588
  154MOL     H630912   4.361   5.843   1.504  0.0989 -0.2659  1.9944
  154MOL     H730913   4.298   6.137   1.576  1.8370 -0.0507  0.2645
  154MOL     H830914   4.078   6.080   1.306 -1.3327  1.5765  0.8346
  154MOL     H930915   4.067   6.146   1.474 -0.0771  1.5543 -0.1702
  154MOL    H1030916   4.199   6.199   1.364  0.4208 -0.2400 -0.5850
  154MOL    H1130917   4.456   5.964   1.433  0.0794 -1.3439 -0.7839
  154MOL    C1230918   4.235   5.972   1.706 -0.2637  0.6307 -0.2592
  154MOL    C1330919   4.134   6.055   1.785 -0.3443 -0.1746 -0.3273
  154MOL    O1430920   4.071   5.985   1.895  0.1428  0.0203  0.1480
  154MOL    C1530921   3.929   5.949   1.870 -0.3756  0.5140 -0.7223
  154MOL    H1630922   4.320   5.961   1.773 -1.2452  1.3502  1.1164
  154MOL    H1730923   4.195   5.876   1.672 -0.6727  0.6384  0.1995
  154MOL    H1830924   4.052   6.093   1.723 -0.4338  0.3270  0.0924
  154MOL    H1930925   3.920   5.902   1.773  1.1636 -1.2110 -0.0376
  154MOL    H2030926   3.892   5.894   1.956  1.2902  1.5370  0.6869
  154MOL    H2130927   3.875   6.043   1.856  0.4122  1.5602  2.8601
  154MOL    C2230928   4.205   6.170   1.858  0.1781 -0.7227  0.1282
  154MOL    C2330929   4.112   6.267   1.936 -0.0440 -0.7924 -0.2930
  154MOL    O2430930   4.195   6.361   2.000 -0.2217  0.1494  0.3682
  154MOL    C2530931   4.208   6.334   2.142 -0.0462  0.0329  0.6931
  154MOL    H2630932   4.257   6.220   1.776  1.2587 -4.3971 -1.5524
  154MOL    H2730933   4.286   6.143   1.925 -0.4520 -0.1351  1.1427
  154MOL    H2830934   4.054   6.217   2.013 -0.6645  1.2103  0.5755
  154MOL    H2930935   4.298   6.391   2.164  1.3154 -1.2029 -1.5568
  154MOL    H3030936   4.127   6.350   2.214  0.3295  0.6767  0.9743
  154MOL    H3130937   4.233   6.229   2.155 -4.2720 -1.1729 -0.0549
  154MOL    C3230938   4.028   6.359   1.847 -0.6078 -0.2903 -0.3013
  154MOL    C3330939   3.956   6.493   1.897  0.8283 -0.1819  0.1781
  154MOL    O3430940   3.912   6.560   1.781 -0.2758  0.4341  0.7583
  154MOL    C3530941   3.999   6.666   1.738  0.0299 -0.0622 -0.1910
  154MOL    H3630942   3.954   6.300   1.793 -0.2634 -0.2254 -0.8494
  154MOL    H3730943   4.093   6.397   1.768 -0.5016 -0.3263 -0.2316
  154MOL    H3830944   4.033   6.544   1.955  0.0698  0.1053  0.9329
  154MOL    H3930945   3.966   6.708   1.643 -0.1088 -0.4763 -0.3272
  154MOL    H4030946   3.995   6.748   1.810  0.9704  1.5207 -1.9167
  154MOL    H4130947   4.103   6.636   1.731  0.6459  1.4141  2.1150
  154MOL    C4230948   3.825   6.476   1.983 -0.3670  0.0244  0.3362
  154MOL    C4330949   3.749   6.608   2.015 -0.7806 -0.3082 -0.5576
  154MOL    O4430950   3.643   6.601   2.106  0.7818 -0.1682  0.4994
  154MOL    C4530951   3.526   6.554   2.056  0.2217  0.4375  0.1138
  154MOL    H4630952   3.843   6.419   2.074  0.1513 -1.0235 -0.4166
  154MOL    H4730953   3.751   6.422   1.924 -0.9006  1.4113 -0.2942
  154MOL    H4830954   3.712   6.643   1.919  2.2968 -0.7176 -1.9447
  154MOL    H4930955   3.534   6.450   2.025  2.6403  0.6599 -0.1189
  154MOL    H5030956   3.459   6.565   2.142  0.1628 -0.2315  0.1605
  154MOL    H5130957   3.508   6.613   1.966  1.8707 -0.7355 -1.0112
  154MOL    C5230958   3.842   6.725   2.073  0.4176  1.2678  0.6179
  154MOL    C5330959   3.771   6.859   2.087  0.2194 -0.0960 -0.4253
  154MOL    O5430960   3.853   6.969   2.142  1.0031  0.2013  0.6469
  154MOL    C5530961   3.876   6.953   2.282 -0.5929  0.9049 -0.4305
  154MOL    H5630962   3.936   6.742   2.020  0.0911 -0.4588 -0.5718
  154MOL    H5730963   3.885   6.696   2.169  0.1995 -1.9260 -0.1937
  154MOL    H5830964   3.685   6.847   2.154  0.2196 -0.1263 -0.4306
  154MOL    H5930965   3.785   6.942   2.341 -0.2948  1.5662  0.1747
  154MOL    H6030966   3.946   6.870   2.291 -3.2739 -1.4633 -1.0612
  154MOL    H6130967   3.928   7.033   2.335 -0.0910 -0.3809  1.0553
  154MOL    C6230968   3.719   6.905   1.949 -0.6113 -0.2888 -0.3831
  154MOL    C6330969   3.684   7.053   1.948  0.9095 -0.4561 -0.0422
  154MOL    O6430970   3.731   7.096   1.815 -0.4176  0.2653  0.8215
  154MOL    C6530971   3.743   7.233   1.811  0.5645 -0.3330  0.6156
  154MOL    H6630972   3.636   6.843   1.914 -1.2299  0.0055  0.5533
  154MOL    H6730973   3.799   6.887   1.877 -2.3063 -3.4393 -1.5801
  154MOL    H6830974   3.748   7.108   2.016  0.5744  0.0150 -0.1057
  154MOL    H6930975   3.825   7.268   1.873  1.9656 -0.9569 -0.8454
  154MOL    H7030976   3.753   7.265   1.707  0.4912 -1.9637  0.0860
  154MOL    H7130977   3.653   7.280   1.852  0.6088 -0.5690  0.9857
  154MOL    C7230978   3.536   7.082   1.983  0.6469  0.5039  0.3464
  154MOL    C7330979   3.513   7.157   2.114 -0.2443  0.2745 -0.4156
  154MOL    O7430980   3.585   7.285   2.102  0.2701  0.6821  0.1357
  154MOL    C7530981   3.657   7.331   2.220 -0.3680 -0.3381 -0.3782
  154MOL    H7630982   3.466   6.998   1.976 -1.0563  1.9294  0.0226
  154MOL    H7730983   3.500   7.144   1.901 -0.7437 -0.8459 -0.0899
  154MOL    H7830984   3.556   7.104   2.198 -1.0991  0.4670  0.1455
  154MOL    H7930985   3.755   7.288   2.239  0.5082  1.2676 -1.2286
  154MOL    H8030986   3.657   7.440   2.222  0.2484 -0.3357  2.1410
  154MOL    H8130987   3.598   7.307   2.310 -0.2114  0.7293  0.0142
  154MOL    C8230988   3.369   7.192   2.148 -0.4318  0.0570 -0.3002
  154MOL    C8330989   3.282   7.074   2.200 -0.2422  0.2819 -0.4020
  154MOL    O8430990   3.333   7.027   2.322 -0.0335 -0.0574  0.2451
  154MOL    C8530991   3.311   6.891   2.353  0.4797 -0.2780  0.2299
  154MOL    H8630992   3.324   7.236   2.059  1.5740  0.1793 -1.2642
  154MOL    H8730993   3.368   7.267   2.228 -0.9470 -0.2296 -0.0333
  154MOL    H8830994   3.278   6.988   2.133 -0.6557  0.9391 -1.2340
  154MOL    H8930995   3.208   6.856   2.354  0.4203 -0.1606 -0.9998
  154MOL    H9030996   3.367   6.835   2.278 -0.2005 -0.4188 -0.1793
  154MOL    H9130997   3.351   6.879   2.453 -1.2209  0.5960  1.0399
  154MOL    C9230998   3.137   7.120   2.227 -0.4198  1.2742  0.2994
  154MOL    C9330999   3.047   7.100   2.098 -0.3439  0.3870 -0.1110
  154MOL    O9431000   3.030   6.956   2.095  0.0477  0.1259  0.0125
  154MOL    C9531001   2.951   6.910   1.986 -0.2050  0.1875  0.3030
  154MOL    H9631002   3.126   7.222   2.264  0.2297  1.1516  0.8322
  154MOL    H9731003   3.101   7.062   2.312 -0.4639  0.0653 -0.5330
  154MOL    H9831004   3.111   7.129   2.015  0.3488  1.5092  0.8019
  154MOL    H9931005   3.013   6.930   1.898 -0.8173  0.7638 -0.0067
  154MOL   H10031006   2.930   6.804   1.990 -2.3049  0.5255 -1.1276
  154MOL   H10131007   2.857   6.963   1.972 -0.0915  0.3672  0.2019
  154MOL   C10231008   2.926   7.189   2.088 -0.8696 -0.6345 -0.5585
  154MOL   C10331009   2.838   7.202   2.216  0.3368  0.0063 -0.1958
  154MOL   O10431010   2.724   7.280   2.187 -0.3967  0.2153  0.1852
  154MOL   C10531011   2.735   7.420   2.194 -0.3017 -0.4484 -0.3703
  154MOL   H10631012   2.862   7.162   2.004  0.2579  0.6157 -1.8569
  154MOL   H10731013   2.951   7.294   2.068 -1.7325 -0.4532 -0.7332
  154MOL   H10831014   2.897   7.244   2.298 -0.4291 -0.0222  0.3741
  154MOL   H10931015   2.806   7.453   2.119  0.1677  0.2681  0.3859
  154MOL   H11031016   2.641   7.472   2.176  0.6613  1.2256 -0.6362
  154MOL   H11131017   2.785   7.456   2.284 -0.3471 -2.1529  0.3650
  154MOL   C11231018   2.781   7.064   2.264  0.1672 -0.0951  0.2908
  154MOL   C11331019   2.701   7.075   2.398  0.2039  0.5094 -0.4581
  154MOL   O11431020   2.663   6.942   2.413  0.0930  0.2630 -0.0471
  154MOL   C11531021   2.550   6.915   2.499 -0.5594  0.1058 -0.4669
  154MOL   H11631022   2.860   6.991   2.284  0.2206  0.3773  1.8431
  154MOL   H11731023   2.710   7.034   2.187  0.7106 -0.1172 -0.2130
  154MOL   H11831024   2.617   7.141   2.378 -1.1109 -1.3148 -1.0463
  154MOL   H11931025   2.451   6.940   2.463 -1.2742 -0.2817  1.1798
  154MOL   H12031026   2.537   6.808   2.516  0.7478 -0.0710 -0.5229
  154MOL   H12131027   2.566   6.967   2.594 -3.2244  0.9316 -0.4401
  154MOL   C12231028   2.781   7.127   2.520 -0.0497 -0.4976  0.1099
  154MOL   C12331029   2.717   7.243   2.589  0.5020  0.3742  0.3153
  154MOL   O12431030   2.588   7.205   2.651  0.3812 -0.6752  0.4061
  154MOL   C12531031   2.479   7.280   2.606  0.2252  0.1567 -0.0090
  154MOL   H12631032   2.885   7.152   2.501  0.0158 -0.6451  0.2814
  154MOL   H12731033   2.789   7.040   2.586 -2.8894 -0.8450  0.0506
  154MOL   H12831034   2.713   7.323   2.515  0.5681  0.0187 -0.0727
  154MOL   H12931035   2.395   7.260   2.674  0.8807 -0.5926  0.5985
  154MOL   H13031036   2.503   7.386   2.612  2.3201 -0.2533 -0.9814
  154MOL   H13131037   2.461   7.254   2.502 -2.7313  0.7629  0.2975
  154MOL   C13231038   2.818   7.315   2.693  0.2044  1.4175  0.6074
  154MOL   C13331039   2.763   7.443   2.752 -0.0010  0.1864 -0.1019
  154MOL   O13431040   2.844   7.504   2.850  0.5580 -0.5724  0.3291
  154MOL   C13531041   2.874   7.427   2.970 -0.1920  0.2070  0.0025
  154MOL   H13631042   2.914   7.329   2.645 -0.6767  0.1469 -1.6031
  154MOL   H13731043   2.851   7.244   2.769 -1.4101 -0.2338 -0.1946
  154MOL   H13831044   2.675   7.424   2.814  0.9567 -0.1266  1.2022
  154MOL   H13931045   2.938   7.495   3.026 -0.2215  3.3300 -3.5581
  154MOL   H14031046   2.785   7.403   3.028  0.4784 -1.5811  0.3496
  154MOL   H14131047   2.933   7.336   2.957 -2.3126 -1.2199  0.0071
  154MOL   C14231048   2.721   7.557   2.660 -1.2787 -0.1570 -0.3868
  154MOL   C14331049   2.831   7.634   2.590 -0.2238 -0.0588  0.0694
  154MOL   O14431050   2.879   7.543   2.489  0.3998  0.0722  0.6007
  154MOL   C14531051   2.981   7.586   2.403  0.9239  0.4863 -0.0215
  154MOL   H14631052   2.662   7.631   2.714 -2.1551 -0.2328 -1.2090
  154MOL   H14731053   2.638   7.524   2.597 -2.5009 -2.4609  2.3253
  154MOL   H14831054   2.910   7.654   2.663  0.5888 -0.8284 -0.5744
  154MOL   H14931055   2.957   7.683   2.361 -1.1847  0.0420  0.1298
  154MOL   H15031056   3.070   7.599   2.465  0.9532 -1.4884  0.3994
  154MOL   H15131057   3.006   7.512   2.327  0.8907 -2.9541  3.1315
  154MOL   C15231058   2.792   7.779   2.542 -0.2326  0.3501  0.1245
  154MOL   C15331059   2.667   7.798   2.449 -0.2698  0.9050 -0.5906
  154MOL   O15431060   2.551   7.724   2.482  0.0884 -0.1355  0.1253
  154MOL   C15531061   2.509   7.626   2.386 -0.3419  0.4037 -0.1605
  154MOL   H15631062   2.875   0.019   2.494  0.1409 -0.0472  0.3505
  154MOL   H15731063   2.778   0.024   2.635 -1.9231 -2.0148  1.3385
  154MOL   H15831064   2.702   7.795   2.346 -4.0315  0.4315 -1.9513
  154MOL   H15931065   2.568   7.535   2.395 -1.8053 -0.4835  0.6981
  154MOL   H16031066   2.405   7.610   2.413 -0.3688 -0.5305 -0.8217
  154MOL   H16131067   2.516   7.676   2.290  2.3311  1.0577  0.3403
  154MOL   C16231068   2.629   0.140   2.455  0.4875 -0.1280 -0.0022
  154MOL   C16331069   2.532   0.194   2.340  0.4484 -0.1015 -0.0376
  154MOL   O16431070   2.593   0.159   2.217 -0.3332  0.2762  0.1466
  154MOL   C16531071   2.679   0.256   2.168 -0.7128  0.2524  0.5595
  154MOL   H16631072   2.726   0.189   2.448  0.8697 -1.0032 -0.9730
  154MOL   H16731073   2.591   0.150   2.556 -0.2113 -1.6480 -0.1057
  154MOL   H16831074   2.522   0.302   2.345  0.0805 -0.1561  0.4569
  154MOL   H16931075   2.645   0.359   2.165 -2.8769 -0.4571 -0.4658
  154MOL   H17031076   2.770   0.243   2.227 -0.4742  0.4336  0.2349
  154MOL   H17131077   2.707   0.231   2.066 -0.7731  0.6608  0.4437
  154MOL   C17231078   2.382   0.149   2.346 -0.4148 -0.0219 -0.3093
  154MOL   C17331079   2.293   0.215   2.238  0.6006 -0.1721 -0.3539
  154MOL   O17431080   2.163   0.158   2.240 -0.4278 -0.5548  0.1747
  154MOL   C17531081   2.153   0.038   2.160  0.2838 -0.5722  0.8092
  154MOL   H17631082   2.348   0.178   2.446 -0.7696  1.7889 -0.9287
  154MOL   H17731083   2.383   0.040   2.341 -1.1350 -0.0011 -1.1240
  154MOL   H17831084   2.350   0.193   2.148  2.2922 -0.1421  0.6674
  154MOL   H17931085   2.054   7.810   2.187 -0.1382  0.2485  0.4520
  154MOL   H18031086   2.159   0.061   2.053 -4.2226 -0.5291  0.4539
  154MOL   H18131087   2.226   7.773   2.188 -0.0115 -1.7827 -1.4931
  154MOL   C18231088   2.264   0.359   2.266  0.1391 -0.4082 -0.3126
  154MOL   C18331089   2.214   0.439   2.144 -0.1865  0.5877  1.1024
  154MOL   O18431090   2.156   0.557   2.184  0.1504  0.5478 -0.3188
  154MOL   C18531091   2.019   0.545   2.237 -0.1520 -0.1563  0.1457
  154MOL   H18631092   2.345   0.422   2.301 -1.1100  1.0668 -0.0101
  154MOL   H18731093   2.190   0.362   2.346 -0.0953  2.2380 -0.5738
  154MOL   H18831094   2.143   0.378   2.087 -0.9061  1.4268  1.0858
  154MOL   H18931095   1.989   0.638   2.287  2.7242 -0.4050  2.4758
  154MOL   H19031096   1.948   0.530   2.155  0.6726 -0.0868 -0.5901
  154MOL   H19131097   2.010   0.455   2.297 -0.2861 -0.4120 -0.2605
  154MOL   C19231098   2.332   0.479   2.046 -0.0400 -0.3094  0.0549
  154MOL   C19331099   2.296   0.520   1.906 -0.0419 -0.2251  0.4816
  154MOL   O19431100   2.405   0.584   1.844  0.4963  0.0900  0.2830
  154MOL   C19531101   2.358   0.663   1.734  0.0181  0.5786 -0.9523
  154MOL   H19631102   2.397   0.392   2.033 -0.1671 -0.2977 -0.7067
  154MOL   H19731103   2.397   0.553   2.093 -0.6458 -0.3408  0.9597
  154MOL   H19831104   2.213   0.590   1.914  1.6405  1.7142  1.5723
  154MOL   H19931105   2.288   0.617   1.665 -1.6271 -1.8900  2.2224
  154MOL   H20031106   2.302   0.747   1.774 -0.9214 -0.5877  0.2403
  154MOL   H20131107   2.438   0.695   1.667 -0.1598 -2.6577 -2.7954
  154MOL   H20231108   2.263   0.429   1.857 -1.8456  0.6929 -0.0639
  155MOL     C131109   6.564   4.652   2.641 -0.2015  0.2085  0.6920
  155MOL     C231110   6.708   4.600   2.638  0.2820  0.1167  0.4161
  155MOL     O331111   6.713   4.461   2.591 -0.5626 -0.4278 -0.7819
  155MOL     C431112   6.655   4.425   2.463 -0.6310  0.1769  0.1277
  155MOL     H531113   6.559   4.752   2.683  0.2805 -0.5089  2.5077
  155MOL     H631114   6.544   4.671   2.536 -3.5352  1.1284  1.4619
  155MOL     H731115   6.731   4.604   2.744  0.7461 -0.2276  0.3258
  155MOL     H831116   6.623   4.320   2.467 -0.1954 -0.1417 -3.4450
  155MOL     H931117   6.569   4.483   2.431 -1.9525  0.3262  3.7328
  155MOL    H1031118   6.729   4.437   2.384  2.5305 -0.6516  2.8288
  155MOL    H1131119   6.484   4.593   2.684 -1.3898  2.7149  1.9783
  155MOL    C1231120   6.805   4.680   2.559  0.0780  0.1321  0.2210
  155MOL    C1331121   6.954   4.650   2.574 -0.3814  0.8209 -0.1910
  155MOL    O1431122   7.034   4.691   2.461 -0.1559 -0.4079 -0.1138
  155MOL    C1531123   7.020   4.600   2.353 -0.5770  0.2678  0.0827
  155MOL    H1631124   6.796   4.785   2.590  3.8027  1.3006 -2.3628
  155MOL    H1731125   6.772   4.684   2.455  0.3786  0.0719  0.1249
  155MOL    H1831126   6.963   4.542   2.585  2.2054  1.1618  1.7407
  155MOL    H1931127   7.087   4.641   2.277 -0.1288  0.3298  0.5098
  155MOL    H2031128   7.066   4.505   2.381 -0.2889 -0.2054 -1.8945
  155MOL    H2131129   6.919   4.574   2.321  0.1029 -2.7175  0.2339
  155MOL    C2231130   7.015   4.699   2.705  0.5211  0.1944  0.5450
  155MOL    C2331131   7.142   4.626   2.754 -0.2717  0.3021  0.9716
  155MOL    O2431132   7.131   4.486   2.765 -0.1866  0.0524 -0.1511
  155MOL    C2531133   7.077   4.436   2.885 -0.4558  0.4169  0.5059
  155MOL    H2631134   6.938   4.687   2.782 -0.5983 -3.1133 -1.0092
  155MOL    H2731135   7.024   4.807   2.695 -0.6184  0.2132 -0.3935
  155MOL    H2831136   7.163   4.665   2.853 -0.1874  1.2393  0.5941
  155MOL    H2931137   6.969   4.435   2.874 -0.4219  0.5943  0.1249
  155MOL    H3031138   7.105   4.331   2.887 -0.7239  0.2554 -2.0921
  155MOL    H3131139   7.103   4.466   2.986 -0.2939 -0.6104  0.7702
  155MOL    C3231140   7.261   4.634   2.657  0.3099 -0.1624  0.1587
  155MOL    C3331141   7.401   4.601   2.713 -0.3449  0.2383 -0.7300
  155MOL    O3431142   7.498   4.635   2.610  0.0406  0.7211 -0.2868
  155MOL    C3531143   7.608   4.540   2.607  0.4519 -0.5634  0.5871
  155MOL    H3631144   7.268   4.740   2.630  0.3510  0.1360  1.3069
  155MOL    H3731145   7.245   4.563   2.577 -0.5008  0.1836  0.0104
  155MOL    H3831146   7.394   4.493   2.726 -0.0489  0.2135 -0.7715
  155MOL    H3931147   7.655   4.539   2.705 -1.5409 -0.7081  1.5504
  155MOL    H4031148   7.575   4.442   2.571  1.0800  0.3498 -2.6775
  155MOL    H4131149   7.682   4.561   2.530 -0.4362 -0.2901 -0.2001
  155MOL    C4231150   7.444   4.667   2.851  0.3959  0.5110 -0.1587
  155MOL    C4331151   7.428   4.813   2.867 -0.0743  0.5393 -0.1117
  155MOL    O4431152   7.441   4.845   3.005  0.0902 -0.1571  0.2808
  155MOL    C4531153   7.327   4.827   3.088 -0.2493  0.1950  0.3264
  155MOL    H4631154   7.545   4.649   2.887  0.1821  2.0589  1.2989
  155MOL    H4731155   7.373   4.614   2.914  0.0416 -0.7981 -1.6149
  155MOL    H4831156   7.331   4.848   2.830 -0.2303 -0.7721 -0.9723
  155MOL    H4931157   7.340   4.853   3.193  1.9080  0.7044 -0.0362
  155MOL    H5031158   7.245   4.892   3.055 -0.2430 -0.5405 -1.1630
  155MOL    H5131159   7.292   4.725   3.076 -2.0278  0.6253  1.6160
  155MOL    C5231160   7.535   4.897   2.794 -0.3383 -0.1243  0.3205
  155MOL    C5331161   7.532   5.049   2.798  0.2626 -0.4984  0.5493
  155MOL    O5431162   7.647   5.086   2.719  0.2546 -0.4191  0.7862
  155MOL    C5531163   7.677   5.222   2.727 -0.0999 -0.5897  0.7163
  155MOL    H5631164   7.524   4.873   2.688  3.2620  2.0824 -0.6154
  155MOL    H5731165   7.634   4.864   2.825  0.1181  0.7751 -0.1650
  155MOL    H5831166   7.542   5.077   2.903 -0.5452  1.1178  0.2035
  155MOL    H5931167   7.622   5.284   2.656  0.1128 -1.4688 -0.2403
  155MOL    H6031168   7.659   5.253   2.830  0.4184 -1.3437  1.0377
  155MOL    H6131169   7.783   5.227   2.704 -0.1741 -0.1701  0.4716
  155MOL    C6231170   7.403   5.122   2.747  0.9402 -0.1510 -0.4944
  155MOL    C6331171   7.375   5.118   2.598  0.0764  0.0472 -0.1829
  155MOL    O6431172   7.332   4.984   2.562 -0.1828  0.4214 -0.2419
  155MOL    C6531173   7.405   4.921   2.458  0.3566  0.9090 -1.0669
  155MOL    H6631174   7.412   5.227   2.774 -1.6419  0.0513 -0.3165
  155MOL    H6731175   7.311   5.088   2.795  1.5250 -1.9534 -0.6114
  155MOL    H6831176   7.467   5.136   2.543  2.3384 -1.4641  2.9345
  155MOL    H6931177   7.388   4.965   2.361  0.5572  3.7717  0.1618
  155MOL    H7031178   7.513   4.918   2.472 -0.0322  0.2443  2.4158
  155MOL    H7131179   7.383   4.815   2.440  3.7637 -0.0900  0.1806
  155MOL    C7231180   7.260   5.218   2.552  0.0139 -0.1972 -0.1570
  155MOL    C7331181   7.316   5.359   2.538 -0.7208  0.1475  0.3936
  155MOL    O7431182   7.337   5.393   2.400 -0.6290  0.1124  0.1791
  155MOL    C7531183   7.466   5.367   2.355 -0.0461 -0.3530 -0.0587
  155MOL    H7631184   7.185   5.211   2.630  0.4457  2.3703  0.5319
  155MOL    H7731185   7.206   5.188   2.462  1.3026 -1.2961 -0.5812
  155MOL    H7831186   7.409   5.367   2.595 -1.5259 -1.3427  1.9438
  155MOL    H7931187   7.545   5.419   2.408  0.7151  0.2989 -1.7998
  155MOL    H8031188   7.482   5.259   2.349 -1.4899 -0.4710 -2.3446
  155MOL    H8131189   7.470   5.402   2.252  0.6434 -0.8943 -0.2184
  155MOL    C8231190   7.220   5.465   2.590  0.1501 -0.5422  0.0802
  155MOL    C8331191   7.244   5.514   2.732 -0.0247 -0.2341 -0.3741
  155MOL    O8431192   7.268   5.402   2.810 -0.2064 -0.2349  0.4234
  155MOL    C8531193   7.221   5.397   2.939  0.0105 -0.1018 -0.6831
  155MOL    H8631194   7.123   5.418   2.578  0.3877 -0.9192 -0.4013
  155MOL    H8731195   7.209   5.555   2.530  0.6331 -1.3505 -1.2555
  155MOL    H8831196   7.151   5.563   2.761  0.6742  1.0556 -0.2970
  155MOL    H8931197   7.239   5.490   2.994 -0.5710 -1.0800  1.1817
  155MOL    H9031198   7.112   5.400   2.938  0.0117  1.3341  1.0885
  155MOL    H9131199   7.265   5.310   2.988  2.1246  0.3497 -1.7226
  155MOL    C9231200   7.364   5.616   2.743  0.6555 -0.8540 -0.1695
  155MOL    C9331201   7.325   5.765   2.768  0.3632 -0.1968  0.3092
  155MOL    O9431202   7.431   5.840   2.830 -0.3409 -0.0446 -0.0017
  155MOL    C9531203   7.414   5.843   2.970 -0.1697 -0.2417 -0.4060
  155MOL    H9631204   7.410   5.606   2.644 -3.3429 -2.3135 -2.0016
  155MOL    H9731205   7.440   5.583   2.813  2.7833  1.0954 -1.4799
  155MOL    H9831206   7.236   5.762   2.830 -2.0749  1.5894 -2.9388
  155MOL    H9931207   7.340   5.912   3.011 -0.6176 -0.2249 -1.2404
  155MOL   H10031208   7.405   5.745   3.016 -1.0467 -1.6930 -3.6002
  155MOL   H10131209   7.506   5.888   3.009  0.2454  0.0171 -1.6511
  155MOL   C10231210   7.288   5.842   2.634  0.3947  0.4356  0.2269
  155MOL   C10331211   7.204   5.966   2.646  0.4182 -0.1801 -0.1519
  155MOL   O10431212   7.212   6.054   2.536 -0.5337  0.3590  0.4055
  155MOL   C10531213   7.335   6.124   2.520 -0.0530 -0.0202 -0.3054
  155MOL   H10631214   7.236   5.776   2.565 -1.3359 -1.7666  3.4895
  155MOL   H10731215   7.384   5.867   2.589 -0.0392  3.5701  0.9174
  155MOL   H10831216   7.218   6.028   2.734 -1.3332  1.0517 -0.7027
  155MOL   H10931217   7.388   6.158   2.609  0.4273 -0.7623 -0.3017
  155MOL   H11031218   7.403   6.061   2.462 -0.3269 -0.1574 -0.4803
  155MOL   H11131219   7.313   6.205   2.451  0.6570  0.9384  0.5778
  155MOL   C11231220   7.055   5.938   2.656  0.2692 -0.0561  0.5420
  155MOL   C11331221   6.957   6.046   2.724 -0.2016  0.3322  0.7330
  155MOL   O11431222   7.001   6.075   2.852 -0.4170  0.2754 -0.4653
  155MOL   C11531223   6.921   6.123   2.956  0.2683 -0.4698  0.0604
  155MOL   H11631224   7.031   5.841   2.700 -1.8768  0.5183  0.7151
  155MOL   H11731225   7.019   5.920   2.555  1.2223  0.3127  0.1285
  155MOL   H11831226   6.854   6.011   2.726 -0.5398  0.9143 -2.4155
  155MOL   H11931227   6.894   6.228   2.949 -0.6252 -0.6251  1.0474
  155MOL   H12031228   6.830   6.064   2.951 -0.7111  0.7600  2.5703
  155MOL   H12131229   6.964   6.111   3.055 -2.2007  1.5442  1.4164
  155MOL   C12231230   6.956   6.180   2.646  0.2117 -0.2380  0.5949
  155MOL   C12331231   6.856   6.197   2.529  0.0332 -0.0036  0.6575
  155MOL   O12431232   6.870   6.334   2.483  0.3398 -0.5438  0.4487
  155MOL   C12531233   6.785   6.430   2.551 -0.4141  0.8760  0.0817
  155MOL   H12631234   7.057   6.200   2.611  0.1605 -1.3003 -0.1954
  155MOL   H12731235   6.940   6.258   2.721 -0.1875  0.0324  0.2284
  155MOL   H12831236   6.760   6.182   2.578 -0.2865  0.8114  0.2868
  155MOL   H12931237   6.687   6.406   2.511 -0.6664  1.2267  0.4964
  155MOL   H13031238   6.793   6.423   2.659  1.9246 -0.4555 -0.1457
  155MOL   H13131239   6.796   6.530   2.509 -1.2050  0.8937 -0.0849
  155MOL   C13231240   6.879   6.103   2.410 -0.2063  0.5572 -0.1105
  155MOL   C13331241   6.797   6.132   2.284  0.2855 -0.0584 -0.1991
  155MOL   O13431242   6.863   6.067   2.178  0.2898 -0.2933 -0.1653
  155MOL   C13531243   6.833   6.119   2.052 -0.1314 -0.1763 -0.1775
  155MOL   H13631244   6.861   5.999   2.434 -1.7730  0.6759 -0.7004
  155MOL   H13731245   6.983   6.116   2.378 -0.2398  0.3007 -0.3171
  155MOL   H13831246   6.797   6.239   2.263 -0.8045 -0.3716 -1.8802
  155MOL   H13931247   6.801   6.222   2.040  0.4529  0.0696  0.3852
  155MOL   H14031248   6.915   6.109   1.981  0.4869 -0.0899  0.5242
  155MOL   H14131249   6.749   6.059   2.016 -0.8695  1.4120 -1.1198
  155MOL   C14231250   6.653   6.076   2.301 -0.5320 -0.0456 -0.1085
  155MOL   C14331251   6.541   6.145   2.221 -0.0467 -0.2346  0.3778
  155MOL   O14431252   6.420   6.065   2.253 -0.4813 -0.7400 -0.3983
  155MOL   C14531253   6.400   5.949   2.181  0.4505  0.2947 -0.8304
  155MOL   H14631254   6.628   6.088   2.407 -2.1177  0.2419 -0.5028
  155MOL   H14731255   6.648   5.970   2.275 -0.6767 -0.6158  2.1222
  155MOL   H14831256   6.558   6.126   2.115  3.3314 -0.8250  0.9723
  155MOL   H14931257   6.446   5.865   2.233  3.1982  1.5296 -1.1661
  155MOL   H15031258   6.292   5.933   2.175  0.4344  0.1566 -0.2405
  155MOL   H15131259   6.442   5.957   2.081 -0.8404  2.1398 -1.2544
  155MOL   C15231260   6.524   6.291   2.248  0.2295  0.6726  0.9392
  155MOL   C15331261   6.405   6.360   2.176 -0.1219  0.4932  0.0676
  155MOL   O15431262   6.392   6.492   2.223  0.1177 -0.3219  0.7847
  155MOL   C15531263   6.312   6.497   2.338  0.2193  0.1345  0.5813
  155MOL   H15631264   6.619   6.339   2.223  0.7208 -0.5628  0.3590
  155MOL   H15731265   6.500   6.290   2.354  0.8897  0.8716  1.0923
  155MOL   H15831266   6.312   6.305   2.186  0.6638 -1.1371 -1.4370
  155MOL   H15931267   6.297   6.596   2.381  2.3603  0.3408  0.9121
  155MOL   H16031268   6.217   6.445   2.334 -2.0075  3.9633  0.8703
  155MOL   H16131269   6.377   6.442   2.406 -0.1777  0.0064  0.8528
  155MOL   C16231270   6.437   6.374   2.027 -0.6335  0.3182 -0.5891
  155MOL   C16331271   6.323   6.440   1.944  0.5083 -0.5541 -0.3169
  155MOL   O16431272   6.384   6.511   1.842 -0.2890  0.2607  0.3200
  155MOL   C16531273   6.436   6.640   1.881 -0.0594  0.4101 -0.6011
  155MOL   H16631274   6.466   6.275   1.991 -1.2678 -0.5504  1.1995
  155MOL   H16731275   6.529   6.431   2.014  1.3074 -2.4480  0.5592
  155MOL   H16831276   6.264   6.508   2.005  1.8180  0.3239  0.0086
  155MOL   H16931277   6.476   6.687   1.791  0.1588 -1.3037 -1.4280
  155MOL   H17031278   6.368   6.714   1.922 -0.4942  0.3866 -1.2805
  155MOL   H17131279   6.521   6.639   1.949 -0.3663 -1.2439 -0.2267
  155MOL   C17231280   6.231   6.335   1.879 -0.3666 -0.1539  0.2568
  155MOL   C17331281   6.131   6.391   1.782  0.6470 -0.3204 -0.2423
  155MOL   O17431282   6.096   6.293   1.683 -0.8060  0.5595 -0.1071
  155MOL   C17531283   6.160   6.327   1.557  0.3959  0.4562 -0.3113
  155MOL   H17631284   6.193   6.262   1.950  0.8457  0.6642  1.7575
  155MOL   H17731285   6.300   6.277   1.818  1.6627  0.2475  2.1045
  155MOL   H17831286   6.182   6.470   1.728 -1.8235  3.3779  2.6195
  155MOL   H17931287   6.269   6.332   1.568  0.3341  0.6770  0.2008
  155MOL   H18031288   6.152   6.247   1.483 -1.3322 -1.1691  1.5793
  155MOL   H18131289   6.126   6.416   1.505  1.6307 -0.6987 -3.1817
  155MOL   C18231290   6.010   6.452   1.851  0.3252 -0.4494 -0.0715
  155MOL   C18331291   5.916   6.367   1.944 -0.0855 -0.5578  0.2021
  155MOL   O18431292   5.976   6.355   2.071 -0.0271  0.5535 -0.1460
  155MOL   C18531293   5.926   6.256   2.159 -0.2078  0.3698 -0.0803
  155MOL   H18631294   5.954   6.503   1.772  0.7471  0.2816  0.0899
  155MOL   H18731295   6.051   6.532   1.913 -0.1848 -0.1589 -0.1010
  155MOL   H18831296   5.921   6.263   1.910 -0.4574 -0.9365  1.2777
  155MOL   H18931297   5.985   6.251   2.250  0.7727 -1.0585 -0.7762
  155MOL   H19031298   5.817   6.252   2.167 -0.0798  0.9275  2.1903
  155MOL   H19131299   5.956   6.164   2.110 -0.6271  1.0665 -1.6867
  155MOL   C19231300   5.771   6.421   1.946 -0.1345  0.5098 -0.0949
  155MOL   C19331301   5.682   6.374   1.829 -0.1888 -0.1352 -0.1002
  155MOL   O19431302   5.557   6.440   1.820 -0.4972 -0.4830 -0.1835
  155MOL   C19531303   5.451   6.371   1.760 -0.9175 -0.2101 -0.0227
  155MOL   H19631304   5.771   6.530   1.952 -2.5322  0.6059 -1.1861
  155MOL   H19731305   5.726   6.403   2.044  0.4565 -1.2022 -0.1183
  155MOL   H19831306   5.662   6.269   1.849 -1.1452  0.1417  0.4323
  155MOL   H19931307   5.472   6.355   1.655  0.5374 -3.3686  0.6853
  155MOL   H20031308   5.425   6.280   1.815  0.0546 -1.7529 -2.0579
  155MOL   H20131309   5.369   6.443   1.763 -0.7464 -0.0435  0.6963
  155MOL   H20231310   5.739   6.392   1.738 -0.7462 -0.1316 -0.4509
  156MOL     C131311   1.450   3.953   7.601  0.0998  0.1792 -0.2096
  156MOL     C231312   1.415   4.104   7.631 -0.6196  0.5207 -0.1412
  156MOL     O331313   1.339   4.152   7.524  0.3758 -0.1782  0.3191
  156MOL     C431314   1.401   4.167   7.393 -0.7484 -0.1438 -0.2188
  156MOL     H531315   1.357   3.902   7.574  0.4723 -0.9880  0.6361
  156MOL     H631316   1.522   3.943   7.521 -0.2242  0.0890 -0.4906
  156MOL     H731317   1.498   4.173   7.646 -1.2728  1.1927  0.4204
  156MOL     H831318   1.496   4.218   7.409  0.0367 -0.8875 -2.2823
  156MOL     H931319   1.421   4.073   7.341 -3.1744  0.2319 -1.8839
  156MOL    H1031320   1.328   4.229   7.342 -0.4309 -1.0066 -1.7588
  156MOL    H1131321   1.490   3.901   7.689 -0.5658 -0.0537 -0.0396
  156MOL    C1231322   1.322   4.105   7.755  0.3355  0.0364 -0.4578
  156MOL    C1331323   1.260   4.242   7.794 -0.2074 -0.2167  0.7768
  156MOL    O1431324   1.183   4.238   0.098  0.3758  0.1936 -0.4106
  156MOL    C1531325   1.075   4.136   0.096 -0.2458 -0.3786  0.0944
  156MOL    H1631326   1.387   4.064   0.022  0.1597  1.2012  0.3203
  156MOL    H1731327   1.250   4.024   7.741 -1.6826  1.4918  1.1387
  156MOL    H1831328   1.209   4.285   7.708 -0.9682  0.8800  1.7649
  156MOL    H1931329   1.062   4.099   7.805 -0.9992  0.5828 -0.1627
  156MOL    H2031330   1.091   4.039   0.143  0.1814 -0.9099 -1.1058
  156MOL    H2131331   0.982   4.185   0.121 -0.7120 -1.0586 -0.2941
  156MOL    C2231332   1.370   4.342   0.011  0.0742  0.3037 -0.3848
  156MOL    C2331333   1.327   4.465   0.082 -0.0116 -0.0527  0.1171
  156MOL    O2431334   1.435   4.551   0.048  0.2967  0.5845 -0.7447
  156MOL    C2531335   1.530   4.562   0.156 -0.4716  0.2793 -0.0158
  156MOL    H2631336   1.413   4.363   7.723  0.4186  0.7447 -0.1406
  156MOL    H2731337   1.442   4.304   0.084 -0.6557 -0.5063 -0.0717
  156MOL    H2831338   1.327   4.443   0.189  0.2832 -0.3426  0.0591
  156MOL    H2931339   1.592   4.477   0.185  0.4063  1.1365  0.6824
  156MOL    H3031340   1.615   4.623   0.126 -0.4212  1.0874  1.6681
  156MOL    H3131341   1.481   4.594   0.249 -0.8119  0.1568 -0.1529
  156MOL    C3231342   1.205   4.542   0.024 -0.5026 -0.5675 -0.0929
  156MOL    C3331343   1.178   4.657   0.121 -0.1895 -0.2748 -0.1044
  156MOL    O3431344   1.137   4.766   0.031 -0.0623 -0.1507 -0.2361
  156MOL    C3531345   1.219   4.879   0.032  0.3296  0.0579  0.4209
  156MOL    H3631346   1.134   4.461   0.019  2.8690 -3.6605 -0.1021
  156MOL    H3731347   1.232   4.566   7.731 -1.5479 -0.0121 -0.2386
  156MOL    H3831348   1.272   4.681   0.170 -0.4727 -1.9493  1.3092
  156MOL    H3931349   1.155   4.944   7.784  0.7351 -0.1837 -0.2922
  156MOL    H4031350   1.217   4.927   0.131 -2.0979  0.5737  0.1474
  156MOL    H4131351   1.312   4.874   7.786 -0.4622  1.2882 -1.0266
  156MOL    C4231352   1.056   4.629   0.209  0.4470  0.4041 -0.2061
  156MOL    C4331353   1.082   4.528   0.321 -0.0111 -0.2626 -0.5832
  156MOL    O4431354   1.198   4.574   0.388 -0.2329  1.2011 -0.1987
  156MOL    C4531355   1.267   4.470   0.466 -0.1322 -0.1107 -0.2353
  156MOL    H4631356   0.970   4.611   0.145  0.8831  1.3069 -1.0573
  156MOL    H4731357   1.030   4.720   0.264 -1.2042 -0.4388  0.4305
  156MOL    H4831358   1.109   4.432   0.278 -1.1495 -0.1277 -1.6289
  156MOL    H4931359   1.197   4.408   0.522 -0.1680 -1.9491 -2.2440
  156MOL    H5031360   1.313   4.392   0.406 -2.5646 -1.0938 -0.8944
  156MOL    H5131361   1.344   4.515   0.528 -1.0230  0.5158  0.4381
  156MOL    C5231362   0.960   4.518   0.425 -0.3363 -0.0448  0.2674
  156MOL    C5331363   0.806   4.547   0.378  0.0728  0.5866 -0.0608
  156MOL    O5431364   0.753   4.427   0.329 -0.3305 -0.2158  0.2963
  156MOL    C5531365   0.761   4.401   0.184  0.5581  0.1603 -0.3833
  156MOL    H5631366   0.977   4.601   0.494  2.0234  0.5119 -0.9108
  156MOL    H5731367   0.962   4.423   0.477  1.3554 -0.3778 -0.3793
  156MOL    H5831368   0.804   4.626   0.302  0.6931 -0.2574 -0.9769
  156MOL    H5931369   0.692   4.320   0.161  0.1973  0.1065  0.8200
  156MOL    H6031370   0.729   4.489   0.128  0.9641  1.4941  1.4137
  156MOL    H6131371   0.862   4.369   0.160  1.1690  1.7084  0.0235
  156MOL    C6231372   0.712   4.583   0.494  0.0575  0.0125  0.3667
  156MOL    C6331373   0.564   4.579   0.464 -0.7474 -0.4932 -0.2001
  156MOL    O6431374   0.493   4.608   0.586 -0.5048 -0.7454  0.2402
  156MOL    C6531375   0.495   4.499   0.680  0.1754 -0.2198 -0.0803
  156MOL    H6631376   0.738   4.685   0.522 -0.3592  0.7130 -1.7450
  156MOL    H6731377   0.739   4.529   0.585  0.0845  1.9713  1.5467
  156MOL    H6831378   0.529   4.486   0.417 -2.2990  0.0992 -0.2417
  156MOL    H6931379   0.430   4.533   0.760  1.0557  0.9428  0.1595
  156MOL    H7031380   0.464   4.403   0.638 -1.9371  0.4388 -0.0681
  156MOL    H7131381   0.593   4.484   0.726 -0.1197 -0.6205  0.4111
  156MOL    C7231382   0.529   4.695   0.367  0.4583 -0.4752  0.5248
  156MOL    C7331383   0.383   4.711   0.347 -0.3271 -0.2772  0.1994
  156MOL    O7431384   0.353   4.826   0.263 -0.1922 -0.0802 -0.6240
  156MOL    C7531385   0.373   4.954   0.322 -0.2187  0.0564  0.7119
  156MOL    H7631386   0.577   4.687   0.269 -1.7047  0.4897 -0.6526
  156MOL    H7731387   0.562   4.789   0.411  0.7162 -0.2318 -0.1757
  156MOL    H7831388   0.328   4.714   0.441  0.4277 -1.7597  0.7308
  156MOL    H7931389   0.319   5.018   0.251  0.5303  2.2374  2.0614
  156MOL    H8031390   0.332   4.959   0.423 -0.5424  1.4984  0.5300
  156MOL    H8131391   0.478   4.982   0.327 -0.3070  1.1792 -2.4686
  156MOL    C8231392   0.328   4.590   0.271 -0.4875  0.2250 -0.0186
  156MOL    C8331393   0.196   4.615   0.193  0.1986 -0.3337 -0.0715
  156MOL    O8431394   0.175   4.511   0.093  0.4536 -0.7146 -0.1329
  156MOL    C8531395   0.084   4.539   7.795  0.3484 -0.8917 -0.0279
  156MOL    H8631396   0.319   4.504   0.337  3.7341 -0.8896 -0.7715
  156MOL    H8731397   0.398   4.566   0.191  0.5168 -0.9148  1.1774
  156MOL    H8831398   0.230   4.693   0.124  0.4703 -0.1568  0.2636
  156MOL    H8931399   7.791   4.540   0.017  0.5037  1.9816  0.5409
  156MOL    H9031400   0.112   4.621   7.728 -3.3702  1.8202  1.5767
  156MOL    H9131401   0.090   4.449   7.733  1.4926 -0.3859 -0.6757
  156MOL    C9231402   0.071   4.665   0.266  0.8406  0.2269  0.1666
  156MOL    C9331403   0.014   4.565   0.375  0.6827  0.5417 -0.3158
  156MOL    O9431404   0.106   4.580   0.484 -0.4778 -0.0576 -0.4883
  156MOL    C9531405   0.130   4.466   0.553 -0.2814  0.0191 -0.2731
  156MOL    H9631406   7.805   4.679   0.190  1.6313 -0.4450 -0.7697
  156MOL    H9731407   0.076   4.768   0.303 -2.8106 -0.4129  2.7314
  156MOL    H9831408   0.019   4.460   0.346  0.1753 -0.0986  1.8216
  156MOL    H9931409   0.044   4.446   0.617 -0.0199 -1.2049 -0.2922
  156MOL   H10031410   0.139   4.375   0.493 -0.7472 -1.2160  1.4958
  156MOL   H10131411   0.222   4.472   0.611  1.6740  0.7802 -3.3223
  156MOL   C10231412   7.680   4.606   0.422 -0.2736  0.2588 -0.7062
  156MOL   C10331413   7.571   4.629   0.310 -0.2352 -1.0362 -0.1774
  156MOL   O10431414   7.578   4.518   0.216  0.2001  0.0700  0.1037
  156MOL   C10531415   7.527   4.395   0.260  0.1601 -0.0193  0.1580
  156MOL   H10631416   7.691   4.695   0.484  0.2451  0.2830 -0.8291
  156MOL   H10731417   7.651   4.525   0.489  0.9111  1.6639  1.5792
  156MOL   H10831418   7.600   4.716   0.250 -2.5520  0.5852  0.9815
  156MOL   H10931419   7.418   4.396   0.268 -0.0926 -1.9872 -2.5239
  156MOL   H11031420   7.549   4.318   0.186  0.6297  0.3194 -0.0554
  156MOL   H11131421   7.567   4.374   0.359 -1.3273 -0.2916  0.7194
  156MOL   C11231422   7.425   4.651   0.366  0.2466 -0.1620  0.0870
  156MOL   C11331423   7.404   4.787   0.430  0.0007  0.6833 -0.2209
  156MOL   O11431424   7.415   4.876   0.329  0.3026 -0.3379  0.0812
  156MOL   C11531425   7.499   4.990   0.365 -0.5715  0.3591 -0.0381
  156MOL   H11631426   7.400   4.578   0.443  1.6791 -2.2509 -1.3995
  156MOL   H11731427   7.350   4.639   0.287  1.2964  0.9247 -1.0918
  156MOL   H11831428   7.476   4.799   0.511  0.1400 -0.1208 -0.2276
  156MOL   H11931429   7.594   4.964   0.411 -0.2413 -1.5330 -1.6840
  156MOL   H12031430   7.522   5.044   0.273  2.3439  0.0348  0.4683
  156MOL   H12131431   7.444   5.051   0.436  0.1582 -0.2606  1.0699
  156MOL   C12231432   7.262   4.805   0.497 -0.1159 -1.1198 -0.1859
  156MOL   C12331433   7.137   4.752   0.433 -0.4185  0.3106 -0.1580
  156MOL   O12431434   7.033   4.802   0.505 -0.4645 -0.0453  0.0923
  156MOL   C12531435   6.960   4.713   0.583 -0.5816  0.5651  0.2740
  156MOL   H12631436   7.244   4.912   0.496  1.2621 -0.8752 -2.2552
  156MOL   H12731437   7.261   4.760   0.596  1.5988  1.7927  1.2289
  156MOL   H12831438   7.145   4.643   0.434  1.4481  0.4322 -0.3537
  156MOL   H12931439   7.014   4.635   0.637 -0.0624  1.8701  1.6662
  156MOL   H13031440   6.898   4.773   0.649 -0.0706 -0.1647  1.4482
  156MOL   H13131441   6.886   4.656   0.527  1.2039 -1.0016 -0.5732
  156MOL   C13231442   7.116   4.798   0.286 -0.1433  0.1227  0.0055
  156MOL   C13331443   7.005   4.737   0.193  0.2062  0.1168  0.2777
  156MOL   O13431444   6.978   4.814   0.074  0.3110  0.9644  0.3601
  156MOL   C13531445   6.846   4.800   0.025  0.1678 -0.1067  0.7270
  156MOL   H13631446   7.209   4.780   0.231 -1.0790  0.6615 -1.7785
  156MOL   H13731447   7.108   4.906   0.293  0.5585  0.1208  0.9443
  156MOL   H13831448   6.917   4.718   0.254 -1.3309 -2.7946 -2.7276
  156MOL   H13931449   6.830   4.875   7.758  0.2686  1.0407  1.8033
  156MOL   H14031450   6.818   4.707   7.785 -1.7785  0.1733  1.2444
  156MOL   H14131451   6.767   4.808   0.099 -1.5988  1.0844 -1.2303
  156MOL   C14231452   7.043   4.594   0.143  0.1492 -0.0596  0.4361
  156MOL   C14331453   6.946   4.472   0.174 -0.3387 -0.2333  0.0192
  156MOL   O14431454   6.824   4.504   0.120  0.4972  0.2227 -0.2570
  156MOL   C14531455   6.709   4.438   0.164  0.0746  0.6166 -0.3755
  156MOL   H14631456   7.140   4.565   0.184  0.1118  0.4672  0.8970
  156MOL   H14731457   7.056   4.594   0.035 -0.2916 -1.3112  0.3706
  156MOL   H14831458   6.919   4.467   0.280  4.2031  1.3079  1.3637
  156MOL   H14931459   6.628   4.469   0.098 -2.0318  0.1491  1.9157
  156MOL   H15031460   6.712   4.329   0.152  1.7175  0.4388  1.4965
  156MOL   H15131461   6.680   4.466   0.265  2.8637  0.8194  0.4050
  156MOL   C15231462   7.004   4.339   0.134  0.6261 -0.0214  0.1814
  156MOL   C15331463   7.095   4.279   0.241 -0.5126  0.0753  0.0658
  156MOL   O15431464   7.031   4.276   0.363  0.3702 -0.1777 -0.3727
  156MOL   C15531465   7.117   4.264   0.477  0.0287  0.6181 -0.3251
  156MOL   H15631466   7.062   4.347   0.041  0.9099  2.1512  0.5158
  156MOL   H15731467   6.927   4.271   0.100 -1.2586  2.4287 -0.6214
  156MOL   H15831468   7.178   4.348   0.253 -1.1559  0.7711  0.5682
  156MOL   H15931469   7.169   4.169   0.487 -0.6173  0.4566  1.8097
  156MOL   H16031470   7.195   4.339   0.484  1.2156 -0.7594  1.4901
  156MOL   H16131471   7.069   4.276   0.574 -1.2205 -0.2481 -0.8200
  156MOL   C16231472   7.133   4.137   0.191  0.3460  0.5621  0.2666
  156MOL   C16331473   7.204   4.127   0.053 -0.2373  0.0241 -0.2559
  156MOL   O16431474   7.324   4.200   0.052  0.2427  0.1934  0.1142
  156MOL   C16531475   7.334   4.313   7.771  0.2158  0.2209 -0.2272
  156MOL   H16631476   7.044   4.075   0.178  1.9713 -1.5301 -1.0053
  156MOL   H16731477   7.189   4.084   0.267  1.4499  0.6658 -0.4569
  156MOL   H16831478   7.144   4.168   7.782  1.5675  1.6265 -0.8149
  156MOL   H16931479   7.426   4.371   7.775 -0.1292  0.8163 -0.9349
  156MOL   H17031480   7.331   4.272   7.670 -1.5308  0.4760 -0.2882
  156MOL   H17131481   7.260   4.388   7.798  1.7686  1.6896  0.0385
  156MOL   C17231482   7.253   3.982   0.039 -0.9283  0.3374  0.1099
  156MOL   C17331483   7.146   3.872   0.007  0.1693 -0.0956  0.0513
  156MOL   O17431484   7.099   3.843   0.141 -0.0504 -0.0019  0.2052
  156MOL   C17531485   7.067   3.706   0.162 -0.5320 -0.0509  0.2937
  156MOL   H17631486   7.317   3.949   0.121  2.4793 -0.7737 -2.8736
  156MOL   H17731487   7.311   3.990   7.758 -1.3452 -3.0954 -0.5024
  156MOL   H17831488   7.186   3.774   7.790 -3.1446 -2.0170  1.7555
  156MOL   H17931489   7.108   3.624   0.104 -1.6018  0.2603 -0.9529
  156MOL   H18031490   7.081   3.695   0.269  0.0630 -0.7567  0.1449
  156MOL   H18131491   6.958   3.696   0.161 -0.2904 -3.2750  1.1270
  156MOL   C18231492   7.030   3.921   7.720 -0.5271 -1.0984  0.6451
  156MOL   C18331493   7.067   3.911   7.571  0.6359 -0.4904  0.8871
  156MOL   O18431494   7.093   3.768   7.544  0.5100 -0.1943  0.1302
  156MOL   C18531495   7.220   3.724   7.495  0.2800  0.8335 -0.6033
  156MOL   H18631496   6.998   4.023   7.738  0.0535 -0.9629  0.9450
  156MOL   H18731497   6.939   3.865   7.739 -1.0072 -0.9416 -1.1510
  156MOL   H18831498   7.156   3.966   7.540  1.1203 -0.1860  2.7593
  156MOL   H18931499   7.226   3.616   7.478 -0.9550  0.5770  0.5345
  156MOL   H19031500   7.241   3.770   7.398 -0.2393 -1.1153 -1.6709
  156MOL   H19131501   7.294   3.755   7.568  0.9692 -0.8797 -0.5364
  156MOL   C19231502   6.961   3.963   7.470 -0.5883  0.3950  0.4029
  156MOL   C19331503   6.999   3.961   7.321 -0.4315  0.0580  0.2546
  156MOL   O19431504   7.085   4.074   7.301 -0.1530  0.2096 -0.7899
  156MOL   C19531505   7.120   4.091   7.161  0.3159  0.0296 -0.4376
  156MOL   H19631506   6.926   4.061   7.501  0.9862  1.1449 -0.1671
  156MOL   H19731507   6.875   3.896   7.478  0.5012 -1.1419 -0.4708
  156MOL   H19831508   6.907   3.969   7.263  0.3298 -1.6822 -1.2392
  156MOL   H19931509   7.041   4.071   7.089 -0.2234  1.6291 -0.3156
  156MOL   H20031510   7.185   4.177   7.149  0.6895  0.0582  1.6214
  156MOL   H20131511   7.191   4.013   7.135  1.1131  0.1679  1.2474
  156MOL   H20231512   7.061   3.874   7.301  1.0208  1.5514 -1.9882
  157MOL     C131513   4.621   5.068   4.475  0.2873 -0.1578 -0.4247
  157MOL     C231514   4.543   5.045   4.608  0.2084  0.5112  0.1066
  157MOL     O331515   4.584   4.921   4.668  0.4287  0.0874 -0.0680
  157MOL     C431516   4.551   4.808   4.588 -0.4805 -1.7145 -0.3132
  157MOL     H531517   4.726   5.067   4.501  0.1317  2.4224  0.5081
  157MOL     H631518   4.608   4.985   4.406  0.6070 -2.1129  1.8381
  157MOL     H731519   4.435   5.043   4.593  0.1069 -1.0897  0.9915
  157MOL     H831520   4.458   4.823   4.532 -0.9424  0.9988  1.0735
  157MOL     H931521   4.627   4.803   4.510 -1.7441  1.6876 -1.9095
  157MOL    H1031522   4.549   4.726   4.659 -2.8948 -0.5956  0.9443
  157MOL    H1131523   4.601   5.164   4.425  0.3838 -0.5046 -1.1376
  157MOL    C1231524   4.568   5.171   4.701 -0.3397  0.2053 -0.8618
  157MOL    C1331525   4.487   5.185   4.829  0.1283 -0.0868 -0.1093
  157MOL    O1431526   4.339   5.183   4.795 -0.1047 -0.5417 -0.2291
  157MOL    C1531527   4.301   5.303   4.731  0.5131 -0.5294  0.0477
  157MOL    H1631528   4.555   5.259   4.638  0.8852 -0.4018 -1.9805
  157MOL    H1731529   4.673   5.159   4.729 -0.9206  0.4862  1.5697
  157MOL    H1831530   4.490   5.286   4.870  0.5647  0.7785 -2.1795
  157MOL    H1931531   4.297   5.386   4.801 -1.5900 -1.1365  0.6677
  157MOL    H2031532   4.358   5.333   4.643 -0.1355  0.2198 -0.1228
  157MOL    H2131533   4.200   5.288   4.691  0.4841  1.1586 -0.5389
  157MOL    C2231534   4.500   5.079   4.940 -0.0679  0.4992  0.8271
  157MOL    C2331535   4.641   5.069   5.008 -0.1688  0.3615 -0.3554
  157MOL    O2431536   4.668   5.204   5.069  0.0017 -0.1954  0.0988
  157MOL    C2531537   4.803   5.241   5.054 -0.3492 -0.4689  0.5136
  157MOL    H2631538   4.481   4.980   4.899 -0.3887  0.2880  1.4915
  157MOL    H2731539   4.415   5.098   5.005 -1.4673  0.7039 -1.0136
  157MOL    H2831540   4.721   5.052   4.935  1.8331  1.4387  1.5439
  157MOL    H2931541   4.856   5.186   5.132  0.8260  1.9478  1.4861
  157MOL    H3031542   4.843   5.220   4.955 -0.6801  0.6683  0.1305
  157MOL    H3131543   4.806   5.348   5.075  0.6612 -0.3981  0.0544
  157MOL    C3231544   4.645   4.966   5.128 -0.3434 -0.2999  1.0844
  157MOL    C3331545   4.610   4.823   5.091 -0.0149 -0.3552 -0.3447
  157MOL    O3431546   4.713   4.781   5.003  0.0955 -0.2378  0.3996
  157MOL    C3531547   4.677   4.675   4.919  0.1432 -0.4936  0.0099
  157MOL    H3631548   4.572   4.993   5.204 -1.2880 -2.6454  1.0767
  157MOL    H3731549   4.732   4.963   5.192 -0.0980 -1.4487  0.7209
  157MOL    H3831550   4.516   4.825   5.036 -0.1763  2.6475 -0.0218
  157MOL    H3931551   4.713   4.682   4.817 -0.7543  2.2729 -0.1572
  157MOL    H4031552   4.700   4.577   4.963 -0.3495 -0.7925 -0.3984
  157MOL    H4131553   4.569   4.674   4.905 -0.4002  0.5897  3.4634
  157MOL    C4231554   4.598   4.725   5.213 -0.4440  0.5008  0.4085
  157MOL    C4331555   4.489   4.755   5.319 -0.3356 -0.1744  0.4200
  157MOL    O4431556   4.368   4.755   5.247  0.6096  0.1251 -0.0822
  157MOL    C4531557   4.295   4.876   5.267 -0.5912 -0.7645 -0.2757
  157MOL    H4631558   4.692   4.702   5.262  0.3608  1.6883 -0.5657
  157MOL    H4731559   4.572   4.627   5.173 -0.7917  0.0880  1.6305
  157MOL    H4831560   4.509   4.852   5.364  1.6201  0.5562 -1.9082
  157MOL    H4931561   4.276   4.888   5.374  1.9086  1.3363 -0.0108
  157MOL    H5031562   4.344   4.968   5.233 -3.3433  0.4439 -1.0804
  157MOL    H5131563   4.201   4.870   5.212 -0.7623  0.9857 -0.1971
  157MOL    C5231564   4.493   4.654   5.438 -0.2119 -0.3850  0.7696
  157MOL    C5331565   4.385   4.673   5.546 -0.3152  0.5064 -0.3243
  157MOL    O5431566   4.374   4.810   5.580 -0.6914 -0.6212  0.1099
  157MOL    C5531567   4.482   4.868   5.653 -0.5552  0.4790 -0.0393
  157MOL    H5631568   4.590   4.666   5.485  0.1472 -0.3523  0.0361
  157MOL    H5731569   4.500   4.551   5.401  0.4162  0.1535 -0.6736
  157MOL    H5831570   4.424   4.628   5.638  0.7127  1.9620 -0.0406
  157MOL    H5931571   4.577   4.873   5.600 -0.6578  2.4655 -0.0645
  157MOL    H6031572   4.468   4.976   5.658 -1.4747  0.3318  0.6095
  157MOL    H6131573   4.493   4.826   5.753 -0.4420  0.0219 -0.2437
  157MOL    C6231574   4.254   4.606   5.504  0.7979 -0.6619  0.1742
  157MOL    C6331575   4.246   4.449   5.498 -0.9295 -0.1098  0.4678
  157MOL    O6431576   4.320   4.395   5.609  0.4507  0.1930  0.2219
  157MOL    C6531577   4.344   4.255   5.595  0.0407  0.2181  1.2422
  157MOL    H6631578   4.218   4.648   5.410  1.7489  0.2105  0.1965
  157MOL    H6731579   4.179   4.643   5.574  0.6389 -1.7954  0.6197
  157MOL    H6831580   4.292   4.416   5.405 -1.2252  1.2338 -0.1741
  157MOL    H6931581   4.268   4.191   5.639 -1.8362  0.6868 -1.2230
  157MOL    H7031582   4.367   4.230   5.491  0.5161  0.8343  1.1960
  157MOL    H7131583   4.434   4.243   5.656  0.6740 -1.3731  0.0451
  157MOL    C7231584   4.099   4.395   5.490 -0.5815  0.0832 -0.5040
  157MOL    C7331585   4.000   4.450   5.599  0.2411  0.3407  0.2630
  157MOL    O7431586   3.892   4.362   5.605  0.5010 -0.0402  1.1351
  157MOL    C7531587   3.784   4.388   5.516 -0.3221  0.6870  0.2695
  157MOL    H7631588   4.102   4.286   5.490 -1.5084  0.0369  1.7549
  157MOL    H7731589   4.050   4.417   5.396 -1.5827  1.8253  0.4054
  157MOL    H7831590   3.962   4.551   5.581 -1.0412  0.2902  2.5407
  157MOL    H7931591   3.722   4.466   5.560  0.3057  0.8539  0.8768
  157MOL    H8031592   3.819   4.413   5.415  0.5818  0.6739  0.5691
  157MOL    H8131593   3.720   4.302   5.498 -0.1226  0.6902 -0.4684
  157MOL    C8231594   4.048   4.455   5.744 -0.2387 -0.0135 -0.1263
  157MOL    C8331595   3.945   4.504   5.853 -0.0891 -0.4837  0.3628
  157MOL    O8431596   3.977   4.451   5.981  0.1779 -0.1211  0.1709
  157MOL    C8531597   4.089   4.493   6.050  0.5869  0.5724  0.0279
  157MOL    H8631598   4.138   4.516   5.753  0.1479 -0.4367 -1.0725
  157MOL    H8731599   4.072   4.355   5.781  1.1305  0.6705  0.8557
  157MOL    H8831600   3.849   4.461   5.827 -0.3471 -0.9913  2.0746
  157MOL    H8931601   4.175   4.493   5.983  0.3353  0.2199 -0.2999
  157MOL    H9031602   4.073   4.589   6.098 -5.1739 -0.1394 -0.0493
  157MOL    H9131603   4.108   4.430   6.137  0.4157 -0.3767 -0.6117
  157MOL    C9231604   3.933   4.658   5.863  0.5277 -0.0912 -0.1393
  157MOL    C9331605   3.827   4.702   5.967  0.8358  0.1474  0.5931
  157MOL    O9431606   3.836   4.843   5.998  0.0490 -0.2558 -0.3590
  157MOL    C9531607   3.918   4.870   6.117 -0.0003  0.1361  0.3969
  157MOL    H9631608   3.912   4.701   5.765  1.8704 -1.1864 -0.9183
  157MOL    H9731609   4.033   4.691   5.893  1.4454 -0.9262 -2.1725
  157MOL    H9831610   3.850   4.658   6.064  1.8556  2.4808  1.4454
  157MOL    H9931611   3.930   4.978   6.120 -0.4686  0.2098 -0.3111
  157MOL   H10031612   3.886   4.835   6.215  0.1126  0.2780  0.4856
  157MOL   H10131613   4.017   4.830   6.093  0.5011  1.3361  0.4280
  157MOL   C10231614   3.682   4.670   5.922  0.3549  0.7443 -0.1839
  157MOL   C10331615   3.604   4.566   6.012  0.1040  0.0090 -0.3121
  157MOL   O10431616   3.501   4.619   6.103  0.2362  0.0495  0.0570
  157MOL   C10531617   3.558   4.717   6.188  0.5039  0.1961 -0.0414
  157MOL   H10631618   3.682   4.649   5.815  0.0631 -1.2181  0.1807
  157MOL   H10731619   3.618   4.758   5.930 -1.3728 -0.5680  0.7651
  157MOL   H10831620   3.669   4.512   6.081 -1.3118  0.0445  1.0609
  157MOL   H10931621   3.630   4.661   6.247  1.5521 -1.5814 -2.8984
  157MOL   H11031622   3.614   4.798   6.142 -1.8113  2.0516  0.3508
  157MOL   H11131623   3.492   4.762   6.262  0.0399 -2.0813  0.9867
  157MOL   C11231624   3.532   4.464   5.922 -0.1827  0.0547  0.2760
  157MOL   C11331625   3.461   4.356   5.994 -0.1899  0.1878 -0.6390
  157MOL   O11431626   3.331   4.390   6.045  0.2844 -0.4983 -0.0129
  157MOL   C11531627   3.299   4.323   6.172 -0.3410 -0.0165  0.4396
  157MOL   H11631628   3.616   4.428   5.863  0.4137  1.2185  0.3937
  157MOL   H11731629   3.466   4.509   5.847 -1.2051  2.3265  2.4718
  157MOL   H11831630   3.516   4.327   6.084 -0.0690  2.7891  0.1788
  157MOL   H11931631   3.199   4.339   6.212 -0.2596 -1.4204  1.2297
  157MOL   H12031632   3.290   4.217   6.149  0.8001  0.3172 -1.6995
  157MOL   H12131633   3.372   4.327   6.253  0.7846 -0.8428 -0.5081
  157MOL   C12231634   3.456   4.227   5.911 -0.1216  0.6578 -0.1629
  157MOL   C12331635   3.557   4.114   5.934  0.1028 -0.1349 -0.5464
  157MOL   O12431636   3.525   4.010   5.849  0.0237  0.1748 -0.0396
  157MOL   C12531637   3.411   3.927   5.879 -0.0716 -0.3316  0.2677
  157MOL   H12631638   3.447   4.249   5.805 -1.5764 -2.8320 -0.8394
  157MOL   H12731639   3.363   4.180   5.941 -0.7982  1.2301 -1.3578
  157MOL   H12831640   3.549   4.080   6.037  1.3456 -2.5735 -1.2146
  157MOL   H12931641   3.421   3.830   5.831 -0.8143 -0.3532  0.1453
  157MOL   H13031642   3.384   3.911   5.984 -1.2693  0.7703  0.1494
  157MOL   H13131643   3.322   3.965   5.828  0.8593  0.7027 -0.6147
  157MOL   C13231644   3.701   4.165   5.911 -1.0885 -0.6417 -0.3101
  157MOL   C13331645   3.812   4.058   5.946  0.2557 -0.1012 -0.6030
  157MOL   O13431646   3.936   4.105   5.892  0.3905  0.3111  0.3787
  157MOL   C13531647   3.952   4.062   5.756  0.8616  0.4090  0.4319
  157MOL   H13631648   3.720   4.250   5.978 -1.6804  1.2174 -2.4292
  157MOL   H13731649   3.728   4.213   5.817 -2.0512 -1.4573 -1.0042
  157MOL   H13831650   3.783   3.960   5.908  0.0799  0.0505 -0.8624
  157MOL   H13931651   3.891   4.113   5.682 -0.1829 -2.3490 -0.6800
  157MOL   H14031652   4.053   4.097   5.732  0.4260  0.3738 -1.5940
  157MOL   H14131653   3.943   3.956   5.734  0.2256  0.3008  1.2231
  157MOL   C14231654   3.834   4.048   6.096  1.1806  0.4072 -0.7317
  157MOL   C14331655   3.932   3.941   6.155  0.0940  0.6260 -0.0792
  157MOL   O14431656   3.959   3.965   6.292 -0.3746  0.1354 -0.0049
  157MOL   C14531657   3.865   3.920   6.386  0.0711 -0.2513  0.0409
  157MOL   H14631658   3.737   4.029   6.142  1.5306  0.5578  0.0862
  157MOL   H14731659   3.878   4.139   6.137  2.3088  0.0102 -1.0392
  157MOL   H14831660   4.026   3.957   6.102  0.9993 -1.9525  0.6511
  157MOL   H14931661   3.820   3.821   6.375  2.3625 -1.4175  0.8599
  157MOL   H15031662   3.918   3.940   6.478 -0.5425 -2.4711  0.9179
  157MOL   H15131663   3.776   3.983   6.390  0.4407  0.3308 -0.7803
  157MOL   C15231664   3.910   3.794   6.115  0.2539 -0.3251  0.8111
  157MOL   C15331665   4.007   3.682   6.168 -0.2351  0.3037  0.1459
  157MOL   O15431666   3.943   3.554   6.142  0.1387  0.1793 -0.0519
  157MOL   C15531667   3.981   3.458   6.243 -0.2684  0.1191  0.0434
  157MOL   H15631668   3.903   3.785   6.007  2.3864 -0.9903  0.7119
  157MOL   H15731669   3.808   3.776   6.150  0.3063  1.1560  1.8019
  157MOL   H15831670   4.004   3.712   6.273  0.7572  2.9711 -0.5406
  157MOL   H15931671   4.089   3.442   6.239 -0.4700 -0.9065 -1.7396
  157MOL   H16031672   3.942   3.490   6.340  2.1753 -0.7502  1.3621
  157MOL   H16131673   3.943   3.359   6.217  1.5632 -0.7703  0.6649
  157MOL   C16231674   4.148   3.674   6.105  0.5532  0.6679 -0.4042
  157MOL   C16331675   4.252   3.759   6.189 -0.4605 -0.5720 -0.5668
  157MOL   O16431676   4.291   3.695   6.308  0.3119 -0.2762 -0.4158
  157MOL   C16531677   4.220   3.741   6.428  0.6548  0.5683 -0.1478
  157MOL   H16631678   4.147   3.717   6.005  0.2468  1.0164 -0.2554
  157MOL   H16731679   4.195   3.576   6.104  1.1484  0.9572 -0.7066
  157MOL   H16831680   4.213   3.859   6.206 -0.2967 -0.4388 -0.9547
  157MOL   H16931681   4.281   3.721   6.516  1.8034  0.8831 -0.8476
  157MOL   H17031682   4.208   3.849   6.436 -1.0731  0.2603  1.6083
  157MOL   H17131683   4.126   3.690   6.446 -0.9297  2.0729 -3.7354
  157MOL   C17231684   4.386   3.768   6.124 -0.0571  0.1729  0.4291
  157MOL   C17331685   4.384   3.850   5.991 -0.4391  0.2661  0.1813
  157MOL   O17431686   4.336   3.983   6.019  0.0093  0.3043 -0.9405
  157MOL   C17531687   4.251   4.024   5.908 -0.1622  0.0835 -0.1821
  157MOL   H17631688   4.425   3.667   6.105  1.5913  1.1053 -1.3315
  157MOL   H17731689   4.455   3.810   6.198  0.2002 -0.8748  0.7971
  157MOL   H17831690   4.331   3.792   5.916 -0.9388  0.3594  0.4619
  157MOL   H17931691   4.171   3.954   5.884  1.4066 -1.1695 -1.9211
  157MOL   H18031692   4.220   4.127   5.921 -0.3328 -0.0296  0.3284
  157MOL   H18131693   4.315   4.017   5.820  1.5516 -2.0058  1.1641
  157MOL   C18231694   4.528   3.864   5.928  0.3858 -1.3129 -0.3588
  157MOL   C18331695   4.593   3.731   5.884  0.4863 -0.2713 -0.1896
  157MOL   O18431696   4.522   3.665   5.786  0.2231 -0.0337  0.2546
  157MOL   C18531697   4.469   3.538   5.828  0.3723 -0.9979  0.2429
  157MOL   H18631698   4.595   3.905   6.004 -1.1386 -0.8687  0.7818
  157MOL   H18731699   4.519   3.936   5.847  1.3316 -0.2940  0.4205
  157MOL   H18831700   4.587   3.664   5.970  1.4232 -2.1102 -1.5089
  157MOL   H18931701   4.425   3.489   5.741 -0.1387 -2.2012  1.1687
  157MOL   H19031702   4.559   3.480   5.845  0.6014 -0.7081  0.0425
  157MOL   H19131703   4.408   3.538   5.918 -0.1050 -1.5448 -0.0823
  157MOL   C19231704   4.732   3.751   5.838  0.4713 -0.1898 -0.1115
  157MOL   C19331705   4.799   3.619   5.791  1.1293 -0.7204  0.3293
  157MOL   O19431706   4.926   3.661   5.734  0.0202  0.1289 -0.0501
  157MOL   C19531707   4.990   3.546   5.676  0.3386 -0.5573 -0.2071
  157MOL   H19631708   4.794   3.797   5.914 -0.8997  0.3731  0.6807
  157MOL   H19731709   4.727   3.815   5.750 -0.6255  0.5891  0.5239
  157MOL   H19831710   4.740   3.566   5.716 -3.3022  1.3824  2.1584
  157MOL   H19931711   5.078   3.589   5.628 -0.0130 -0.3569 -0.6735
  157MOL   H20031712   5.014   3.478   5.758  1.2539  0.6697  0.5741
  157MOL   H20131713   4.940   3.496   5.594  0.9725 -1.7296  0.1154
  157MOL   H20231714   4.816   3.545   5.869 -0.1623 -1.2566  0.1265
  158MOL     C131715   4.557   1.695   5.994 -0.1165  0.1102  0.3422
  158MOL     C231716   4.424   1.742   6.057 -0.1996 -0.6485 -0.0494
  158MOL     O331717   4.362   1.851   5.972 -0.1378 -0.5785 -0.6253
  158MOL     C431718   4.394   1.984   6.019 -0.3014  0.2954  0.2959
  158MOL     H531719   4.627   1.772   5.961 -0.9167  0.2124 -1.1273
  158MOL     H631720   4.621   1.630   6.054  0.0090  0.4014  0.5305
  158MOL     H731721   4.438   1.792   6.153  0.3347  0.7289 -0.8218
  158MOL     H831722   4.329   2.016   6.101 -2.2772 -1.5341 -0.5242
  158MOL     H931723   4.499   1.981   6.048 -0.3554 -1.4181  0.3385
  158MOL    H1031724   4.385   2.050   5.933  0.1149 -0.0066  0.0219
  158MOL    H1131725   4.542   1.649   5.897  1.5651  0.4165 -0.0882
  158MOL    C1231726   4.329   1.619   6.072  0.3604  0.0353  0.3080
  158MOL    C1331727   4.197   1.656   6.141 -0.2329  0.7938  0.2360
  158MOL    O1431728   4.102   1.555   6.107  0.0236  0.0075 -0.3833
  158MOL    C1531729   4.034   1.581   5.986  0.1017  0.2049 -0.6812
  158MOL    H1631730   4.381   1.542   6.128  1.7278  2.1334  1.9959
  158MOL    H1731731   4.317   1.584   5.969  0.2045  3.3033 -0.8491
  158MOL    H1831732   4.157   1.754   6.114  0.6074  1.7155  2.2874
  158MOL    H1931733   3.987   1.679   5.985 -0.3056  0.0671  1.8170
  158MOL    H2031734   4.096   1.562   5.898 -0.4561  0.7793 -1.2106
  158MOL    H2131735   3.948   1.514   5.974  1.0498 -0.9086 -1.3539
  158MOL    C2231736   4.208   1.650   6.291 -0.2146  0.4720 -0.5423
  158MOL    C2331737   4.076   1.687   6.361  0.5290  0.1079  0.0476
  158MOL    O2431738   4.086   1.669   6.505 -0.0005  0.4240  0.0404
  158MOL    C2531739   4.108   1.540   6.550 -0.3137  0.5127 -0.5645
  158MOL    H2631740   4.292   1.709   6.328  0.3297 -0.3438 -0.4666
  158MOL    H2731741   4.232   1.547   6.318 -1.2181  0.5575  0.7131
  158MOL    H2831742   3.999   1.620   6.323 -0.7927  2.5043 -1.6215
  158MOL    H2931743   4.024   1.479   6.517  0.4120 -0.8725  0.0819
  158MOL    H3031744   4.196   1.483   6.522  1.3870  1.8849  1.8277
  158MOL    H3131745   4.105   1.535   6.659 -0.7945 -2.0981 -0.6733
  158MOL    C3231746   4.045   1.837   6.349 -0.2513 -0.2374 -0.3620
  158MOL    C3331747   3.902   1.875   6.381  0.3779 -0.2444  0.1373
  158MOL    O3431748   3.876   2.003   6.349 -0.0614 -0.1017  0.0100
  158MOL    C3531749   3.922   2.098   6.443 -0.1667  0.3403  0.3536
  158MOL    H3631750   4.060   1.882   6.251  1.3216 -0.0472 -0.0404
  158MOL    H3731751   4.107   1.898   6.414 -1.4383  1.5758 -0.8779
  158MOL    H3831752   3.886   1.867   6.489 -1.4017 -1.0621 -0.1613
  158MOL    H3931753   3.915   2.201   6.408 -3.3009  0.6479  1.6801
  158MOL    H4031754   3.858   2.086   6.531  0.3615  1.8992  0.9639
  158MOL    H4131755   4.024   2.086   6.479  0.3888  1.2917 -0.8644
  158MOL    C4231756   3.798   1.796   6.293 -0.3546  0.2802  0.1446
  158MOL    C4331757   3.653   1.844   6.290 -0.3973 -0.0038  0.0152
  158MOL    O4431758   3.591   1.772   6.189 -0.5186  0.8046  0.3304
  158MOL    C4531759   3.590   1.835   6.064  0.9189 -0.3895  0.3030
  158MOL    H4631760   3.799   1.689   6.316  1.8654  0.8321  2.9569
  158MOL    H4731761   3.830   1.801   6.189  0.9415  0.3575  0.5399
  158MOL    H4831762   3.629   1.950   6.294  0.4908  0.1505  1.6567
  158MOL    H4931763   3.692   1.845   6.027  0.6340  3.2959  0.3283
  158MOL    H5031764   3.541   1.769   5.993  0.6181  1.2557 -1.0481
  158MOL    H5131765   3.535   1.929   6.070 -0.2194 -0.8808 -1.7713
  158MOL    C5231766   3.596   1.792   6.424  0.4926  0.5726 -0.5798
  158MOL    C5331767   3.452   1.836   6.466  0.7339 -0.2638  0.0083
  158MOL    O5431768   3.427   1.981   6.493 -0.0764  0.5144  0.4148
  158MOL    C5531769   3.503   2.027   6.606  0.6158  0.3483  0.3625
  158MOL    H5631770   3.655   1.816   6.512  3.4487 -2.1706 -1.7083
  158MOL    H5731771   3.597   1.683   6.425 -0.3729  0.5362 -2.0974
  158MOL    H5831772   3.420   1.784   6.556 -1.5488  1.5959  0.3344
  158MOL    H5931773   3.478   1.966   6.693  1.3406  1.6297  1.4895
  158MOL    H6031774   3.612   2.029   6.606  0.6772 -1.3010  2.3871
  158MOL    H6131775   3.472   2.131   6.621 -4.7683 -0.7642 -1.7126
  158MOL    C6231776   3.348   1.806   6.355  0.3259  0.7872 -0.3127
  158MOL    C6331777   3.205   1.830   6.390  1.0121 -0.1494  0.3257
  158MOL    O6431778   3.127   1.796   6.274 -0.4041 -0.0538 -0.5078
  158MOL    C6531779   3.079   1.903   6.190  0.0547 -0.5550 -0.3427
  158MOL    H6631780   3.363   1.700   6.335  1.7945  0.6281  1.5759
  158MOL    H6731781   3.374   1.857   6.262  0.8770 -2.4326 -2.0019
  158MOL    H6831782   3.197   1.935   6.418  0.1131  0.0224 -0.5329
  158MOL    H6931783   3.052   1.993   6.246  0.1171 -0.7489 -0.0007
  158MOL    H7031784   3.160   1.920   6.120 -0.7063  0.4420 -0.9945
  158MOL    H7131785   2.987   1.877   6.137 -0.0801 -0.9511  0.0807
  158MOL    C7231786   3.159   1.752   6.516 -0.3671 -0.0113  0.3051
  158MOL    C7331787   3.008   1.788   6.544 -0.2298  1.0296  0.3869
  158MOL    O7431788   2.957   1.689   6.635  0.0064  0.0685  0.5627
  158MOL    C7531789   2.913   1.568   6.576 -0.1030 -0.1659 -0.0849
  158MOL    H7631790   3.217   1.777   6.604  1.3014  0.6906 -0.9562
  158MOL    H7731791   3.169   1.644   6.506 -0.1605  0.1213 -1.1351
  158MOL    H7831792   2.933   1.783   6.465  0.1830 -1.0410  0.1001
  158MOL    H7931793   2.812   1.552   6.613 -0.7040 -0.5765 -1.8463
  158MOL    H8031794   2.909   1.554   6.468 -1.9265  1.1717 -0.2120
  158MOL    H8131795   2.982   1.489   6.606 -0.3560  0.6886  2.8991
  158MOL    C8231796   2.985   1.926   6.616  0.3979 -0.7141  0.2687
  158MOL    C8331797   3.076   1.965   6.735  0.4240  0.1647 -0.6200
  158MOL    O8431798   3.034   2.092   6.790 -0.2988 -0.1751  0.0324
  158MOL    C8531799   3.051   2.211   6.714 -0.6477  0.6019 -0.7831
  158MOL    H8631800   2.880   1.927   6.642  0.3135  0.7887 -0.1279
  158MOL    H8731801   2.992   1.998   6.534  0.6236 -0.6448  0.3486
  158MOL    H8831802   3.184   1.978   6.721  0.4217  1.7666  0.6904
  158MOL    H8931803   3.049   2.293   6.786  1.1560 -0.4360  0.4785
  158MOL    H9031804   3.148   2.213   6.664  0.2287 -1.3324  0.7862
  158MOL    H9131805   2.974   2.210   6.636  0.4259 -1.5265 -1.8751
  158MOL    C9231806   3.062   1.869   6.860 -0.2936 -0.2424 -0.5003
  158MOL    C9331807   3.168   1.892   6.980 -1.0469  0.2166  0.4545
  158MOL    O9431808   3.131   1.811   7.085  0.5951  0.1853 -0.0592
  158MOL    C9531809   3.071   1.897   7.184 -0.6880  0.4673 -0.2370
  158MOL    H9631810   3.072   1.764   6.831  0.1180  0.0013 -1.2586
  158MOL    H9731811   2.962   1.877   6.902  0.2475 -2.0587  1.2126
  158MOL    H9831812   3.170   1.995   7.016  2.2627 -0.1314  1.4364
  158MOL    H9931813   3.011   1.842   7.256 -0.3079  1.5669  0.9233
  158MOL   H10031814   3.149   1.949   7.240  0.9531 -0.1678 -1.8557
  158MOL   H10131815   3.007   1.971   7.136 -0.3616 -0.2892 -1.8730
  158MOL   C10231816   3.302   1.834   6.936 -0.7715 -0.4280  0.4174
  158MOL   C10331817   3.418   1.861   7.041 -0.1103 -0.8330 -0.1226
  158MOL   O10431818   3.540   1.819   6.990  0.8504  0.2049 -0.0182
  158MOL   C10531819   3.626   1.763   7.080 -0.2659 -0.5601 -0.1383
  158MOL   H10631820   3.342   1.884   6.847 -0.4952 -0.4603  0.5213
  158MOL   H10731821   3.289   1.730   6.906  2.0971 -1.2708  1.9069
  158MOL   H10831822   3.384   1.812   7.132 -1.0871 -1.7679 -0.9771
  158MOL   H10931823   3.591   1.663   7.109 -3.0810  0.0884 -1.1691
  158MOL   H11031824   3.723   1.759   7.030  0.0148  1.2103  0.2536
  158MOL   H11131825   3.621   1.812   7.177 -2.8053 -0.5798 -0.2262
  158MOL   C11231826   3.437   2.013   7.088  0.3512 -0.2483  0.2445
  158MOL   C11331827   3.485   2.108   6.985 -0.5523 -0.4988 -0.0876
  158MOL   O11431828   3.416   2.223   7.011  0.3075 -1.1514 -0.1205
  158MOL   C11531829   3.361   2.288   6.898 -0.0373  0.3380  0.0365
  158MOL   H11631830   3.500   2.020   7.177 -0.4103 -3.2147  1.0856
  158MOL   H11731831   3.339   2.046   7.123 -0.2244  1.0155 -2.4671
  158MOL   H11831832   3.470   2.071   6.884 -0.5989 -0.2865 -0.1594
  158MOL   H11931833   3.426   2.297   6.811  1.2298  2.5079  1.1729
  158MOL   H12031834   3.270   2.233   6.875 -0.1880  1.4022 -2.0321
  158MOL   H12131835   3.329   2.391   6.913 -3.3947 -0.2455 -2.5163
  158MOL   C12231836   3.640   2.140   7.007 -0.1103 -0.2236 -0.0285
  158MOL   C12331837   3.736   2.194   6.898 -0.2782  0.4948  0.4683
  158MOL   O12431838   3.696   2.328   6.870 -0.1209 -0.1421 -0.0301
  158MOL   C12531839   3.683   2.360   6.735 -0.0383  0.0387  0.4909
  158MOL   H12631840   3.696   2.051   7.033 -0.9526 -0.6999  0.1580
  158MOL   H12731841   3.644   2.206   7.094 -0.2703  0.1668 -0.3157
  158MOL   H12831842   3.721   2.118   6.822 -1.1349 -0.3714  1.4917
  158MOL   H12931843   3.635   2.456   6.716 -0.1496  0.0028  0.5903
  158MOL   H13031844   3.782   2.360   6.690 -0.2373  0.5755  0.0459
  158MOL   H13131845   3.628   2.280   6.686  4.0569 -1.1851 -2.3657
  158MOL   C13231846   3.884   2.211   6.938 -0.0913 -0.0018 -0.3274
  158MOL   C13331847   3.978   2.090   6.946 -0.1093  0.6368 -0.4186
  158MOL   O13431848   3.998   2.050   6.814  0.0213 -0.2773 -0.3793
  158MOL   C13531849   4.042   1.913   6.793  0.6581 -0.4859  0.0526
  158MOL   H13631850   3.880   2.251   7.040 -0.5787 -0.1283 -0.2905
  158MOL   H13731851   3.927   2.279   6.865  1.6820 -0.3977  0.3178
  158MOL   H13831852   3.929   2.012   7.005  1.9508 -0.4383 -0.0752
  158MOL   H13931853   4.016   1.850   6.878  0.8377 -0.6025  0.0201
  158MOL   H14031854   4.014   1.879   6.693 -1.1126  1.6218 -0.2018
  158MOL   H14131855   4.150   1.917   6.780  0.0709  1.2746 -5.4845
  158MOL   C14231856   4.115   2.117   7.004  0.6806 -0.7937  0.1792
  158MOL   C14331857   4.115   2.141   7.156  0.3242  0.0849  0.5400
  158MOL   O14431858   4.087   2.016   7.218 -0.2208 -0.3637  0.0889
  158MOL   C14531859   4.002   2.018   7.332  0.4489 -0.6647 -0.0215
  158MOL   H14631860   4.155   2.201   6.947  2.1659 -3.2985 -2.6099
  158MOL   H14731861   4.186   2.041   6.973 -0.6533 -1.2488 -1.8054
  158MOL   H14831862   4.042   2.211   7.197  0.4093 -0.2935  1.3347
  158MOL   H14931863   3.898   2.012   7.300  0.1544 -0.6114  0.8957
  158MOL   H15031864   4.030   1.927   7.386 -0.9561 -1.3712 -0.4582
  158MOL   H15131865   4.013   2.114   7.382  0.6693 -0.8444  0.2819
  158MOL   C15231866   4.251   2.188   7.197 -0.1970 -0.3770 -0.0332
  158MOL   C15331867   4.302   2.321   7.134 -0.2168  0.1569 -0.3648
  158MOL   O15431868   4.222   2.424   7.188  0.5326 -0.4294 -0.0761
  158MOL   C15531869   4.115   2.471   7.106  0.1996 -0.5023 -1.3579
  158MOL   H15631870   4.324   2.113   7.167  0.5009 -0.2969  1.3910
  158MOL   H15731871   4.247   2.207   7.304  1.0290  1.2685 -0.2596
  158MOL   H15831872   4.305   2.320   7.025  1.8082  2.1955 -0.3562
  158MOL   H15931873   4.153   2.548   7.039 -0.5432  0.5083 -0.6321
  158MOL   H16031874   4.060   2.398   7.046  0.0790 -0.1923 -1.6230
  158MOL   H16131875   4.032   2.511   7.164  0.4370 -1.3431 -0.4042
  158MOL   C16231876   4.439   2.370   7.189  0.1159 -0.1378 -0.3784
  158MOL   C16331877   4.569   2.283   7.157 -0.3292  0.0056 -0.3029
  158MOL   O16431878   4.570   2.293   7.015 -0.1773  0.0965  0.4791
  158MOL   C16531879   4.540   2.176   6.937 -0.2847  0.4005  0.4225
  158MOL   H16631880   4.431   2.383   7.297 -0.8818  1.2413 -0.6069
  158MOL   H16731881   4.450   2.473   7.156 -3.8227 -0.2457 -2.4335
  158MOL   H16831882   4.556   2.179   7.187 -1.0423 -0.8450 -3.3375
  158MOL   H16931883   4.560   2.194   6.831  1.7042 -1.4295  0.4452
  158MOL   H17031884   4.611   2.100   6.969 -1.4490 -1.0151 -0.2854
  158MOL   H17131885   4.440   2.133   6.942  0.4948 -1.4131  1.1610
  158MOL   C17231886   4.702   2.348   7.200  0.3834 -0.4607  0.3410
  158MOL   C17331887   4.729   2.357   7.357  0.4895  0.2082  0.6561
  158MOL   O17431888   4.725   2.224   7.401  0.1881  0.1489 -0.2326
  158MOL   C17531889   4.644   2.207   7.515  0.3664 -0.4122 -0.9431
  158MOL   H17631890   4.721   2.444   7.153  0.0780 -0.6927 -0.2641
  158MOL   H17731891   4.773   2.282   7.149  1.1255  1.0512 -0.5955
  158MOL   H17831892   4.646   2.417   7.394  1.0447  0.0551  2.1804
  158MOL   H17931893   4.667   2.120   7.577  4.9300  1.5332  0.2593
  158MOL   H18031894   4.637   2.302   7.569  2.1385  0.2022 -1.7923
  158MOL   H18131895   4.544   2.184   7.477 -1.2321 -0.2904  2.8951
  158MOL   C18231896   4.861   2.438   7.385 -0.4774  0.4107 -0.8125
  158MOL   C18331897   4.859   2.588   7.350  0.6715 -0.1011 -0.5065
  158MOL   O18431898   4.746   2.643   7.415 -0.4398 -0.4758  0.5011
  158MOL   C18531899   4.648   2.683   7.322 -0.1465 -0.2085 -0.5115
  158MOL   H18631900   4.940   2.391   7.326 -1.2812  0.7909 -2.2264
  158MOL   H18731901   4.895   2.415   7.486  0.6682  1.3642 -0.9719
  158MOL   H18831902   4.856   2.596   7.241 -1.6940 -0.8955 -0.5227
  158MOL   H18931903   4.559   2.723   7.370  1.1279  2.0952 -0.0181
  158MOL   H19031904   4.689   2.769   7.269  2.0432  0.4005  2.0601
  158MOL   H19131905   4.603   2.615   7.248 -0.5149 -2.1599  1.4481
  158MOL   C19231906   4.982   2.668   7.404  0.0731  0.4542  0.3159
  158MOL   C19331907   5.002   2.807   7.333 -0.4953 -0.7454  0.3108
  158MOL   O19431908   5.109   2.867   7.407 -0.2954 -0.2546  0.0671
  158MOL   C19531909   5.124   3.005   7.383 -0.2213  0.1551  0.3323
  158MOL   H19631910   5.068   2.603   7.389  1.1299  2.2455 -1.6571
  158MOL   H19731911   4.961   2.686   7.510  0.4302  0.7236  0.3411
  158MOL   H19831912   4.909   2.864   7.331 -0.2542 -0.3841 -1.1911
  158MOL   H19931913   5.027   3.054   7.395 -0.3444 -0.1508  0.6047
  158MOL   H20031914   5.192   3.060   7.448 -0.8898  1.6941 -0.2322
  158MOL   H20131915   5.165   3.017   7.283 -0.9576 -0.6261 -0.0703
  158MOL   H20231916   5.031   2.786   7.230 -2.2036 -1.8478  0.0337
  159MOL     C131917   6.161   6.365   6.501  0.3048  0.1235 -0.2926
  159MOL     C231918   6.218   6.311   6.627 -0.4785  0.7690  1.0611
  159MOL     O331919   6.360   6.291   6.599 -0.2467  0.1248  0.1733
  159MOL     C431920   6.387   6.158   6.549 -0.1432  0.5936 -0.9721
  159MOL     H531921   6.204   6.459   6.470 -0.0695  0.6466  0.7277
  159MOL     H631922   6.183   6.290   6.425  1.7834  0.0856  0.1634
  159MOL     H731923   6.161   6.225   6.662  0.9441 -1.4121 -1.7872
  159MOL     H831924   6.494   6.153   6.527 -0.1068  0.5193 -0.7886
  159MOL     H931925   6.361   6.079   6.620 -1.6396  1.1818 -0.8473
  159MOL    H1031926   6.328   6.128   6.462 -1.2891  1.0599 -0.3662
  159MOL    H1131927   6.052   6.373   6.500  0.4134  1.5639 -0.6146
  159MOL    C1231928   6.227   6.421   6.734  0.0557  0.1242 -0.5234
  159MOL    C1331929   6.296   6.389   6.865 -0.7884 -0.0281  0.3008
  159MOL    O1431930   6.347   6.513   6.908  0.0725  0.1227  0.1306
  159MOL    C1531931   6.480   6.522   6.944  0.8793  0.1490 -0.0938
  159MOL    H1631932   6.124   6.450   6.756 -0.7306 -0.1591 -3.5766
  159MOL    H1731933   6.281   6.503   6.686 -0.2992 -0.3317 -1.7381
  159MOL    H1831934   6.376   6.319   6.839 -0.8465 -0.7036  1.8969
  159MOL    H1931935   6.531   6.532   6.848 -1.3025 -0.8082 -1.4005
  159MOL    H2031936   6.506   6.607   7.008 -2.9284  0.8688  0.5782
  159MOL    H2131937   6.523   6.430   6.983  2.3499  0.5673 -0.7007
  159MOL    C2231938   6.205   6.321   6.971  0.4677  0.0474  0.1136
  159MOL    C2331939   6.257   6.279   7.108 -0.1496 -0.1033 -1.1971
  159MOL    O2431940   6.165   6.211   7.193 -0.0232 -0.0414 -0.3698
  159MOL    C2531941   6.046   6.284   7.213 -0.2242 -0.5249 -0.2407
  159MOL    H2631942   6.153   6.237   6.927  1.6813 -0.9910  0.6102
  159MOL    H2731943   6.126   6.394   6.984 -0.9549 -1.4529  0.0287
  159MOL    H2831944   6.300   6.369   7.154 -1.1852 -2.0803  4.0188
  159MOL    H2931945   5.983   6.278   7.124 -2.6511 -0.9499  1.4607
  159MOL    H3031946   5.980   6.254   7.294 -2.7101 -2.4048 -2.8543
  159MOL    H3131947   6.052   6.393   7.213 -2.5071 -0.3268 -2.4552
  159MOL    C3231948   6.369   6.180   7.105 -0.5826 -0.3854  0.1097
  159MOL    C3331949   6.334   6.043   7.042  0.8069  0.2801  0.2698
  159MOL    O3431950   6.318   6.049   6.905  0.2375 -0.3010  0.2358
  159MOL    C3531951   6.198   5.987   6.864 -0.1796  0.8925  0.9807
  159MOL    H3631952   6.414   6.165   7.203 -0.8611  1.2179  0.5038
  159MOL    H3731953   6.444   6.226   7.040  0.3872  0.0502  1.5147
  159MOL    H3831954   6.241   6.004   7.085  1.3049  2.7415  3.8392
  159MOL    H3931955   6.113   6.041   6.905 -2.0182  1.7529 -3.7144
  159MOL    H4031956   6.192   5.999   6.756  1.4022  1.5848  0.9550
  159MOL    H4131957   6.198   5.880   6.888  1.2221  0.7708  0.4817
  159MOL    C4231958   6.451   5.943   7.065 -0.2013  0.9433  0.5752
  159MOL    C4331959   6.429   5.790   7.017 -0.6164 -0.2157 -0.4213
  159MOL    O4431960   6.557   5.717   7.021 -0.4035  0.8095 -0.1113
  159MOL    C4531961   6.620   5.716   7.149  0.3622  0.2293  0.5878
  159MOL    H4631962   6.472   5.950   7.172  1.6089  0.0176  0.2811
  159MOL    H4731963   6.544   5.978   7.021  0.2182 -1.5565 -0.5889
  159MOL    H4831964   6.393   5.800   6.915 -0.5769  1.5481 -0.2775
  159MOL    H4931965   6.708   5.653   7.150 -0.6502 -1.2606 -1.0070
  159MOL    H5031966   6.647   5.816   7.184  1.0177  0.0840  0.4980
  159MOL    H5131967   6.557   5.664   7.222  1.5793  0.0490  1.5147
  159MOL    C5231968   6.324   5.710   7.095 -0.2205 -0.0519 -0.0079
  159MOL    C5331969   6.281   5.571   7.034  0.1285 -0.3346 -0.0377
  159MOL    O5431970   6.189   5.513   7.124  0.1731  0.3424  0.3257
  159MOL    C5531971   6.254   5.438   7.230 -0.0848 -0.4089 -0.3616
  159MOL    H5631972   6.234   5.771   7.101 -0.5529 -0.6434  1.2652
  159MOL    H5731973   6.349   5.704   7.201  1.7268 -0.0572 -0.4497
  159MOL    H5831974   6.364   5.505   7.009  1.0692  0.9314 -0.3062
  159MOL    H5931975   6.305   5.496   7.307 -1.1536 -0.7730  0.6331
  159MOL    H6031976   6.184   5.383   7.292 -2.5360  2.4151 -0.5445
  159MOL    H6131977   6.316   5.355   7.197 -1.5015 -1.0565 -1.4181
  159MOL    C6231978   6.190   5.579   6.912  0.0021 -0.0030 -0.0897
  159MOL    C6331979   6.187   5.454   6.820  0.2102  0.2477 -0.3781
  159MOL    O6431980   6.072   5.444   6.746 -0.1918  0.6006  0.1307
  159MOL    C6531981   6.027   5.316   6.698 -0.2549 -0.2636  0.1812
  159MOL    H6631982   6.214   5.668   6.855  1.3166 -1.5432 -1.9750
  159MOL    H6731983   6.088   5.602   6.946 -0.1369  0.2306 -0.6634
  159MOL    H6831984   6.172   5.370   6.888  0.8491  1.1280  0.8642
  159MOL    H6931985   6.096   5.270   6.628 -0.5611  0.4290 -0.5844
  159MOL    H7031986   6.009   5.236   6.770 -0.7226  1.1113  1.6313
  159MOL    H7131987   5.938   5.339   6.638 -0.3454 -1.7734 -0.2694
  159MOL    C7231988   6.314   5.434   6.733 -0.4666  0.0670  0.0576
  159MOL    C7331989   6.318   5.502   6.599 -0.2334  0.2522  0.7686
  159MOL    O7431990   6.317   5.642   6.626 -0.1620  0.2369  0.0182
  159MOL    C7531991   6.282   5.726   6.511 -0.5482 -0.2111 -0.1406
  159MOL    H7631992   6.316   5.326   6.726 -1.4383  0.0906 -0.6100
  159MOL    H7731993   6.401   5.472   6.787 -0.4407  0.5923 -0.3491
  159MOL    H7831994   6.224   5.486   6.547 -0.0850 -0.2147  0.6466
  159MOL    H7931995   6.348   5.718   6.425 -0.0645  1.1850  0.0921
  159MOL    H8031996   6.183   5.693   6.480 -0.2722 -0.4877 -0.7188
  159MOL    H8131997   6.284   5.830   6.543 -0.2370 -0.0802 -0.5939
  159MOL    C8231998   6.440   5.468   6.510 -0.7439 -0.8301 -0.7513
  159MOL    C8331999   6.464   5.322   6.470 -0.5609 -0.5719  0.0865
  159MOL    O8432000   6.349   5.294   6.405  0.2356 -0.0623  0.6017
  159MOL    C8532001   6.298   5.159   6.420 -0.2978  0.0096 -0.2974
  159MOL    H8632002   6.529   5.497   6.565 -1.2050  2.4723 -1.6663
  159MOL    H8732003   6.421   5.523   6.418 -0.8744  1.8250  0.8145
  159MOL    H8832004   6.471   5.262   6.561 -0.4286 -3.1888 -1.5650
  159MOL    H8932005   6.218   5.156   6.346 -0.0627  0.3530 -0.5664
  159MOL    H9032006   6.369   5.083   6.388  1.2362 -0.3097  3.6433
  159MOL    H9132007   6.263   5.137   6.521 -1.1443 -0.0181 -0.5918
  159MOL    C9232008   6.577   5.313   6.367  0.4760  0.2092  0.8599
  159MOL    C9332009   6.641   5.173   6.357  0.5561 -0.0479 -0.0709
  159MOL    O9432010   6.672   5.158   6.225 -0.2570  0.6257 -0.0874
  159MOL    C9532011   6.570   5.106   6.136  0.4872 -1.0092 -0.7067
  159MOL    H9632012   6.653   5.390   6.381 -0.2886  0.8994  1.3360
  159MOL    H9732013   6.532   5.335   6.270  0.7249  0.1357  0.7293
  159MOL    H9832014   6.573   5.093   6.387 -1.3545  0.7550 -2.1455
  159MOL    H9932015   6.612   5.079   6.039 -0.0176 -0.8522 -0.9677
  159MOL   H10032016   6.522   5.018   6.178 -1.9830 -0.3503 -2.0719
  159MOL   H10132017   6.491   5.180   6.138  0.3219 -1.2087  0.4880
  159MOL   C10232018   6.770   5.157   6.441  0.8837 -0.2976 -0.1405
  159MOL   C10332019   6.753   5.158   6.588  0.5493 -0.8990 -0.6988
  159MOL   O10432020   6.674   5.042   6.617  0.3268  0.2662  0.1589
  159MOL   C10532021   6.594   5.045   6.733  0.0583 -0.7866  1.0090
  159MOL   H10632022   6.847   5.228   6.409 -2.0988  3.3884  0.5163
  159MOL   H10732023   6.817   5.059   6.433  1.1447 -0.2597  0.8469
  159MOL   H10832024   6.698   5.248   6.616  0.5726 -0.7938 -0.9854
  159MOL   H10932025   6.500   4.997   6.706  0.3505 -2.0297  2.1515
  159MOL   H11032026   6.636   4.999   6.822 -1.2423 -0.9975  1.5313
  159MOL   H11132027   6.566   5.147   6.759 -1.2298 -1.0073  0.5061
  159MOL   C11232028   6.876   5.164   6.672  0.6355  0.0308  0.8542
  159MOL   C11332029   6.936   5.311   6.688 -0.9907  0.0155 -0.5762
  159MOL   O11432030   6.864   5.380   6.785  0.1927  0.7419 -0.1062
  159MOL   C11532031   6.843   5.520   6.754  0.9374  1.1093 -0.8107
  159MOL   H11632032   6.955   5.103   6.628 -2.3599 -0.5204 -4.0882
  159MOL   H11732033   6.865   5.124   6.773  2.5135 -0.7958  0.7562
  159MOL   H11832034   6.922   5.358   6.590 -0.1751  1.1207 -0.1684
  159MOL   H11932035   6.770   5.557   6.827 -1.2298 -1.3493 -1.6385
  159MOL   H12032036   6.932   5.582   6.758  0.8318  1.2599 -0.8243
  159MOL   H12132037   6.779   5.541   6.668 -1.3903  1.6392  0.9771
  159MOL   C12232038   7.088   5.321   6.725  0.4651 -0.0707 -0.0017
  159MOL   C12332039   7.175   5.243   6.623  0.1842  0.1303  0.4637
  159MOL   O12432040   7.150   5.303   6.494  0.3741 -0.4694  0.2795
  159MOL   C12532041   7.159   5.201   6.392  0.0409  0.6396 -1.4857
  159MOL   H12632042   7.103   5.291   6.829  0.7440  1.6866  0.4910
  159MOL   H12732043   7.113   5.427   6.735 -1.1741  0.1477  1.9433
  159MOL   H12832044   7.165   5.135   6.626  0.3870  0.1388  2.6712
  159MOL   H12932045   7.071   5.137   6.389  0.1507  0.4746 -1.2541
  159MOL   H13032046   7.178   5.250   6.296  1.1370  1.7152 -0.7388
  159MOL   H13132047   7.249   5.140   6.404 -0.0699  0.0578 -3.4973
  159MOL   C13232048   7.328   5.275   6.645  0.9471  0.1773  0.6501
  159MOL   C13332049   7.376   5.235   6.784 -0.0887  0.1202  0.1770
  159MOL   O13432050   7.394   5.094   6.783 -0.3192 -0.0333  0.6518
  159MOL   C13532051   7.290   5.015   6.837  0.6654 -0.1409  0.2367
  159MOL   H13632052   7.345   5.379   6.618 -0.6705  0.6897  1.5410
  159MOL   H13732053   7.388   5.219   6.573 -2.7460 -2.7682 -0.2908
  159MOL   H13832054   7.305   5.262   6.862 -2.0508 -1.1975 -1.0912
  159MOL   H13932055   7.206   5.020   6.768  0.6429  1.2118  0.3415
  159MOL   H14032056   7.328   4.913   6.830 -1.1847 -0.7225 -1.8888
  159MOL   H14132057   7.257   5.037   6.939 -3.0428  2.2685 -1.3702
  159MOL   C14232058   7.512   5.299   6.820  0.2952  0.5425  0.2413
  159MOL   C14332059   7.498   5.450   6.845  0.0360  0.1109  0.5472
  159MOL   O14432060   7.425   5.460   6.967 -0.3097  0.3521  0.3062
  159MOL   C14532061   7.341   5.574   6.976  0.9099 -0.1405  0.6583
  159MOL   H14632062   7.574   5.273   6.734 -0.9668 -1.0342 -0.2492
  159MOL   H14732063   7.552   5.243   6.904 -1.3265  0.6706  1.1342
  159MOL   H14832064   7.445   5.503   6.766  0.8056  1.5988  0.9894
  159MOL   H14932065   7.295   5.574   7.075 -1.7562  1.4232 -0.5142
  159MOL   H15032066   7.391   5.670   6.961  0.5075 -0.2878 -1.9624
  159MOL   H15132067   7.257   5.561   6.907  0.7673 -1.0786  1.0121
  159MOL   C15232068   7.640   5.511   6.864  0.5194  0.1746 -0.7686
  159MOL   C15332069   7.736   5.495   6.741  0.2396 -0.1815  0.0858
  159MOL   O15432070   7.680   5.575   6.633  0.2192  0.6357  0.2825
  159MOL   C15532071   7.719   5.528   6.509 -0.1759  0.5411  0.0974
  159MOL   H15632072   7.689   5.463   6.948 -0.3554 -0.6787 -0.7303
  159MOL   H15732073   7.637   5.615   6.898 -0.4429 -0.3733  0.8329
  159MOL   H15832074   7.751   5.393   6.707  1.4443 -0.4202  1.2864
  159MOL   H15932075   7.704   5.420   6.505 -1.4363  0.7480 -1.1122
  159MOL   H16032076   7.674   5.583   6.426  0.3433 -1.0431 -1.2756
  159MOL   H16132077   0.016   5.545   6.495 -0.0286 -0.7133 -0.3570
  159MOL   C16232078   0.070   5.543   6.775  0.0061 -0.1341 -0.7428
  159MOL   C16332079   0.148   5.449   6.866  0.7144  0.5957  0.6448
  159MOL   O16432080   0.116   5.312   6.864  0.2858 -0.9725  0.6651
  159MOL   C16532081   0.096   5.244   6.984 -0.0054  0.1462 -0.3988
  159MOL   H16632082   0.076   5.644   6.814 -0.3138 -0.6427  0.6449
  159MOL   H16732083   0.111   5.543   6.674 -0.6169 -1.9203 -1.0160
  159MOL   H16832084   0.128   5.487   6.966 -1.4997  1.9275 -0.2778
  159MOL   H16932085   7.809   5.272   7.023  0.9118  1.0508  1.3123
  159MOL   H17032086   0.094   5.136   6.968  0.2997  0.1099 -0.1956
  159MOL   H17132087   0.176   5.264   7.055  0.9147  1.1059 -1.6670
  159MOL   C17232088   0.296   5.457   6.844 -0.1781  0.1119  0.5063
  159MOL   C17332089   0.361   5.593   6.878  0.1203 -0.2440  0.2948
  159MOL   O17432090   0.362   5.622   7.015  0.2935 -0.2026 -0.1675
  159MOL   C17532091   0.264   5.716   7.062 -0.1372 -0.2355 -0.3675
  159MOL   H17632092   0.318   5.441   6.738  0.0328  0.9928  0.4101
  159MOL   H17732093   0.361   5.380   6.884  1.6339  0.7334 -1.1232
  159MOL   H17832094   0.316   5.682   6.834  2.6830  1.1309  0.3056
  159MOL   H17932095   0.273   5.730   7.170  0.9237  1.1442 -0.6283
  159MOL   H18032096   0.292   5.813   7.022  0.0652  0.3043  1.0499
  159MOL   H18132097   0.161   5.704   7.029 -0.3668 -2.1092  0.9072
  159MOL   C18232098   0.506   5.593   6.828  0.7316 -0.2835 -0.1116
  159MOL   C18332099   0.566   5.735   6.839  0.0849 -0.8340 -0.0225
  159MOL   O18432100   0.701   5.723   6.812 -0.4735 -0.1254  0.0903
  159MOL   C18532101   0.778   5.673   6.913  0.5915 -0.9862  0.6759
  159MOL   H18632102   0.517   5.561   6.725  2.6718  0.0044 -0.0288
  159MOL   H18732103   0.550   5.510   6.884 -1.2976 -0.0531  1.9086
  159MOL   H18832104   0.555   5.770   6.941  0.8979  2.1939 -0.8990
  159MOL   H18932105   0.875   5.672   6.862  0.0512 -1.4025 -0.3589
  159MOL   H19032106   0.769   5.737   7.001 -0.4663  0.1486 -0.2484
  159MOL   H19132107   0.763   5.567   6.935  1.4711 -1.6426 -1.7020
  159MOL   C19232108   0.506   5.848   6.745 -0.0360 -0.1553 -1.0715
  159MOL   C19332109   0.483   5.810   6.601 -0.4359 -0.3153 -0.9885
  159MOL   O19432110   0.459   5.927   6.525  0.0313 -0.5420  0.2754
  159MOL   C19532111   0.422   5.901   6.394 -0.3893  0.5424  0.2543
  159MOL   H19632112   0.578   5.929   6.753  0.6902 -0.9332  0.6093
  159MOL   H19732113   0.419   5.891   6.795 -0.1692 -0.6701 -0.8498
  159MOL   H19832114   0.397   5.743   6.608 -0.4082 -0.2443  0.0729
  159MOL   H19932115   0.409   5.983   6.323  0.9667 -0.7639 -1.5776
  159MOL   H20032116   0.475   5.814   6.354 -0.4651  0.6504 -0.0858
  159MOL   H20132117   0.321   5.862   6.406 -0.3029  0.1407 -0.3019
  159MOL   H20232118   0.570   5.761   6.558 -1.2758 -0.1618 -2.9076
  160MOL     C132119   4.903   6.356   4.256  0.1074  0.0337 -0.4785
  160MOL     C232120   4.770   6.402   4.320 -0.3751 -0.6041  0.0325
  160MOL     O332121   4.751   6.527   4.265 -0.4796  0.0605  0.6464
  160MOL     C432122   4.685   6.626   4.340 -0.1595  0.1977 -0.2315
  160MOL     H532123   4.889   6.338   4.149 -1.2664  0.7887 -0.4349
  160MOL     H632124   4.964   6.445   4.270 -1.1716  0.4775  2.5236
  160MOL     H732125   4.782   6.401   4.428  2.2970 -1.4193 -0.2441
  160MOL     H832126   4.688   6.717   4.279 -1.9621 -0.3328 -1.1343
  160MOL     H932127   4.578   6.611   4.345  0.3091 -4.3444 -1.8112
  160MOL    H1032128   4.734   6.643   4.436 -2.5627 -1.6599  1.3550
  160MOL    H1132129   4.936   6.261   4.299  0.8537 -0.2116 -1.5614
  160MOL    C1232130   4.646   6.324   4.285 -0.4096 -0.6488  0.0652
  160MOL    C1332131   4.644   6.173   4.316  0.5565  0.7048  0.0653
  160MOL    O1432132   4.603   6.133   4.446  0.3393 -0.2395  0.1650
  160MOL    C1532133   4.710   6.118   4.539  0.3748 -0.0971 -0.3259
  160MOL    H1632134   4.637   6.325   4.176  1.4270 -0.1270 -0.1009
  160MOL    H1732135   4.559   6.379   4.321  0.1120  0.3317 -0.1370
  160MOL    H1832136   4.744   6.134   4.297 -0.2071 -0.2159 -2.2609
  160MOL    H1932137   4.796   6.063   4.498  1.8308 -0.0686  2.6131
  160MOL    H2032138   4.747   6.215   4.571 -1.1545  0.1602  0.6903
  160MOL    H2132139   4.677   6.072   4.632 -1.8594  0.4074 -0.8333
  160MOL    C2232140   4.538   6.103   4.226 -0.6260 -0.0427 -0.4999
  160MOL    C2332141   4.536   5.951   4.260 -0.0115 -0.0237  0.6958
  160MOL    O2432142   4.413   5.893   4.234  0.3789  0.1772 -0.6308
  160MOL    C2532143   4.361   5.888   4.103 -0.5874  0.2248 -0.4578
  160MOL    H2632144   4.562   6.125   4.122  1.9397  1.4469  0.3799
  160MOL    H2732145   4.443   6.148   4.256 -2.2308 -2.4818 -1.7110
  160MOL    H2832146   4.558   5.930   4.364  1.2278 -0.2876  0.3839
  160MOL    H2932147   4.269   5.830   4.092 -0.5544  0.3812 -1.6578
  160MOL    H3032148   4.355   5.989   4.062 -0.0721  1.1002  1.5849
  160MOL    H3132149   4.440   5.838   4.047 -0.1862 -2.3076  2.2454
  160MOL    C3232150   4.647   5.876   4.182 -0.5082  0.6848 -0.1154
  160MOL    C3332151   4.658   5.729   4.208  0.7568  0.0827  0.1365
  160MOL    O3432152   4.733   5.652   4.121 -0.5674  0.1193  0.5106
  160MOL    C3532153   4.683   5.639   3.984  0.1035 -0.5507  0.1428
  160MOL    H3632154   4.738   5.929   4.209 -0.6461  1.4715 -1.1682
  160MOL    H3732155   4.630   5.894   4.076  0.6497  0.8452 -0.2746
  160MOL    H3832156   4.555   5.695   4.199  1.2467 -1.3735 -0.0975
  160MOL    H3932157   4.700   5.727   3.922  0.1805 -0.1205  0.7775
  160MOL    H4032158   4.730   5.560   3.926 -0.3375  0.3757 -1.5308
  160MOL    H4132159   4.575   5.624   3.977  0.0494 -0.4350  0.6976
  160MOL    C4232160   4.702   5.685   4.342  0.2437 -0.6802 -0.4270
  160MOL    C4332161   4.679   5.542   4.382  0.2095 -0.0795  0.4095
  160MOL    O4432162   4.758   5.523   4.493 -0.2827  0.4456  0.6820
  160MOL    C4532163   4.807   5.392   4.509  0.5975  0.8125  0.4406
  160MOL    H4632164   4.664   5.746   4.424 -0.6185 -1.5167 -0.2003
  160MOL    H4732165   4.809   5.697   4.356  0.1194  1.4101 -1.1348
  160MOL    H4832166   4.724   5.493   4.295 -0.6611  2.5397 -1.5811
  160MOL    H4932167   4.909   5.397   4.547  0.2482  4.2348  1.1244
  160MOL    H5032168   4.757   5.349   4.595  0.8649 -0.8460 -0.2247
  160MOL    H5132169   4.803   5.327   4.421 -1.9606 -0.1093  1.2100
  160MOL    C5232170   4.529   5.500   4.399 -0.0105  0.0843  0.5006
  160MOL    C5332171   4.444   5.589   4.488  0.0847 -0.2153  0.0578
  160MOL    O5432172   4.302   5.551   4.470 -0.2154  0.3802 -0.4562
  160MOL    C5532173   4.247   5.614   4.351 -0.3532  0.2074 -0.4445
  160MOL    H5632174   4.513   5.399   4.435  0.7686 -1.0061 -2.1548
  160MOL    H5732175   4.492   5.496   4.297 -0.7098 -1.3639  0.8059
  160MOL    H5832176   4.434   5.686   4.439  0.8149  0.5274  1.3452
  160MOL    H5932177   4.233   5.722   4.347  1.3892  0.3974 -2.5195
  160MOL    H6032178   4.299   5.577   4.263 -0.8199 -0.8523 -0.2798
  160MOL    H6132179   4.144   5.579   4.339 -0.4667  0.0309  0.9808
  160MOL    C6232180   4.489   5.601   4.631  0.2713  0.0890  0.4220
  160MOL    C6332181   4.412   5.685   4.735 -0.8513 -0.3534  0.4672
  160MOL    O6432182   4.490   5.696   4.854  0.2968 -0.0707  0.2264
  160MOL    C6532183   4.465   5.585   4.946  0.3324  0.4119 -0.2633
  160MOL    H6632184   4.593   5.631   4.643  0.5600 -0.2216 -1.1182
  160MOL    H6732185   4.491   5.500   4.672  1.9604 -0.1649 -0.2069
  160MOL    H6832186   4.307   5.657   4.742 -0.8052 -1.0887 -1.4122
  160MOL    H6932187   4.365   5.543   4.947  0.1445  0.7806 -2.2214
  160MOL    H7032188   4.521   5.499   4.911  0.8136  1.0031 -0.9498
  160MOL    H7132189   4.500   5.613   5.046  1.9606 -1.1954 -0.3645
  160MOL    C7232190   4.408   5.833   4.688  0.3535  0.2315 -0.0697
  160MOL    C7332191   4.316   5.922   4.769  0.6233 -0.7351 -0.2653
  160MOL    O7432192   4.336   6.061   4.760  0.2169 -0.7295 -0.2396
  160MOL    C7532193   4.430   6.116   4.848 -0.2847 -0.0031  0.2065
  160MOL    H7632194   4.391   5.847   4.582 -0.3780 -1.0610 -0.1276
  160MOL    H7732195   4.510   5.870   4.697  0.7811 -1.1117  0.8486
  160MOL    H7832196   4.339   5.894   4.871  0.7049 -1.0436 -0.3705
  160MOL    H7932197   4.408   6.088   4.951  0.3518  0.0699  0.3670
  160MOL    H8032198   4.528   6.071   4.831 -0.0916 -0.0504  1.4056
  160MOL    H8132199   4.439   6.224   4.838  2.4980 -0.3014 -1.1273
  160MOL    C8232200   4.167   5.900   4.738 -0.4143 -0.1127  0.1357
  160MOL    C8332201   4.071   5.929   4.857 -0.3413  0.0818 -1.1798
  160MOL    O8432202   3.929   5.946   4.821 -0.3909  0.0979  0.0538
  160MOL    C8532203   3.900   6.074   4.769  0.1135  0.7104 -0.0176
  160MOL    H8632204   4.153   5.799   4.701 -0.9139 -0.5589  1.5144
  160MOL    H8732205   4.144   5.967   4.655 -1.1448  2.2889  2.2028
  160MOL    H8832206   4.108   6.025   4.895 -0.8937 -0.1967  0.1024
  160MOL    H8932207   3.985   6.101   4.706 -0.7076 -0.0121 -1.4425
  160MOL    H9032208   3.809   6.062   4.711  0.4134  0.2396 -0.3986
  160MOL    H9132209   3.883   6.152   4.844 -0.1751  0.1921  0.4591
  160MOL    C9232210   4.087   5.835   4.980 -0.2062 -0.1645  0.3028
  160MOL    C9332211   4.022   5.695   4.970  0.2625  0.4586  1.3168
  160MOL    O9432212   4.098   5.619   4.869 -0.1438 -0.1859 -0.0487
  160MOL    C9532213   4.027   5.566   4.762  1.0910  0.1949 -0.9370
  160MOL    H9632214   4.043   5.891   5.062 -0.4610 -0.6128  0.4760
  160MOL    H9732215   4.191   5.818   5.010 -0.4907 -2.3162  0.1217
  160MOL    H9832216   3.917   5.704   4.940  1.3331  1.4185 -2.4895
  160MOL    H9932217   4.090   5.556   4.674 -0.1105 -0.5991 -1.7124
  160MOL   H10032218   3.983   5.473   4.798 -1.6158  1.2548 -1.3467
  160MOL   H10132219   3.944   5.635   4.745  2.3111  2.0722  0.5330
  160MOL   C10232220   4.043   5.619   5.102  0.1630  0.3819  0.0558
  160MOL   C10332221   3.963   5.675   5.221  1.4046 -0.5740 -0.1406
  160MOL   O10432222   3.877   5.575   5.281  0.5379  0.2048  0.0932
  160MOL   C10532223   3.765   5.550   5.202 -0.6707 -0.1365  0.7390
  160MOL   H10632224   4.149   5.611   5.126  0.1860 -0.3887 -0.2835
  160MOL   H10732225   4.013   5.518   5.074 -0.7564  0.7966 -0.4775
  160MOL   H10832226   3.904   5.751   5.169 -0.8225 -1.1877  1.4202
  160MOL   H10932227   3.700   5.489   5.265 -0.0905 -1.1572  0.3611
  160MOL   H11032228   3.702   5.634   5.173 -0.7711 -0.6105 -0.4593
  160MOL   H11132229   3.785   5.488   5.114  0.6011 -0.8381  1.4994
  160MOL   C11232230   4.044   5.745   5.336 -0.2907  0.2272  1.0556
  160MOL   C11332231   3.961   5.812   5.444  0.0538 -0.8578 -0.7118
  160MOL   O11432232   4.054   5.840   5.548 -0.0309  0.4622  1.0273
  160MOL   C11532233   4.050   5.749   5.656  0.2141 -0.4197  0.1469
  160MOL   H11632234   4.118   5.815   5.295 -0.7679 -0.1627 -0.4959
  160MOL   H11732235   4.095   5.670   5.396  3.0763  1.8276  0.3668
  160MOL   H11832236   3.885   5.739   5.473 -1.2350  1.1366  1.0939
  160MOL   H11932237   3.972   5.786   5.722  2.5382 -0.5282  3.0426
  160MOL   H12032238   4.027   5.649   5.619 -1.5995 -0.1068  0.3896
  160MOL   H12132239   4.144   5.738   5.710 -0.6792 -0.8042  1.6510
  160MOL   C12232240   3.881   5.938   5.400  0.2829 -0.1281 -0.6525
  160MOL   C12332241   3.741   5.960   5.457 -0.3379  0.0179 -0.4540
  160MOL   O12432242   3.657   5.854   5.413  0.0486  0.2092  0.1499
  160MOL   C12532243   3.576   5.880   5.298 -0.6942  0.1309  0.3330
  160MOL   H12632244   3.873   5.936   5.292  1.7179 -1.9428 -0.7535
  160MOL   H12732245   3.940   6.030   5.407 -1.3123  1.0846 -2.7791
  160MOL   H12832246   3.707   6.055   5.415 -2.4039  0.2658  1.6469
  160MOL   H12932247   3.511   5.967   5.310  3.0410  3.0787  0.0192
  160MOL   H13032248   3.636   5.912   5.214 -1.3746  0.4219 -0.0392
  160MOL   H13132249   3.516   5.792   5.273 -1.2625  0.1813  1.4470
  160MOL   C13232250   3.734   5.972   5.607  0.5753 -0.3116 -0.4724
  160MOL   C13332251   3.601   6.016   5.680  0.7185  0.2835 -0.2024
  160MOL   O13432252   3.617   5.978   5.819  0.1320 -0.0415  0.1140
  160MOL   C13532253   3.571   5.849   5.850 -0.4282  0.3504  0.0916
  160MOL   H13632254   3.812   6.046   5.623 -0.5267  1.1348 -1.6022
  160MOL   H13732255   3.770   5.877   5.645 -2.5039 -0.9901  0.9098
  160MOL   H13832256   3.520   5.959   5.633 -0.0423 -0.0447  1.4510
  160MOL   H13932257   3.583   5.840   5.958  1.0512  1.2751  0.0178
  160MOL   H14032258   3.467   5.827   5.825  0.5517 -2.3854 -1.8147
  160MOL   H14132259   3.629   5.772   5.800 -0.9964 -0.7324  1.0822
  160MOL   C14232260   3.577   6.166   5.671  0.2001 -0.8382 -0.8900
  160MOL   C14332261   3.435   6.209   5.716  0.3018  0.1576 -0.4761
  160MOL   O14432262   3.327   6.132   5.661 -0.2251  0.3892  0.5977
  160MOL   C14532263   3.312   6.146   5.517  0.2492 -0.5158 -0.0288
  160MOL   H14632264   3.578   6.205   5.569 -0.8376 -2.7605 -1.6759
  160MOL   H14732265   3.653   6.221   5.726 -1.0659  1.0806 -1.0377
  160MOL   H14832266   3.421   6.312   5.684  0.9888  1.6516  3.6482
  160MOL   H14932267   3.400   6.099   5.472 -0.0693 -2.0095  0.8831
  160MOL   H15032268   3.226   6.089   5.483  1.3682 -1.3636 -1.5082
  160MOL   H15132269   3.315   6.246   5.474  1.1014 -0.8051 -0.6556
  160MOL   C15232270   3.412   6.197   5.873 -0.5175  0.2304  0.2197
  160MOL   C15332271   3.276   6.248   5.925 -0.9139  0.1128 -0.1172
  160MOL   O15432272   3.266   6.195   6.063  0.1549  0.1371 -0.3062
  160MOL   C15532273   3.211   6.065   6.082  0.3704  0.2222 -0.2989
  160MOL   H15632274   3.496   6.225   5.936  0.1627  1.0915 -1.0637
  160MOL   H15732275   3.401   6.090   5.889 -1.6293  0.2875 -0.1425
  160MOL   H15832276   3.202   6.200   5.861 -0.3176  1.0357 -1.4987
  160MOL   H15932277   3.187   6.062   6.188  0.0020  1.6285 -0.3360
  160MOL   H16032278   3.115   6.049   6.034  0.5966  0.3441 -0.7973
  160MOL   H16132279   3.285   5.986   6.065 -1.1435 -1.1851 -0.4575
  160MOL   C16232280   3.254   6.401   5.933  0.3931  0.1557  0.1857
  160MOL   C16332281   3.364   6.479   6.010  0.1154 -0.2056 -1.1416
  160MOL   O16432282   3.473   6.497   5.919 -0.0008  0.0336 -0.1876
  160MOL   C16532283   3.595   6.532   5.989  0.5915 -1.0125  0.6568
  160MOL   H16632284   3.155   6.434   5.964  1.2302  1.6182  1.4238
  160MOL   H16732285   3.249   6.432   5.829 -1.3705 -2.8116 -0.6719
  160MOL   H16832286   3.403   6.428   6.098 -0.5040  1.7841  0.3131
  160MOL   H16932287   3.615   6.636   6.014  1.5462 -0.7814 -0.9723
  160MOL   H17032288   3.615   6.465   6.072 -1.4084  0.0331  2.0260
  160MOL   H17132289   3.679   6.500   5.927  1.5375  2.0402  0.2801
  160MOL   C17232290   3.322   6.627   6.038 -0.3382 -0.5151 -0.5801
  160MOL   C17332291   3.218   6.653   6.146 -0.1570  0.9648 -0.1695
  160MOL   O17432292   3.259   6.595   6.270  0.1267  0.4246 -0.2127
  160MOL   C17532293   3.192   6.475   6.318 -0.0985 -0.0339 -0.7682
  160MOL   H17632294   3.299   6.673   5.942 -3.2284 -2.6219 -0.9616
  160MOL   H17732295   3.409   6.679   6.078 -0.7506 -0.0283 -0.3072
  160MOL   H17832296   3.130   6.598   6.112  1.1109 -0.4430 -1.2191
  160MOL   H17932297   3.237   6.396   6.257  2.4466  0.8179 -0.0550
  160MOL   H18032298   3.212   6.442   6.420 -2.3693 -1.7108 -0.8433
  160MOL   H18132299   3.084   6.477   6.304 -0.3127  1.0968  0.9292
  160MOL   C18232300   3.176   6.797   6.155 -0.4024  0.1072 -0.2646
  160MOL   C18332301   3.098   6.853   6.033  0.2543 -0.2873  0.7439
  160MOL   O18432302   2.983   6.768   6.008 -0.1814  0.0388 -0.3435
  160MOL   C18532303   2.972   6.726   5.878  0.4105 -0.0623  0.4504
  160MOL   H18632304   3.274   6.842   6.166 -0.0331 -1.1770  1.8994
  160MOL   H18732305   3.111   6.817   6.240  0.7253  0.1741  0.5732
  160MOL   H18832306   3.162   6.850   5.945 -1.6443 -1.3621 -0.6342
  160MOL   H18932307   3.059   6.666   5.850  0.5668 -0.1477  1.1042
  160MOL   H19032308   2.886   6.659   5.873  0.6195 -0.2522 -0.9397
  160MOL   H19132309   2.941   6.805   5.810  0.5124  0.0835  0.5740
  160MOL   C19232310   3.050   6.996   6.051  0.3589 -0.0284  0.2579
  160MOL   C19332311   3.160   7.101   6.043  0.0771 -0.6485  0.4150
  160MOL   O19432312   3.256   7.089   6.151 -0.0595  0.3581  0.3446
  160MOL   C19532313   3.364   7.175   6.135 -0.3347 -0.9385 -0.5969
  160MOL   H19632314   2.982   7.002   6.136  2.0007  0.8267  1.5533
  160MOL   H19732315   2.983   7.007   5.966  0.2404 -1.9160  0.0994
  160MOL   H19832316   3.111   7.199   6.044 -0.3839 -0.8063 -2.7861
  160MOL   H19932317   3.395   7.177   6.031  0.8588  0.1725 -0.2417
  160MOL   H20032318   3.323   7.275   6.152 -0.6138 -0.8075 -1.9713
  160MOL   H20132319   3.446   7.151   6.203 -1.8719 -1.7463  1.0055
  160MOL   H20232320   3.211   7.086   5.948 -0.2751  0.4030  0.0492
  161MOL     C132321   0.662   4.654   5.760  0.2398 -0.2709  0.3397
  161MOL     C232322   0.559   4.713   5.669  0.0686  0.2346  0.4941
  161MOL     O332323   0.533   4.849   5.714  0.0424  0.5393 -0.3942
  161MOL     C432324   0.433   4.852   5.815 -0.1122 -0.2795  0.3147
  161MOL     H532325   0.733   4.735   5.773 -0.7526  0.8312 -0.9577
  161MOL     H632326   0.634   4.638   5.864  2.5759 -3.3610  0.5835
  161MOL     H732327   0.468   4.656   5.654 -0.0041  0.5887 -0.4396
  161MOL     H832328   0.464   4.781   5.891  0.1005  1.3600  1.7893
  161MOL     H932329   0.415   4.955   5.845 -1.6519 -0.6569  0.7620
  161MOL    H1032330   0.338   4.820   5.773 -0.5519  1.4484 -0.0593
  161MOL    H1132331   0.698   4.556   5.727  0.4227  1.3168 -4.5404
  161MOL    C1232332   0.626   4.730   5.532 -0.6264 -0.8892  0.0591
  161MOL    C1332333   0.601   4.604   5.445  0.3079 -0.3226  0.0893
  161MOL    O1432334   0.486   4.638   5.376  0.0714 -0.0972  0.1692
  161MOL    C1532335   0.365   4.579   5.407  0.8399 -0.3835 -0.3117
  161MOL    H1632336   0.734   4.734   5.545 -0.8701  0.6304  1.9283
  161MOL    H1732337   0.596   4.819   5.477  0.1382 -0.4511  0.3479
  161MOL    H1832338   0.582   4.518   5.509  1.0694  0.0812  0.8719
  161MOL    H1932339   0.301   4.632   5.477  0.6576 -2.1989  0.9594
  161MOL    H2032340   0.301   4.591   5.320  0.8599  0.4946 -0.2020
  161MOL    H2132341   0.376   4.470   5.414 -0.8960 -0.7216 -2.3330
  161MOL    C2232342   0.711   4.588   5.338 -0.2171  0.2148 -0.8025
  161MOL    C2332343   0.842   4.509   5.378 -0.1713 -0.1109  0.6845
  161MOL    O2432344   0.783   4.381   5.405 -1.1003 -0.0186  0.6471
  161MOL    C2532345   0.867   4.316   5.502  0.8258  0.1002 -0.3444
  161MOL    H2632346   0.726   4.685   5.290 -2.8333  0.8400 -0.4148
  161MOL    H2732347   0.670   4.532   5.254  1.4903  0.1379 -1.6142
  161MOL    H2832348   0.887   4.546   5.471 -0.1491 -0.1099  0.6724
  161MOL    H2932349   0.955   4.276   5.450  1.4257 -1.2735  1.6445
  161MOL    H3032350   0.867   4.385   5.586 -1.8868  0.9512 -1.0005
  161MOL    H3132351   0.812   4.229   5.540 -0.9537  0.9959 -0.8276
  161MOL    C3232352   0.949   4.502   5.268  0.2250 -0.2505 -0.1687
  161MOL    C3332353   1.016   4.632   5.222  0.3793  0.0247  0.0277
  161MOL    O3432354   1.072   4.684   5.335  0.0321  0.5642 -0.3304
  161MOL    C3532355   1.048   4.819   5.352  0.2981  0.2491 -0.1338
  161MOL    H3632356   0.902   4.455   5.182 -1.3609 -3.1304  2.1992
  161MOL    H3732357   1.028   4.431   5.293  0.9071  0.0284 -1.5010
  161MOL    H3832358   0.938   4.696   5.180  1.4127  1.9021  0.8987
  161MOL    H3932359   0.947   4.839   5.389  0.6822 -1.2956  1.8742
  161MOL    H4032360   1.120   4.856   5.426  1.7994 -2.4434 -0.1722
  161MOL    H4132361   1.060   4.869   5.256  0.9803  0.6990  0.1802
  161MOL    C4232362   1.126   4.611   5.115 -0.0102  0.1570 -0.1297
  161MOL    C4332363   1.075   4.551   4.983  0.0155  0.4452  0.4945
  161MOL    O4432364   0.958   4.618   4.933 -0.3783 -0.4891 -0.2231
  161MOL    C4532365   0.972   4.752   4.887  0.0127  0.5193 -0.2056
  161MOL    H4632366   1.203   4.546   5.158 -0.9650 -1.8360 -1.3692
  161MOL    H4732367   1.178   4.705   5.099  1.0007 -0.7063 -2.0085
  161MOL    H4832368   1.049   4.446   4.997  4.4457 -0.9103 -0.4071
  161MOL    H4932369   0.873   4.777   4.850 -0.2346  2.9229  1.9875
  161MOL    H5032370   0.995   4.822   4.967  0.4183 -1.8981  1.8513
  161MOL    H5132371   1.035   4.766   4.799 -0.7107 -1.5699 -1.1074
  161MOL    C5232372   1.187   4.552   4.879 -0.2210 -0.4758  0.5266
  161MOL    C5332373   1.165   4.466   4.754 -0.6017  0.5579  0.3227
  161MOL    O5432374   1.281   4.473   4.674 -0.1655  0.1454  0.8591
  161MOL    C5532375   1.277   4.597   4.592  0.6377  0.1281 -0.2062
  161MOL    H5632376   1.269   4.499   4.929  0.4347 -1.1998 -1.2919
  161MOL    H5732377   1.229   4.651   4.869 -0.8379 -0.2641 -0.0192
  161MOL    H5832378   1.079   4.496   4.695  0.8296  0.8403 -1.6833
  161MOL    H5932379   1.264   4.682   4.659 -0.1143  0.3275 -0.5994
  161MOL    H6032380   1.366   4.615   4.533  0.9517 -0.8291 -0.0264
  161MOL    H6132381   1.189   4.605   4.528 -1.0283 -0.8519  1.8882
  161MOL    C6232382   1.127   4.318   4.794 -0.4677 -0.2887  0.7112
  161MOL    C6332383   1.159   4.214   4.683 -0.4485 -0.0707 -0.0523
  161MOL    O6432384   1.142   4.076   4.735 -0.5008 -0.0915 -0.3973
  161MOL    C6532385   1.011   4.036   4.777  0.2645 -0.4496 -0.0055
  161MOL    H6632386   1.019   4.310   4.810 -0.7346 -2.0391 -1.6713
  161MOL    H6732387   1.172   4.286   4.887  0.8809  2.5915  1.1033
  161MOL    H6832388   1.267   4.225   4.673 -0.2301 -1.2283  0.8025
  161MOL    H6932389   0.941   4.047   4.694  0.9130  2.2913 -0.2086
  161MOL    H7032390   1.018   3.931   4.808  0.7039 -0.1479  0.9206
  161MOL    H7132391   0.968   4.089   4.861 -0.2915  1.7382 -1.6275
  161MOL    C7232392   1.079   4.226   4.556 -0.2938  0.0458 -0.2210
  161MOL    C7332393   1.115   4.117   4.456  0.1965  0.4546  0.3829
  161MOL    O7432394   1.033   4.135   4.346 -0.5250 -0.6627  0.3533
  161MOL    C7532395   1.018   4.026   4.263  0.3975 -0.1313 -0.0702
  161MOL    H7632396   1.107   4.324   4.518  0.8117 -0.0128  0.4188
  161MOL    H7732397   0.970   4.230   4.564 -0.1956  2.2548  0.4575
  161MOL    H7832398   1.101   4.018   4.500 -2.7342  0.1792 -1.0335
  161MOL    H7932399   1.099   3.977   4.209  1.3372 -0.4375  1.5652
  161MOL    H8032400   0.965   3.953   4.324  0.1658 -1.8216 -2.2339
  161MOL    H8132401   0.940   4.049   4.190  1.1069 -0.1544 -0.8379
  161MOL    C8232402   1.257   4.120   4.411 -0.7139 -0.0338 -0.6204
  161MOL    C8332403   1.315   4.249   4.356  0.1250  0.6217  0.6431
  161MOL    O8432404   1.455   4.220   4.329 -0.2518 -0.0874 -0.3582
  161MOL    C8532405   1.554   4.226   4.435  0.4049  0.5525  0.3606
  161MOL    H8632406   1.268   4.035   4.344 -1.0163 -2.7792  2.7001
  161MOL    H8732407   1.326   4.090   4.490 -1.1526 -2.4869 -1.1453
  161MOL    H8832408   1.327   4.325   4.433  2.0687 -0.9325  1.9244
  161MOL    H8932409   1.523   4.194   4.534 -1.0134 -0.8129 -0.5031
  161MOL    H9032410   1.646   4.172   4.410 -0.7430 -0.9722 -0.6142
  161MOL    H9132411   1.591   4.327   4.450  0.7698  0.5870 -0.7229
  161MOL    C9232412   1.247   4.295   4.223  0.2468 -0.8566 -0.2631
  161MOL    C9332413   1.338   4.398   4.140  0.3102  0.0404 -0.0465
  161MOL    O9432414   1.283   4.418   4.016  0.1343 -0.5553 -0.2831
  161MOL    C9532415   1.276   4.306   3.924 -0.3493 -0.3602  0.3089
  161MOL    H9632416   1.149   4.335   4.248 -0.2628 -0.8246 -2.2913
  161MOL    H9732417   1.213   4.209   4.167 -1.2442 -0.1472 -0.4723
  161MOL    H9832418   1.436   4.353   4.129 -0.2781 -1.1789 -0.3000
  161MOL    H9932419   1.201   4.229   3.946 -0.7133 -0.3145 -0.7299
  161MOL   H10032420   1.261   4.343   3.822 -2.0230  0.3863  0.8073
  161MOL   H10132421   1.367   4.246   3.928  0.5194  0.9272  0.2048
  161MOL   C10232422   1.353   4.531   4.218 -0.0039  1.2701 -0.0239
  161MOL   C10332423   1.427   4.644   4.150 -0.6941  0.5053 -0.0385
  161MOL   O10432424   1.420   4.774   4.213 -0.3323  0.5348 -0.7409
  161MOL   C10532425   1.299   4.843   4.180  0.0142 -0.0835 -0.3696
  161MOL   H10632426   1.386   4.519   4.321 -0.1300  1.2220  0.0105
  161MOL   H10732427   1.249   4.562   4.235 -0.4910 -0.3058 -0.0929
  161MOL   H10832428   1.393   4.652   4.046  5.3977 -2.1481 -2.5035
  161MOL   H10932429   1.292   4.851   4.071  0.1823  1.4781 -0.2813
  161MOL   H11032430   1.210   4.786   4.207 -0.5758  1.2257  0.4517
  161MOL   H11132431   1.289   4.943   4.222 -0.3267 -0.2799  0.0160
  161MOL   C11232432   1.573   4.603   4.132 -0.1957  0.4284  0.0985
  161MOL   C11332433   1.675   4.714   4.093 -0.3645  0.3171  0.0876
  161MOL   O11432434   1.777   4.721   4.194 -0.0982  0.9395  0.2331
  161MOL   C11532435   1.741   4.819   4.293 -0.5995  0.2102  0.3145
  161MOL   H11632436   1.575   4.540   4.043 -0.3224  0.3547  0.1493
  161MOL   H11732437   1.616   4.534   4.206  0.3062  0.8154  0.1699
  161MOL   H11832438   1.634   4.815   4.089 -0.2242  0.4066  0.7653
  161MOL   H11932439   1.773   4.914   4.250 -0.9851  0.5218  0.6982
  161MOL   H12032440   1.633   4.832   4.306 -1.0970 -2.8875 -0.3635
  161MOL   H12132441   1.788   4.822   4.392 -0.0836  1.8267  0.0406
  161MOL   C12232442   1.737   4.683   3.957  0.0983  0.8400 -0.5726
  161MOL   C12332443   1.639   4.715   3.838 -0.3167  0.1406  0.0843
  161MOL   O12432444   1.623   4.856   3.825 -0.4192 -0.2248 -0.1152
  161MOL   C12532445   1.508   4.919   3.867 -0.8078  0.0490  0.3906
  161MOL   H12632446   1.764   4.578   3.951 -0.2236  0.7222 -0.0234
  161MOL   H12732447   1.825   4.745   3.940 -1.0000  2.1125 -1.6954
  161MOL   H12832448   1.546   4.667   3.867  0.1605  0.6176  2.4590
  161MOL   H12932449   1.422   4.863   3.831 -1.7965  1.6123  0.2414
  161MOL   H13032450   1.514   4.928   3.976  3.8990 -0.9923  0.3343
  161MOL   H13132451   1.494   5.019   3.826 -0.7643  0.3039  0.9930
  161MOL   C13232452   1.693   4.644   3.711 -0.5135  0.2345 -0.1902
  161MOL   C13332453   1.594   4.642   3.598 -0.1385 -0.2727 -0.2894
  161MOL   O13432454   1.474   4.600   3.649  0.4566 -0.1511 -0.3498
  161MOL   C13532455   1.432   4.465   3.619  0.3914  0.4934  0.1865
  161MOL   H13632456   1.724   4.541   3.727  0.2234  0.2959 -1.1332
  161MOL   H13732457   1.782   4.693   3.669 -1.6259  1.3134 -1.3476
  161MOL   H13832458   1.632   4.583   3.515 -0.1449 -0.2903 -0.2795
  161MOL   H13932459   1.493   4.384   3.661 -1.6319  0.0495  2.3374
  161MOL   H14032460   1.333   4.452   3.663 -0.3552 -0.9668 -1.8064
  161MOL   H14132461   1.426   4.454   3.511  1.2079 -1.5315  0.3253
  161MOL   C14232462   1.559   4.780   3.526  0.2470  0.3646 -0.0846
  161MOL   C14332463   1.440   4.768   3.424 -0.1666  0.2281  0.3290
  161MOL   O14432464   1.401   4.902   3.409 -0.1968  0.2270 -0.1184
  161MOL   C14532465   1.286   4.932   3.490  0.1864 -0.3503  0.5554
  161MOL   H14632466   1.649   4.823   3.484 -1.1238  0.2940 -3.2320
  161MOL   H14732467   1.530   4.850   3.604  0.9434  0.9687 -0.3688
  161MOL   H14832468   1.360   4.709   3.468  2.0400 -2.1194  1.3428
  161MOL   H14932469   1.252   5.035   3.481  3.7287  0.9223  1.2402
  161MOL   H15032470   1.197   4.874   3.467  0.1494 -0.5582  1.2193
  161MOL   H15132471   1.313   4.917   3.594 -1.8044  3.3498  1.6905
  161MOL   C15232472   1.479   4.706   3.293 -0.0521 -0.3172 -0.5024
  161MOL   C15332473   1.355   4.685   3.202 -0.3201 -0.7672  0.8024
  161MOL   O15432474   1.390   4.652   3.070 -0.1850 -0.4899  0.0667
  161MOL   C15532475   1.445   4.769   3.003 -0.2951 -0.9633  0.6647
  161MOL   H15632476   1.509   4.603   3.311  1.3213  0.3322  1.1595
  161MOL   H15732477   1.559   4.768   3.252 -1.0256  0.8512 -0.6459
  161MOL   H15832478   1.304   4.781   3.202 -0.6446 -0.9249 -0.7404
  161MOL   H15932479   1.514   4.837   3.053 -1.4210 -0.7479  1.9519
  161MOL   H16032480   1.495   4.747   2.909 -1.2405  3.5034 -0.9914
  161MOL   H16132481   1.368   4.842   2.977  1.5321  0.9683  0.4915
  161MOL   C16232482   1.249   4.591   3.254  0.6256 -0.3428 -0.2950
  161MOL   C16332483   1.137   4.548   3.146  1.2384 -0.2091 -0.9560
  161MOL   O16432484   1.048   4.440   3.190 -0.4220 -0.1993  0.0766
  161MOL   C16532485   1.115   4.330   3.243 -0.5502  0.2934  0.4969
  161MOL   H16632486   1.200   4.620   3.347 -0.4080  1.3583 -1.3401
  161MOL   H16732487   1.311   4.506   3.281  1.1213 -0.7809 -2.7533
  161MOL   H16832488   1.188   4.514   3.056  1.9914 -2.6441  0.3376
  161MOL   H16932489   1.043   4.251   3.264  0.3908 -0.7618 -0.1824
  161MOL   H17032490   1.177   4.300   3.158 -0.0089  0.5744  0.7875
  161MOL   H17132491   1.178   4.342   3.331 -1.8392 -1.0333  1.6245
  161MOL   C17232492   1.057   4.673   3.090 -0.3720  0.4547  0.0254
  161MOL   C17332493   1.003   4.770   3.204 -0.1319 -0.3063 -0.1320
  161MOL   O17432494   0.966   4.898   3.152 -0.0806 -0.5602  0.0136
  161MOL   C17532495   1.079   4.987   3.133 -0.2448  0.4808  1.1965
  161MOL   H17632496   0.976   4.627   3.033  0.5606 -2.4042  0.9345
  161MOL   H17732497   1.119   4.732   3.022 -1.4128  1.6389  0.0858
  161MOL   H17832498   1.073   4.787   3.286  0.9948  1.1053 -1.3408
  161MOL   H17932499   1.150   4.935   3.070 -1.5069 -1.4269  1.3264
  161MOL   H18032500   1.046   5.083   3.091  0.7071 -0.1269 -1.0190
  161MOL   H18132501   1.131   5.010   3.226  0.1916 -0.5564  1.2115
  161MOL   C18232502   0.884   4.704   3.276  0.8717 -0.4702 -1.0641
  161MOL   C18332503   0.815   4.791   3.384 -0.0031 -0.0086  0.0267
  161MOL   O18432504   0.693   4.736   3.431  0.2352 -0.0464 -0.1544
  161MOL   C18532505   0.572   4.781   3.365  0.2186 -0.3386  0.8861
  161MOL   H18632506   0.928   4.614   3.319 -0.4466 -0.4056  0.4626
  161MOL   H18732507   0.807   4.662   3.211 -1.0095  1.6626 -0.2676
  161MOL   H18832508   0.795   4.886   3.334  2.4992  0.1515 -0.7200
  161MOL   H18932509   0.572   4.890   3.368  1.1779 -0.2523 -1.7744
  161MOL   H19032510   0.591   4.743   3.265  2.2241 -1.3837  1.6350
  161MOL   H19132511   0.477   4.744   3.404 -0.7239  0.8376 -0.2474
  161MOL   C19232512   0.903   4.826   3.507  0.0408 -0.1788 -0.0691
  161MOL   C19332513   0.956   4.705   3.590  0.0161  0.0484  0.2883
  161MOL   O19432514   1.023   4.756   3.705 -0.2123  0.2053 -0.1218
  161MOL   C19532515   1.103   4.660   3.773  0.2853  0.0205  0.2718
  161MOL   H19632516   0.855   4.905   3.566  0.4704  0.7254 -0.9140
  161MOL   H19732517   0.988   4.883   3.469  0.5383 -2.3773 -2.3826
  161MOL   H19832518   1.019   4.639   3.531 -2.9419 -1.3463 -1.4603
  161MOL   H19932519   1.193   4.651   3.712 -0.2317 -0.3610 -0.4437
  161MOL   H20032520   1.131   4.705   3.868  1.8596 -0.2236 -0.0624
  161MOL   H20132521   1.049   4.568   3.794  1.3159 -0.7742 -0.4802
  161MOL   H20232522   0.884   4.632   3.629  1.0054 -0.2554  1.5587
  162MOL     C132523   2.339   5.325   4.006 -1.0827  0.3024 -0.1237
  162MOL     C232524   2.298   5.359   3.863  0.3001 -1.1433  0.0747
  162MOL     O332525   2.163   5.326   3.860  0.1129 -0.0908 -0.1365
  162MOL     C432526   2.108   5.296   3.731  0.0044  0.1313  0.1730
  162MOL     H532527   2.273   5.374   4.077  0.7659  1.5953  0.7392
  162MOL     H632528   2.332   5.218   4.026  0.7004  0.5518  1.9933
  162MOL     H732529   2.349   5.299   3.787  0.9260  0.2701 -0.6328
  162MOL     H832530   2.114   5.192   3.699  0.2307  0.8448 -2.2588
  162MOL     H932531   2.004   5.319   3.756 -0.0083  0.8169 -0.4853
  162MOL    H1032532   2.140   5.364   3.652  1.7846  2.0309  2.4652
  162MOL    H1132533   2.440   5.357   4.031 -0.4344 -0.8887 -1.1344
  162MOL    C1232534   2.309   5.515   3.841 -0.2634  0.3164 -0.3253
  162MOL    C1332535   2.449   5.566   3.811  0.0632 -0.0252  0.5514
  162MOL    O1432536   2.541   5.548   3.916 -0.2491 -0.6026  0.1497
  162MOL    C1532537   2.554   5.637   4.025  0.1670  0.3064  0.3770
  162MOL    H1632538   2.266   5.567   3.927 -2.0113  1.5724 -1.9229
  162MOL    H1732539   2.242   5.542   3.759  2.1462  2.3445 -1.6872
  162MOL    H1832540   2.431   5.673   3.796 -0.6466 -0.4084 -1.4789
  162MOL    H1932541   2.493   5.619   4.113 -1.7367 -0.2125 -1.0230
  162MOL    H2032542   2.655   5.623   4.064  1.1699  0.2124 -2.1835
  162MOL    H2132543   2.544   5.745   4.015 -0.5905  0.2108  0.1017
  162MOL    C2232544   2.519   5.508   3.686  0.0195  0.2048  0.9097
  162MOL    C2332545   2.482   5.569   3.550  0.3144 -0.0917 -0.1353
  162MOL    O2432546   2.352   5.527   3.524 -0.2043 -0.2846  0.7203
  162MOL    C2532547   2.296   5.550   3.403  0.0708 -0.3951  0.1446
  162MOL    H2632548   2.530   5.400   3.681  0.2810  0.3238 -1.6009
  162MOL    H2732549   2.625   5.530   3.694  0.5819 -2.2786  0.5734
  162MOL    H2832550   2.552   5.516   3.485 -1.7557 -1.1815 -1.5455
  162MOL    H2932551   2.377   5.547   3.329 -0.0252  0.8800 -0.0256
  162MOL    H3032552   2.227   5.474   3.368  2.2264 -0.7444 -3.6605
  162MOL    H3132553   2.247   5.647   3.408 -0.6481 -0.6648 -1.4236
  162MOL    C3232554   2.492   5.727   3.540  0.3495  0.0850 -0.2528
  162MOL    C3332555   2.628   5.798   3.549 -0.4350  0.3544  0.3944
  162MOL    O3432556   2.727   5.731   3.472 -0.1596  0.5061 -0.1568
  162MOL    C3532557   2.862   5.745   3.524  0.6920 -0.3884 -0.2476
  162MOL    H3632558   2.417   5.766   3.609 -1.0345 -0.7529 -1.2583
  162MOL    H3732559   2.454   5.754   3.442  1.0062  0.6763 -0.3542
  162MOL    H3832560   2.664   5.796   3.652  0.7059  1.6726  0.0302
  162MOL    H3932561   2.877   5.710   3.626  1.7256  0.1363 -0.2151
  162MOL    H4032562   2.930   5.685   3.464  1.5183 -0.6085  0.8877
  162MOL    H4132563   2.904   5.846   3.521 -0.3107  0.0045 -3.0705
  162MOL    C4232564   2.625   5.943   3.505 -0.5939 -0.0278 -0.2484
  162MOL    C4332565   2.528   6.043   3.574  1.1166 -0.2576 -0.0956
  162MOL    O4432566   2.569   6.055   3.709  0.3556 -0.5196  0.3189
  162MOL    C4532567   2.483   5.992   3.807 -0.5883 -0.7089 -0.1848
  162MOL    H4632568   2.611   5.939   3.397  0.0864  0.7048 -0.3696
  162MOL    H4732569   2.722   5.985   3.530 -1.4149  1.3807  0.7349
  162MOL    H4832570   2.429   5.998   3.567  1.5783 -1.4218  0.5998
  162MOL    H4932571   2.501   6.035   3.906 -0.0991 -0.6201 -0.3122
  162MOL    H5032572   2.378   6.003   3.782 -0.7666 -0.8797  0.4569
  162MOL    H5132573   2.503   5.886   3.820  0.6992 -0.4843 -0.2973
  162MOL    C5232574   2.523   6.185   3.514  0.1143 -0.4999  0.5002
  162MOL    C5332575   2.390   6.259   3.550  0.5924  0.3049 -0.3084
  162MOL    O5432576   2.400   6.398   3.545  0.2588  0.6780 -0.1852
  162MOL    C5532577   2.442   6.460   3.667 -0.4613 -0.5815 -0.5546
  162MOL    H5632578   2.550   6.184   3.408  0.1540 -0.7637  0.5142
  162MOL    H5732579   2.610   6.243   3.543 -0.0411  0.3142 -0.5884
  162MOL    H5832580   2.375   6.228   3.654  3.4799  1.0209  0.3816
  162MOL    H5932581   2.535   6.417   3.704 -0.2116  0.0681 -0.4149
  162MOL    H6032582   2.469   6.564   3.653  1.1932 -0.9820 -0.4277
  162MOL    H6132583   2.378   6.470   3.755 -0.3247  2.9002 -0.7879
  162MOL    C6232584   2.262   6.210   3.469 -0.0204  0.0744 -0.7421
  162MOL    C6332585   2.134   6.193   3.553  0.0720  0.0211  0.1521
  162MOL    O6432586   2.144   6.080   3.628  0.1062 -0.1827 -0.7055
  162MOL    C6532587   2.110   5.961   3.560  0.1475  0.2022 -0.1550
  162MOL    H6632588   2.278   6.116   3.416  2.1927 -0.5055  0.8930
  162MOL    H6732589   2.243   6.292   3.400  1.1140 -0.4972 -1.7480
  162MOL    H6832590   2.058   6.185   3.476  0.4994 -1.4940 -0.1333
  162MOL    H6932591   2.168   5.947   3.470  0.6926 -0.4008  0.2824
  162MOL    H7032592   2.130   5.875   3.625 -1.1229  0.7061  0.9452
  162MOL    H7132593   2.003   5.955   3.536 -0.0472  0.3261  0.6651
  162MOL    C7232594   2.102   6.319   3.637 -0.3142 -0.1017 -0.5374
  162MOL    C7332595   1.967   6.324   3.710  0.6046 -0.5193  0.1803
  162MOL    O7432596   1.856   6.301   3.627 -0.2680  0.1087  0.3742
  162MOL    C7532597   1.753   6.394   3.646  0.4663  0.0630  0.4012
  162MOL    H7632598   2.099   6.402   3.566 -1.4891  0.7906  0.5359
  162MOL    H7732599   2.177   6.337   3.713 -0.3307 -0.9902 -0.3156
  162MOL    H7832600   1.963   6.427   3.746  2.0448 -0.6658  0.7986
  162MOL    H7932601   1.672   6.365   3.579  0.3635 -2.1595  1.4590
  162MOL    H8032602   1.724   6.409   3.750  0.4540  1.5705  0.1976
  162MOL    H8132603   1.786   6.492   3.613  0.0853  0.3365  0.8266
  162MOL    C8232604   1.943   6.237   3.829 -0.2661 -0.2800 -0.2030
  162MOL    C8332605   2.061   6.232   3.931 -0.6183 -0.0356  0.3451
  162MOL    O8432606   2.097   6.363   3.966  0.3904  0.3844  0.0941
  162MOL    C8532607   2.230   6.388   4.000 -0.6272 -0.1282 -0.6763
  162MOL    H8632608   1.930   6.137   3.787  0.0855 -0.2098 -0.4919
  162MOL    H8732609   1.850   6.265   3.877 -1.0893  0.0530 -1.9506
  162MOL    H8832610   2.142   6.185   3.876 -0.2514  1.7323 -0.6338
  162MOL    H8932611   2.305   6.334   3.942  0.7913  0.8999  0.1702
  162MOL    H9032612   2.256   6.493   3.986 -0.0330 -0.1375  0.3713
  162MOL    H9132613   2.240   6.365   4.106  0.1453 -1.8525 -1.1163
  162MOL    C9232614   2.027   6.148   4.058 -0.0963 -0.7589 -0.1595
  162MOL    C9332615   2.115   6.028   4.088 -0.9183 -0.5273  0.5075
  162MOL    O9432616   2.104   5.946   3.969  0.4246  0.8527 -0.3495
  162MOL    C9532617   1.999   5.845   3.975 -0.3158  0.4817 -0.4540
  162MOL    H9632618   1.927   6.106   4.053 -0.2697 -0.6174  1.6383
  162MOL    H9732619   2.015   6.198   4.154 -1.9871  2.1118 -1.8175
  162MOL    H9832620   2.075   5.971   4.172 -2.3637 -1.3810 -0.7301
  162MOL    H9932621   1.912   5.895   4.019  0.0970 -0.1831  1.1430
  162MOL   H10032622   1.974   5.795   3.881 -1.2296 -0.3614  0.2365
  162MOL   H10132623   2.036   5.768   4.041  0.8913  1.1442 -0.3483
  162MOL   C10232624   2.269   6.062   4.112 -0.1494  0.2328 -0.1385
  162MOL   C10332625   2.316   6.078   4.258  0.2518  0.1375  0.9527
  162MOL   O10432626   2.281   5.946   4.314  0.3214 -0.5751  0.7266
  162MOL   C10532627   2.278   5.938   4.450  0.3221 -0.1449 -0.1743
  162MOL   H10632628   2.301   6.146   4.050  0.2604 -0.1462 -0.4398
  162MOL   H10732629   2.325   5.987   4.057 -1.5291 -0.7159 -0.2699
  162MOL   H10832630   2.265   6.160   4.308  0.4546  0.4423  0.6559
  162MOL   H10932631   2.257   6.034   4.497  2.0168 -0.5541  1.5005
  162MOL   H11032632   2.223   5.852   4.488 -0.3560 -0.1052 -1.0616
  162MOL   H11132633   2.383   5.920   4.474  0.3431  1.7763  1.2870
  162MOL   C11232634   2.462   6.097   4.260  0.1005 -0.0733  0.0845
  162MOL   C11332635   2.527   6.236   4.222  0.8856  0.3435  0.3277
  162MOL   O11432636   2.503   6.252   4.081  0.2780  0.2198  0.2251
  162MOL   C11532637   2.614   6.269   3.991  0.4939  0.3076 -0.2661
  162MOL   H11632638   2.509   6.034   4.185  0.7567 -0.5184  0.8593
  162MOL   H11732639   2.497   6.078   4.362 -1.0758  0.5657  0.6137
  162MOL   H11832640   2.633   6.217   4.241  0.8016  0.9611  1.4577
  162MOL   H11932641   2.583   6.288   3.888  0.0651 -1.3545 -0.4588
  162MOL   H12032642   2.677   6.351   4.026 -0.7076  1.4415 -0.7539
  162MOL   H12132643   2.672   6.176   3.996  1.2230  0.7720  0.0970
  162MOL   C12232644   2.477   6.362   4.295 -0.0351  0.5093  0.2463
  162MOL   C12332645   2.506   6.376   4.446 -0.0426  0.1031  0.0966
  162MOL   O12432646   2.643   6.363   4.473  0.1586  0.3468  0.2122
  162MOL   C12532647   2.668   6.273   4.580  0.9208  0.2841 -0.4286
  162MOL   H12632648   2.372   6.374   4.269 -0.1187  0.3917  0.5270
  162MOL   H12732649   2.521   6.449   4.247 -1.4648  0.0644 -1.9103
  162MOL   H12832650   2.449   6.299   4.498  0.7972 -1.0530 -0.6827
  162MOL   H12932651   2.683   6.334   4.670 -0.5305  1.2289 -0.8062
  162MOL   H13032652   2.585   6.213   4.617  1.8197 -0.0330  1.1369
  162MOL   H13132653   2.759   6.214   4.567  0.7326  0.5349 -3.1513
  162MOL   C13232654   2.466   6.516   4.497  0.1416  0.1622  0.3557
  162MOL   C13332655   2.313   6.547   4.486  0.2960  0.5230 -0.1378
  162MOL   O13432656   2.255   6.466   4.587  0.3998  0.2709  0.4044
  162MOL   C13532657   2.152   6.392   4.519  0.4817  0.0651  0.2611
  162MOL   H13632658   2.520   6.596   4.445  1.6183 -1.2385 -0.3055
  162MOL   H13732659   2.494   6.531   4.602 -2.2033 -0.7500  1.1280
  162MOL   H13832660   2.277   6.531   4.384 -0.9856 -3.4854  0.8852
  162MOL   H13932661   2.195   6.309   4.463  0.8299 -1.4206  2.6475
  162MOL   H14032662   2.099   6.333   4.594 -0.2560  1.4481  0.8565
  162MOL   H14132663   2.074   6.442   4.461  1.3483 -1.0589 -1.9325
  162MOL   C14232664   2.289   6.687   4.522 -0.0351 -0.4384 -0.2001
  162MOL   C14332665   2.145   6.731   4.487  0.5112 -0.4559  0.4213
  162MOL   O14432666   2.146   6.864   4.518  0.0264  0.5509  0.1039
  162MOL   C14532667   2.022   6.927   4.540  0.9085 -0.1562 -0.4993
  162MOL   H14632668   2.365   6.740   4.464 -0.6312  0.5811 -0.0653
  162MOL   H14732669   2.312   6.701   4.627 -1.4783  1.4159 -0.1098
  162MOL   H14832670   2.074   6.674   4.547 -0.5662 -1.6353 -1.9020
  162MOL   H14932671   1.957   6.874   4.610  2.6679 -1.0324  0.4882
  162MOL   H15032672   2.032   7.033   4.564 -0.7555 -0.3731  1.2544
  162MOL   H15132673   1.967   6.939   4.446 -0.0975  0.2194  0.1321
  162MOL   C15232674   2.097   6.712   4.343  0.5209 -0.0030  0.7272
  162MOL   C15332675   2.172   6.773   4.221  0.2826 -0.1222 -0.3868
  162MOL   O15432676   2.255   6.665   4.176 -0.8622  0.5069  0.4118
  162MOL   C15532677   2.393   6.698   4.162  0.0495  0.7525 -0.3075
  162MOL   H15632678   1.997   6.751   4.321  0.3501 -0.9929 -0.2829
  162MOL   H15732679   2.092   6.608   4.311 -0.8539 -0.4895  2.4057
  162MOL   H15832680   2.241   6.851   4.253 -1.1576  1.3533 -0.7623
  162MOL   H15932681   2.453   6.622   4.111  0.4937  0.3220  0.8341
  162MOL   H16032682   2.410   6.781   4.094 -0.1635  1.0082 -0.0446
  162MOL   H16132683   2.438   6.721   4.259 -1.3335  0.9322  0.2907
  162MOL   C16232684   2.086   6.827   4.101 -0.1717 -0.0293 -0.1793
  162MOL   C16332685   2.161   6.927   4.006  0.8340  0.4375  0.1279
  162MOL   O16432686   2.099   6.916   3.877  0.2557 -0.1513 -0.1663
  162MOL   C16532687   2.178   6.823   3.796  0.3344 -0.5334 -0.7210
  162MOL   H16632688   1.987   6.863   4.131  0.2209 -0.0244  1.1213
  162MOL   H16732689   2.053   6.740   4.043  0.3549 -0.3627  0.0146
  162MOL   H16832690   2.265   6.895   4.001 -0.3754 -3.3973 -2.3922
  162MOL   H16932691   2.276   6.866   3.775  0.8310 -0.9583  0.6413
  162MOL   H17032692   2.194   6.733   3.856 -1.7522  1.1983  2.6114
  162MOL   H17132693   2.131   6.806   3.699  1.6878  1.1943 -1.6856
  162MOL   C17232694   2.149   7.079   4.045  0.4027 -0.2095  0.3780
  162MOL   C17332695   2.214   7.120   4.179 -0.9506 -0.6591 -0.1906
  162MOL   O17432696   2.352   7.081   4.173 -0.2775  0.1851 -0.4307
  162MOL   C17532697   2.408   7.074   4.306  0.0782  0.1788 -1.1664
  162MOL   H17632698   2.046   7.115   4.051  0.1788 -0.8291  0.3002
  162MOL   H17732699   2.202   7.142   3.974  0.1602  0.2441  0.5983
  162MOL   H17832700   2.160   7.072   4.261  0.5379 -2.3377 -0.1566
  162MOL   H17932701   2.350   7.013   4.375 -0.2714 -0.6662 -2.1964
  162MOL   H18032702   2.506   7.027   4.291  0.6813  1.4291 -1.2451
  162MOL   H18132703   2.436   7.166   4.358 -0.2759 -1.0645  1.3273
  162MOL   C18232704   2.198   7.271   4.207 -0.3265 -0.7421 -0.2108
  162MOL   C18332705   2.057   7.314   4.260  0.3419 -0.6444  0.2358
  162MOL   O18432706   2.079   7.316   4.401  0.3501  0.0755 -1.1006
  162MOL   C18532707   1.966   7.324   4.478  0.2691  0.3313 -0.2638
  162MOL   H18632708   2.207   7.319   4.110  1.6026  0.2865  0.4542
  162MOL   H18732709   2.280   7.314   4.263 -0.5781 -1.1374  0.4803
  162MOL   H18832710   1.994   7.225   4.250 -2.1988  0.9615  1.3201
  162MOL   H18932711   1.932   7.426   4.465 -2.0289 -0.4047 -0.3290
  162MOL   H19032712   1.892   7.248   4.451  1.3944 -0.9198  0.1519
  162MOL   H19132713   1.973   7.308   4.586 -2.1334  1.8071  0.1363
  162MOL   C19232714   2.012   7.453   4.198  0.6258  0.0474  0.6059
  162MOL   C19332715   1.971   7.448   4.048  0.0312  0.4775 -0.2187
  162MOL   O19432716   1.892   7.566   4.019  0.2623  0.0144  0.3069
  162MOL   C19532717   1.856   7.567   3.882 -0.2351  0.6729  0.4163
  162MOL   H19632718   2.086   7.531   4.214  1.1278  0.0320 -1.4393
  162MOL   H19732719   1.926   7.496   4.249 -0.7429  1.7567 -2.9927
  162MOL   H19832720   1.910   7.361   4.025 -1.0399  1.1419  0.1046
  162MOL   H19932721   1.808   7.473   3.854  0.8108  0.1238  0.4340
  162MOL   H20032722   1.781   7.646   3.877 -2.5445 -1.4436  0.0797
  162MOL   H20132723   1.947   7.587   3.827  0.4970 -2.2077  0.4833
  162MOL   H20232724   2.055   7.454   3.978 -0.4577  0.0041 -0.8491
  163MOL     C132725   5.790   6.317   7.666 -0.8236 -0.0972 -0.1780
  163MOL     C232726   5.727   6.453   7.657 -0.3073 -1.1765 -1.0269
  163MOL     O332727   5.612   6.434   7.737  0.1771 -0.1978 -0.5599
  163MOL     C432728   5.486   6.453   7.668 -0.4477 -0.1236  0.0811
  163MOL     H532729   5.721   6.236   7.645 -1.3693  0.0020  1.1868
  163MOL     H632730   5.876   6.302   7.600  0.1121 -0.0536  1.0095
  163MOL     H732731   5.708   6.478   7.553  0.7594 -1.2086 -1.2393
  163MOL     H832732   5.405   6.459   7.740 -0.4438 -0.2801  0.0970
  163MOL     H932733   5.472   6.550   7.619  1.3243 -0.5632 -1.3549
  163MOL    H1032734   5.469   6.368   7.602 -0.2030 -1.0007  1.1347
  163MOL    H1132735   5.823   6.298   7.768 -0.0946 -0.6822 -0.5193
  163MOL    C1232736   5.820   6.565   7.713  0.2502 -0.3164  0.1725
  163MOL    C1332737   5.948   6.590   7.627 -0.2350  0.0257  0.1703
  163MOL    O1432738   5.900   6.618   7.492  0.2154  0.1620 -0.6710
  163MOL    C1532739   5.980   6.613   7.375 -0.0533  0.2803  0.0489
  163MOL    H1632740   5.848   6.540   0.004 -2.9925  0.0192  1.1999
  163MOL    H1732741   5.763   6.658   7.714  2.0155  0.7854 -0.3577
  163MOL    H1832742   6.000   6.494   7.629  1.5361  0.9569 -0.1812
  163MOL    H1932743   6.073   6.561   7.398 -0.0244 -0.6782 -2.1579
  163MOL    H2032744   5.910   6.557   7.314 -0.9526  0.0019  1.3130
  163MOL    H2132745   5.990   6.710   7.326 -1.8761  1.5873  2.1590
  163MOL    C2232746   6.044   6.695   7.682  0.2818  0.6131  0.2445
  163MOL    C2332747   6.099   6.663   0.015 -0.6478  0.0497  0.5875
  163MOL    O2432748   5.996   6.680   0.111  0.2328  0.1603 -0.1616
  163MOL    C2532749   6.014   6.782   0.214  0.0623 -0.1266 -0.6671
  163MOL    H2632750   5.999   6.794   7.679 -0.8317  0.1325  0.7401
  163MOL    H2732751   6.133   6.716   7.624 -0.9210  1.3881 -1.3806
  163MOL    H2832752   6.172   6.742   0.035 -2.4575  1.5836  1.2335
  163MOL    H2932753   5.934   6.780   0.288  0.5610 -0.4568 -0.1330
  163MOL    H3032754   6.107   6.769   0.268 -0.0530 -0.2303 -0.4935
  163MOL    H3132755   6.003   6.874   0.157  0.4424 -0.1416 -0.7634
  163MOL    C3232756   6.177   6.535   0.044 -0.1876 -0.2179 -0.0958
  163MOL    C3332757   6.315   6.520   7.791 -0.4387 -0.0459  0.1008
  163MOL    O3432758   6.397   6.608   0.055 -0.2556  0.1447  0.0644
  163MOL    C3532759   6.518   6.646   7.806  1.1018 -0.0078  0.3440
  163MOL    H3632760   6.113   6.453   0.013 -2.1357  2.1264 -2.5891
  163MOL    H3732761   6.190   6.530   0.152 -1.3380  1.5491  0.1465
  163MOL    H3832762   6.323   6.555   7.688 -0.8455 -1.3858 -0.3918
  163MOL    H3932763   6.585   6.564   7.779 -0.0208 -1.2153  1.1444
  163MOL    H4032764   6.498   6.705   7.717  2.1399  1.7183  1.2240
  163MOL    H4132765   6.577   6.718   0.052  2.9250 -0.0437 -1.4251
  163MOL    C4232766   6.369   6.376   7.793  0.1297 -0.4858  0.4851
  163MOL    C4332767   6.411   6.339   0.133  0.9953  0.0085  0.0835
  163MOL    O4432768   6.295   6.278   0.189 -0.0767  0.4292  0.2476
  163MOL    C4532769   6.254   6.319   0.317  0.3356  0.1635  0.1422
  163MOL    H4632770   6.456   6.358   7.729 -1.1828  1.3706 -1.8809
  163MOL    H4732771   6.288   6.310   7.762  0.8414 -0.4786 -1.4160
  163MOL    H4832772   6.458   6.411   0.200 -0.3267 -1.0161  2.1616
  163MOL    H4932773   6.248   6.427   0.329 -2.4803  0.1144 -0.3689
  163MOL    H5032774   6.154   6.279   0.338  0.0841  1.1951  0.9788
  163MOL    H5132775   6.333   6.285   0.383  0.6965  0.3614 -0.1912
  163MOL    C5232776   6.513   6.228   0.121 -0.3442  0.2930  0.3152
  163MOL    C5332777   6.567   6.161   0.251  0.2116  0.0834  0.2453
  163MOL    O5432778   6.673   6.067   0.227  0.2546 -0.3671  0.3608
  163MOL    C5532779   6.640   5.938   0.191 -0.2989 -1.2567 -0.3188
  163MOL    H5632780   6.603   6.260   0.069 -0.0543 -2.4350 -0.9421
  163MOL    H5732781   6.471   6.148   0.060 -1.4626  0.8616  0.3268
  163MOL    H5832782   6.478   6.111   0.291 -0.6701  0.4371 -1.2413
  163MOL    H5932783   6.637   5.859   0.266  1.3787 -0.2070  0.8905
  163MOL    H6032784   6.541   5.941   0.146  0.4993 -3.7678 -2.4329
  163MOL    H6132785   6.703   5.901   0.110 -0.9556 -0.4173 -1.2178
  163MOL    C6232786   6.621   6.252   0.363 -0.1164  0.6835  0.0896
  163MOL    C6332787   6.647   6.170   0.488  0.2432 -0.4845 -0.6059
  163MOL    O6432788   6.756   6.238   0.554  0.1364 -0.8234 -0.4575
  163MOL    C6532789   6.879   6.173   0.522 -0.4259 -0.2637 -0.3254
  163MOL    H6632790   6.557   6.333   0.396  1.6235  2.1717 -0.1368
  163MOL    H6732791   6.711   6.309   0.342  1.3508 -1.9883 -1.1544
  163MOL    H6832792   6.681   6.072   0.455  0.0632 -0.0379 -2.1894
  163MOL    H6932793   6.899   6.178   0.415  0.6638 -0.8813 -0.1569
  163MOL    H7032794   6.963   6.216   0.576  1.9076 -1.3868 -2.9486
  163MOL    H7132795   6.875   6.070   0.558  0.8803  0.1027  0.9278
  163MOL    C7232796   6.526   6.158   0.579 -0.2785 -0.1861 -0.3098
  163MOL    C7332797   6.549   6.135   0.727  0.1553  0.0432  0.7799
  163MOL    O7432798   6.426   6.149   0.802  0.4644  0.1126 -0.0878
  163MOL    C7532799   6.395   6.279   0.831  0.3437 -0.2320  0.1743
  163MOL    H7632800   6.463   6.074   0.547 -3.8458  0.9481  3.2978
  163MOL    H7732801   6.464   6.248   0.576 -0.4209 -0.1782  2.0737
  163MOL    H7832802   6.615   6.213   0.764  1.6022  0.1515 -1.8895
  163MOL    H7932803   6.312   6.270   0.902  0.1220  0.0699 -0.0429
  163MOL    H8032804   6.475   6.340   0.871  0.2599  0.6780 -1.0264
  163MOL    H8132805   6.348   6.334   0.749 -2.2002 -0.4850  1.3949
  163MOL    C8232806   6.614   6.004   0.770  0.2211  0.0153  0.8770
  163MOL    C8332807   6.702   6.020   0.890 -0.0146 -0.0679  0.3611
  163MOL    O8432808   6.726   5.883   0.939 -0.3486 -0.2650 -0.0091
  163MOL    C8532809   6.618   5.830   1.023 -0.7056 -0.1384 -0.7345
  163MOL    H8632810   6.683   5.973   0.692  1.4798  1.3753  1.4230
  163MOL    H8732811   6.536   5.928   0.774  0.7198 -0.4896  0.8895
  163MOL    H8832812   6.646   6.074   0.966  0.9527  1.1055  0.2492
  163MOL    H8932813   6.597   5.884   1.115 -0.0571 -0.6876 -0.2636
  163MOL    H9032814   6.527   5.813   0.965  0.2411 -2.5016 -1.5912
  163MOL    H9132815   6.645   5.734   1.067  2.7590  1.1144  0.0643
  163MOL    C9232816   6.840   6.093   0.871 -0.1584 -0.1939  0.1509
  163MOL    C9332817   6.893   6.161   0.999 -0.1202 -0.1016  0.7563
  163MOL    O9432818   7.030   6.198   0.973 -0.6085  0.2398 -0.4852
  163MOL    C9532819   7.123   6.087   0.989 -0.0599 -0.0784  0.1316
  163MOL    H9632820   6.820   6.174   0.800 -1.1871 -1.2898 -0.8418
  163MOL    H9732821   6.911   6.019   0.833  1.5812  2.9905 -3.0927
  163MOL    H9832822   6.887   6.102   1.090 -1.6634 -1.4163 -0.1676
  163MOL    H9932823   7.185   6.085   0.899  1.9677  0.8475  1.4634
  163MOL   H10032824   7.178   6.110   1.080  2.1279  1.8515 -1.6060
  163MOL   H10132825   7.077   5.989   0.998  0.5434 -0.5537 -1.7432
  163MOL   C10232826   6.814   6.290   1.026 -0.2044 -0.6659 -0.8930
  163MOL   C10332827   6.800   6.337   1.172  0.2131  0.1038  0.1899
  163MOL   O10432828   6.931   6.350   1.215  0.3361  0.3925 -0.4894
  163MOL   C10532829   6.941   6.331   1.354  0.8489 -0.0445 -0.1771
  163MOL   H10632830   6.709   6.286   0.998 -1.5033  1.1663  3.3852
  163MOL   H10732831   6.856   6.369   0.964  2.1726 -1.1033  0.1271
  163MOL   H10832832   6.752   6.256   1.226  2.6196 -1.7445 -0.3041
  163MOL   H10932833   7.005   6.412   1.391 -0.6808 -0.6591  4.0424
  163MOL   H11032834   6.848   6.352   1.407  0.5416 -0.8556 -0.3804
  163MOL   H11132835   6.980   6.234   1.384  0.1682 -0.3440 -0.2479
  163MOL   C11232836   6.731   6.472   1.193  0.4287  0.9516 -0.3799
  163MOL   C11332837   6.584   6.478   1.153 -0.1145  0.2426 -0.0565
  163MOL   O11432838   6.520   6.411   1.258 -0.0664  0.2569  0.2572
  163MOL   C11532839   6.393   6.350   1.222  0.0755  0.4342  0.0879
  163MOL   H11632840   6.792   6.532   1.126  0.5287  0.5418 -0.6609
  163MOL   H11732841   6.738   6.506   1.296 -1.8876 -0.3886  0.2420
  163MOL   H11832842   6.571   6.431   1.055  2.1553 -1.5802  0.4819
  163MOL   H11932843   6.406   6.279   1.140  0.6459  2.1600 -1.3420
  163MOL   H12032844   6.378   6.287   1.310  0.0138 -0.0776 -0.2849
  163MOL   H12132845   6.326   6.436   1.214  1.5947  1.4098 -2.8472
  163MOL   C12232846   6.537   6.629   1.145  0.3383  0.1769  0.2754
  163MOL   C12332847   6.605   6.707   1.035  0.1543  0.7936 -0.2034
  163MOL   O12432848   6.564   6.647   0.911  0.6870  0.2768  0.3504
  163MOL   C12532849   6.668   6.627   0.814 -0.0067  0.0482  0.1030
  163MOL   H12632850   6.551   6.679   1.241 -1.2850 -0.0460  0.6540
  163MOL   H12732851   6.430   6.641   1.127  0.2691 -0.6303  0.1592
  163MOL   H12832852   6.713   6.698   1.048 -0.1256 -2.3883  0.2524
  163MOL   H12932853   6.622   6.682   0.732 -0.6299  1.4662  1.3751
  163MOL   H13032854   6.766   6.666   0.840  0.5451  1.0514 -3.3477
  163MOL   H13132855   6.677   6.526   0.775  0.8601  0.9243 -1.9916
  163MOL   C13232856   6.553   6.853   1.017 -0.8195  0.3257  1.1879
  163MOL   C13332857   6.546   6.943   1.148  0.8686 -0.0052  0.2517
  163MOL   O13432858   6.676   6.948   1.197  0.1134 -0.3689 -0.3330
  163MOL   C13532859   6.675   6.940   1.343  0.3858 -0.3040 -0.0506
  163MOL   H13632860   6.453   6.837   0.975 -0.3671 -0.7144  0.4919
  163MOL   H13732861   6.618   6.901   0.945  0.9980 -1.1906  1.7600
  163MOL   H13832862   6.482   6.893   1.221 -0.2436  0.0215 -0.6839
  163MOL   H13932863   6.656   6.843   1.390  0.6807  0.2441  1.2269
  163MOL   H14032864   6.775   6.962   1.380  0.1625 -0.8632  0.9005
  163MOL   H14132865   6.598   7.001   1.389  0.1221 -0.9594  0.3866
  163MOL   C14232866   6.509   7.089   1.125 -0.2185  0.1245  0.4705
  163MOL   C14332867   6.356   7.112   1.127  0.0448  0.6084  0.1705
  163MOL   O14432868   6.329   7.168   1.257  0.3587  0.0199  0.1575
  163MOL   C14532869   6.289   7.074   1.355  0.1757  1.4362 -0.1898
  163MOL   H14632870   6.563   7.103   1.031 -1.6922  0.3260 -0.3521
  163MOL   H14732871   6.557   7.157   1.195  1.2305 -1.0909  0.6918
  163MOL   H14832872   6.300   7.023   1.099 -0.9938  1.7149 -1.3209
  163MOL   H14932873   6.244   7.136   1.433 -1.9347 -1.0559  0.6614
  163MOL   H15032874   6.221   7.002   1.310  0.5297  1.1614 -0.2825
  163MOL   H15132875   6.375   7.023   1.400 -1.8167 -1.8647  0.0490
  163MOL   C15232876   6.319   7.214   1.022 -0.2713 -0.1908  0.3557
  163MOL   C15332877   6.311   7.173   0.874  0.2175  0.2831  0.1300
  163MOL   O15432878   6.446   7.137   0.842 -0.2978  0.4877 -0.3595
  163MOL   C15532879   6.526   7.245   0.794 -0.8581 -0.4739  0.2713
  163MOL   H15632880   6.381   7.304   1.027  0.0767 -0.3738 -0.7922
  163MOL   H15732881   6.217   7.251   1.040 -0.6175 -1.5340  1.2493
  163MOL   H15832882   6.274   7.255   0.813 -0.5317 -1.5632 -1.9577
  163MOL   H15932883   6.626   7.203   0.784 -0.6943 -0.1409  0.4888
  163MOL   H16032884   6.499   7.270   0.691  2.2435 -0.5118 -0.5964
  163MOL   H16132885   6.534   7.337   0.852 -2.1101 -0.7293  0.8645
  163MOL   C16232886   6.233   7.047   0.830  0.8020  0.1469 -0.0850
  163MOL   C16332887   6.085   7.038   0.859  0.4601  0.5359  0.9662
  163MOL   O16432888   6.004   7.059   0.736 -0.5957 -0.1877 -0.4501
  163MOL   C16532889   6.013   7.191   0.694 -0.6538 -0.0658  0.0112
  163MOL   H16632890   6.275   6.964   0.888  1.7448  1.0712  0.5794
  163MOL   H16732891   6.261   7.018   0.729  1.2117  1.4584 -0.3587
  163MOL   H16832892   6.053   7.116   0.929 -1.4702 -1.3709  2.2861
  163MOL   H16932893   6.100   7.201   0.629 -1.1998  1.8999 -0.4467
  163MOL   H17032894   5.934   7.206   0.620  1.0631  2.7892 -1.3401
  163MOL   H17132895   6.018   7.274   0.763 -0.7033  0.4156 -0.5571
  163MOL   C17232896   6.041   6.912   0.934  0.7483  0.2958 -0.4123
  163MOL   C17332897   6.079   6.780   0.866  0.2381 -0.3105 -0.6585
  163MOL   O17432898   6.058   6.678   0.968  0.0520 -0.0674 -0.3960
  163MOL   C17532899   6.174   6.654   1.041  0.3828  0.3464  0.1047
  163MOL   H17632900   5.933   6.910   0.951  0.8900  1.7676  0.7470
  163MOL   H17732901   6.087   6.924   1.032 -0.0205 -1.3832  0.1790
  163MOL   H17832902   6.182   6.779   0.830 -0.1721 -0.6880 -1.8720
  163MOL   H17932903   6.142   6.585   1.119 -0.9889  1.7101  0.7737
  163MOL   H18032904   6.251   6.614   0.975  1.2403  1.8199  0.1673
  163MOL   H18132905   6.218   6.744   1.085 -2.5104  1.5931  0.5908
  163MOL   C18232906   5.982   6.740   0.752 -0.2219 -0.6213  0.7907
  163MOL   C18332907   6.002   6.606   0.684  0.3527  0.4239  0.1874
  163MOL   O18432908   5.932   6.615   0.562 -0.1642 -0.2744 -0.3881
  163MOL   C18532909   5.909   6.487   0.504 -0.7732 -0.4126  0.2414
  163MOL   H18632910   5.973   6.816   0.675  1.5010 -0.6395  0.5662
  163MOL   H18732911   5.879   6.749   0.787 -1.1209  0.7047 -1.9883
  163MOL   H18832912   5.947   6.535   0.746  0.5028  0.9049  0.8745
  163MOL   H18932913   5.806   6.458   0.525 -0.3200 -0.3468  2.6896
  163MOL   H19032914   5.934   6.486   0.398 -0.9855  1.1345  0.1646
  163MOL   H19132915   5.975   6.408   0.537 -1.9180 -1.4785  0.0101
  163MOL   C19232916   6.150   6.573   0.661  0.2407  0.7896 -0.3502
  163MOL   C19332917   6.225   6.671   0.568  0.1041  0.0212  0.1214
  163MOL   O19432918   6.364   6.636   0.556  0.3937 -0.7683  0.2485
  163MOL   C19532919   6.430   6.697   0.444 -0.0375 -0.1307  0.2568
  163MOL   H19632920   6.148   6.472   0.621  1.6381  1.3183 -1.8614
  163MOL   H19732921   6.209   6.556   0.751 -2.4768 -2.2122  0.9438
  163MOL   H19832922   6.198   6.773   0.597  0.5735 -0.3516  1.8881
  163MOL   H19932923   6.417   6.805   0.438 -1.8521 -0.4484 -2.8956
  163MOL   H20032924   6.538   6.681   0.448 -0.3666 -2.3842  0.6571
  163MOL   H20132925   6.396   6.657   0.349  2.6493 -1.8498 -0.0324
  163MOL   H20232926   6.171   6.661   0.473 -1.6268  0.1454  1.0667
  164MOL     C132927   4.983   3.574   5.227  0.8621 -0.7012 -0.2144
  164MOL     C232928   4.832   3.574   5.208 -0.3092 -0.3395 -0.1662
  164MOL     O332929   4.801   3.525   5.079 -0.2232 -0.7549  0.3780
  164MOL     C432930   4.803   3.618   4.972 -0.0740 -0.3124 -0.3134
  164MOL     H532931   5.022   3.610   5.322  1.4413 -4.2781  0.9452
  164MOL     H632932   5.023   3.473   5.220  0.3952 -1.0360  1.6647
  164MOL     H732933   4.798   3.678   5.212 -2.6239 -1.0610 -0.0594
  164MOL     H832934   4.736   3.700   4.997 -0.8965 -0.9997 -0.2518
  164MOL     H932935   4.901   3.663   4.959 -0.3715  0.4326  0.0181
  164MOL    H1032936   4.764   3.574   4.880  0.8410  0.1520 -0.9350
  164MOL    H1132937   5.028   3.630   5.145 -1.2441  0.0147 -0.9049
  164MOL    C1232938   4.751   3.498   5.317 -1.0520  0.0209 -0.0869
  164MOL    C1332939   4.595   3.521   5.318 -0.1207  0.2777 -0.0397
  164MOL    O1432940   4.575   3.661   5.334 -0.1764  0.3987  0.0277
  164MOL    C1532941   4.598   3.724   5.457  0.0721  0.1804 -0.1493
  164MOL    H1632942   4.796   3.522   5.413  1.5324  2.4536 -1.8022
  164MOL    H1732943   4.781   3.395   5.299  0.3002  0.5325 -0.8201
  164MOL    H1832944   4.553   3.462   5.399  1.0848 -0.3896  0.1192
  164MOL    H1932945   4.552   3.671   5.541  0.9979 -0.3435  0.0330
  164MOL    H2032946   4.705   3.708   5.471 -0.5265 -1.5013  2.9750
  164MOL    H2132947   4.586   3.832   5.468 -2.1732 -0.0925  0.1422
  164MOL    C2232948   4.523   3.480   5.195 -0.8986  0.1072  0.1780
  164MOL    C2332949   4.382   3.415   5.214  0.1510  0.4065 -0.2414
  164MOL    O2432950   4.383   3.306   5.311 -0.9031  0.1252 -0.1227
  164MOL    C2532951   4.458   3.196   5.262  0.5285 -0.0753  0.1283
  164MOL    H2632952   4.587   3.403   5.154  1.5783  0.8634  2.5020
  164MOL    H2732953   4.524   3.563   5.124 -1.1729  0.4323  0.5496
  164MOL    H2832954   4.347   3.375   5.119  0.4410  0.1585 -0.2458
  164MOL    H2932955   4.427   3.106   5.316 -1.2684  1.1289  1.1589
  164MOL    H3032956   4.438   3.169   5.159 -1.9724 -0.9086  0.7950
  164MOL    H3132957   4.563   3.211   5.287  0.5718  0.5151 -0.4116
  164MOL    C3232958   4.276   3.505   5.271 -0.4074 -0.1065  0.3634
  164MOL    C3332959   4.194   3.586   5.161  0.7185 -0.3450 -0.5312
  164MOL    O3432960   4.120   3.505   5.074  0.2914  0.0576  0.3295
  164MOL    C3532961   4.048   3.395   5.125 -0.0590  0.0405  0.3098
  164MOL    H3632962   4.337   3.565   5.338  0.7532  0.0927 -0.8670
  164MOL    H3732963   4.203   3.453   5.333 -0.5179  0.8301  1.0196
  164MOL    H3832964   4.256   3.645   5.094  0.9899  0.3271  0.2976
  164MOL    H3932965   4.007   3.422   5.222 -3.4760  1.1827 -1.3700
  164MOL    H4032966   3.969   3.378   5.052 -0.9466 -2.8484  1.8442
  164MOL    H4132967   4.105   3.304   5.145  1.4656  0.9606  0.2430
  164MOL    C4232968   4.098   3.683   5.227  0.1107  0.3502 -0.0726
  164MOL    C4332969   4.005   3.764   5.128 -0.3072 -0.8040 -0.2277
  164MOL    O4432970   3.888   3.814   5.195  0.1878  0.3916  0.4699
  164MOL    C4532971   3.915   3.911   5.295  0.3959  0.7646 -0.3375
  164MOL    H4632972   4.158   3.761   5.275  0.7728  0.4684 -1.0771
  164MOL    H4732973   4.042   3.625   5.299 -2.7638  3.4779  0.3672
  164MOL    H4832974   3.949   3.694   5.066 -1.2376 -0.7268  0.4972
  164MOL    H4932975   3.977   3.990   5.254 -0.1029  2.3009  1.7798
  164MOL    H5032976   3.819   3.956   5.318 -1.2751 -1.4563 -2.6235
  164MOL    H5132977   3.968   3.871   5.381 -1.4867  1.5218  1.2193
  164MOL    C5232978   4.064   3.870   5.028 -0.5350 -0.2996 -0.1649
  164MOL    C5332979   3.973   3.907   4.912 -0.4947 -0.1586  0.7901
  164MOL    O5432980   3.894   4.022   4.942  0.3279  0.3120 -0.3885
  164MOL    C5532981   3.755   3.993   4.973  0.0872 -0.2629  0.0798
  164MOL    H5632982   4.151   3.821   4.984 -0.0165  0.2311  0.2594
  164MOL    H5732983   4.096   3.957   5.086  0.6773 -1.2433  0.6114
  164MOL    H5832984   3.918   3.817   4.887  2.0082 -2.2221  2.4379
  164MOL    H5932985   3.732   3.916   5.047 -0.5826 -1.1925 -1.0870
  164MOL    H6032986   3.706   4.084   5.009 -2.7666 -1.7739  0.1814
  164MOL    H6132987   3.700   3.962   4.884  2.3299 -0.5667 -1.2165
  164MOL    C6232988   4.053   3.959   4.792 -0.4721 -0.0979 -0.0109
  164MOL    C6332989   3.979   4.006   4.669  0.5740 -0.3790  0.3809
  164MOL    O6432990   4.074   4.041   4.569  0.0149  0.2526 -0.5753
  164MOL    C6532991   4.154   4.155   4.582 -0.7262 -0.0484  0.1540
  164MOL    H6632992   4.129   3.889   4.757  0.6205  1.0773  0.0122
  164MOL    H6732993   4.105   4.044   4.835  0.2598 -0.4971 -0.0933
  164MOL    H6832994   3.920   4.093   4.699  0.5122 -0.6034  0.9239
  164MOL    H6932995   4.226   4.167   4.501  0.2287  0.0213  1.0018
  164MOL    H7032996   4.105   4.251   4.597  1.2132  0.8182  1.2432
  164MOL    H7132997   4.213   4.151   4.674  2.5500 -0.0684 -1.8558
  164MOL    C7232998   3.883   3.902   4.612  0.6541 -0.3581 -0.0094
  164MOL    C7332999   3.782   3.958   4.511 -0.1684 -0.2838  0.2682
  164MOL    O7433000   3.682   4.043   4.567  0.0243 -0.6868 -0.3989
  164MOL    C7533001   3.568   3.967   4.611  0.6357 -0.2880 -0.3386
  164MOL    H7633002   3.826   3.859   4.695 -2.0250  0.0239 -1.5999
  164MOL    H7733003   3.927   3.813   4.566  1.1157  0.6157 -1.4866
  164MOL    H7833004   3.734   3.870   4.469  1.3016  0.0403 -2.1833
  164MOL    H7933005   3.504   4.040   4.660  3.1937  0.5923  1.8500
  164MOL    H8033006   3.519   3.915   4.529  1.5343 -0.3924 -0.8230
  164MOL    H8133007   3.600   3.900   4.690  3.8629  1.5763  0.0236
  164MOL    C8233008   3.849   4.035   4.390 -0.6613  0.9928 -0.3431
  164MOL    C8333009   3.756   4.041   4.267 -0.2765 -0.5259 -0.1235
  164MOL    O8433010   3.805   4.135   4.166 -0.0238 -0.1166 -0.5005
  164MOL    C8533011   3.768   4.269   4.201 -0.2688  0.2268 -0.7344
  164MOL    H8633012   3.937   3.981   4.356  0.1385  2.2160 -0.2442
  164MOL    H8733013   3.872   4.138   4.420 -0.0530  0.3531  1.4953
  164MOL    H8833014   3.654   4.059   4.300  0.6815  1.5726  1.8256
  164MOL    H8933015   3.664   4.280   4.232 -0.4689  0.4211 -1.4697
  164MOL    H9033016   3.831   4.328   4.267  0.7799 -1.5487 -0.1269
  164MOL    H9133017   3.798   4.328   4.114  0.0391  1.0319 -0.0839
  164MOL    C9233018   3.735   3.918   4.189  0.5413  0.1736 -0.1783
  164MOL    C9333019   3.616   3.919   4.081 -0.4482  0.1426  0.1656
  164MOL    O9433020   3.634   3.821   3.980  0.1788  0.2805 -0.2911
  164MOL    C9533021   3.691   3.863   3.857 -0.4864 -0.0670 -0.5475
  164MOL    H9633022   3.712   3.839   4.260 -0.4407  1.3438  0.8426
  164MOL    H9733023   3.823   3.889   4.133  0.9507 -1.4076  1.2504
  164MOL    H9833024   3.602   4.018   4.037 -3.2911  0.5674  1.9542
  164MOL    H9933025   3.711   3.778   3.791 -0.2397  1.4378 -2.4459
  164MOL   H10033026   3.633   3.944   3.814 -1.0720  0.8896  2.0018
  164MOL   H10133027   3.788   3.903   3.887 -0.9275 -0.0241  0.8768
  164MOL   C10233028   3.474   3.883   4.150 -0.2838  0.4853 -0.5894
  164MOL   C10333029   3.356   3.876   4.057  0.2113 -0.4524 -0.6464
  164MOL   O10433030   3.243   3.840   4.145 -0.1148 -0.3541  0.7444
  164MOL   C10533031   3.197   3.708   4.130  0.6577  0.2929 -0.1302
  164MOL   H10633032   3.457   3.945   4.238  0.3424 -1.2939  0.8264
  164MOL   H10733033   3.470   3.780   4.186  0.2829 -0.1568 -2.3428
  164MOL   H10833034   3.390   3.809   3.978 -1.6676 -0.4629 -1.4513
  164MOL   H10933035   3.274   3.632   4.123  0.9264  0.4041  1.4024
  164MOL   H11033036   3.134   3.675   4.212 -0.7933  0.3869 -1.1971
  164MOL   H11133037   3.126   3.698   4.049  0.3381  0.8423  0.0779
  164MOL   C11233038   3.322   4.018   4.002  0.0313 -0.5733  0.2144
  164MOL   C11333039   3.203   4.029   3.905  0.3610 -0.5491  0.6347
  164MOL   O11433040   3.164   4.165   3.911 -0.2918 -0.3313 -0.2497
  164MOL   C11533041   3.038   4.194   3.866 -0.1661  0.0990 -0.1522
  164MOL   H11633042   3.404   4.071   3.954 -2.9274  2.5335 -1.5701
  164MOL   H11733043   3.297   4.078   4.090  0.0360  1.4228 -1.1213
  164MOL   H11833044   3.115   3.974   3.940  0.7185 -0.9749  0.8644
  164MOL   H11933045   3.040   4.224   3.761 -0.2246  0.7006  0.0148
  164MOL   H12033046   2.966   4.114   3.881 -0.8097  0.6862 -0.0501
  164MOL   H12133047   3.012   4.280   3.928 -1.4376 -0.8789  0.6971
  164MOL   C12233048   3.252   3.998   3.758  0.0694  0.5622 -0.0342
  164MOL   C12333049   3.152   3.914   3.676  0.0979 -0.0663 -0.5286
  164MOL   O12433050   3.215   3.908   3.544  0.2533 -0.4027 -0.4239
  164MOL   C12533051   3.163   3.992   3.443 -0.4966 -0.4390 -0.4021
  164MOL   H12633052   3.350   3.950   3.765 -0.1899  0.3051  2.1583
  164MOL   H12733053   3.267   4.089   3.700 -1.8175  0.7982 -0.1863
  164MOL   H12833054   3.059   3.969   3.660  1.3784  2.5900  0.8288
  164MOL   H12933055   3.062   3.958   3.419  0.2232 -2.1761 -1.0713
  164MOL   H13033056   3.165   4.098   3.468  0.6027 -1.2090  2.9210
  164MOL   H13133057   3.218   3.985   3.349 -1.9330  0.3157 -1.3141
  164MOL   C13233058   3.135   3.778   3.736  0.1725 -0.2464 -0.2621
  164MOL   C13333059   3.039   3.687   3.654  0.4490 -0.1572  0.3309
  164MOL   O13433060   3.063   3.554   3.705 -0.5690 -0.0529  0.2651
  164MOL   C13533061   3.166   3.486   3.639 -0.0185  0.4296  0.6451
  164MOL   H13633062   3.102   3.784   3.839 -0.4574  2.2125 -0.5892
  164MOL   H13733063   3.233   3.731   3.737  0.0372 -0.5161  2.3965
  164MOL   H13833064   3.058   3.691   3.547  1.0073 -0.3990  0.4187
  164MOL   H13933065   3.179   3.386   3.680  0.4384  0.1862 -0.0720
  164MOL   H14033066   3.146   3.484   3.532  2.4301 -4.4550  0.1673
  164MOL   H14133067   3.264   3.535   3.639  0.0960  0.2615 -1.9174
  164MOL   C14233068   2.886   3.712   3.675 -1.1908  0.3284 -0.8257
  164MOL   C14333069   2.792   3.657   3.575  0.0929  0.1341  0.3304
  164MOL   O14433070   2.657   3.670   3.629  0.0578  0.2511  0.1985
  164MOL   C14533071   2.552   3.606   3.562 -0.2788 -0.3794 -0.1878
  164MOL   H14633072   2.863   3.819   3.666 -1.3176  0.3520 -0.2714
  164MOL   H14733073   2.845   3.684   3.773  0.3485  0.5622 -0.1006
  164MOL   H14833074   2.808   3.549   3.567  3.7151  0.6742 -0.2043
  164MOL   H14933075   2.460   3.588   3.617 -1.0578  1.1694 -0.9468
  164MOL   H15033076   2.516   3.675   3.485 -0.2932 -1.0492 -0.7850
  164MOL   H15133077   2.585   3.509   3.525 -0.6333 -1.2126  1.5938
  164MOL   C15233078   2.805   3.716   3.428 -0.5175  0.8287 -0.2780
  164MOL   C15333079   2.744   3.641   3.302 -0.4639 -0.2192  0.7140
  164MOL   O15433080   2.647   3.728   3.236  0.3551 -0.3832 -0.0600
  164MOL   C15533081   2.567   3.659   3.143  0.5276 -0.1435  0.1037
  164MOL   H15633082   2.911   3.735   3.414 -0.6965  0.4573 -2.2739
  164MOL   H15733083   2.771   3.820   3.427 -0.3642  0.8797 -0.2009
  164MOL   H15833084   2.673   3.570   3.345  0.6310 -1.3344  0.6991
  164MOL   H15933085   2.522   3.572   3.189 -1.7653  0.0818 -1.5998
  164MOL   H16033086   2.501   3.737   3.107 -1.2940 -1.3924  0.6652
  164MOL   H16133087   2.620   3.629   3.052  1.5337 -0.0359  0.6463
  164MOL   C16233088   2.839   3.580   3.206 -0.4076 -0.0837  0.4505
  164MOL   C16333089   2.941   3.475   3.266  0.3636  0.0802 -0.1648
  164MOL   O16433090   2.855   3.364   3.306 -0.5474 -0.0551  0.0277
  164MOL   C16533091   2.914   3.282   3.412  0.1563 -0.2521 -0.3180
  164MOL   H16633092   2.902   3.657   3.161 -1.1471 -1.2488 -2.6875
  164MOL   H16733093   2.800   3.529   3.118  0.2781 -0.1962  0.2076
  164MOL   H16833094   2.995   3.507   3.355 -0.2148  0.1889  0.1483
  164MOL   H16933095   2.837   3.207   3.429  0.4794 -0.8493 -1.4543
  164MOL   H17033096   3.008   3.238   3.382  0.0805 -0.9093  0.3884
  164MOL   H17133097   2.929   3.332   3.508  1.3100 -0.3063 -0.4717
  164MOL   C17233098   3.045   3.424   3.163  0.4055  0.2234  0.3593
  164MOL   C17333099   3.167   3.515   3.153 -0.2384  0.1216  0.0988
  164MOL   O17433100   3.246   3.509   3.270 -0.0276  0.5606  0.1650
  164MOL   C17533101   3.301   3.631   3.317  0.1304  0.2005 -0.3648
  164MOL   H17633102   3.002   3.426   3.063  0.4248  2.3170  0.3753
  164MOL   H17733103   3.064   3.318   3.180  0.5669  0.0957 -0.6021
  164MOL   H17833104   3.127   3.614   3.133  1.1576  0.8962  1.1395
  164MOL   H17933105   3.360   3.591   3.399 -1.0611  0.3840  0.6017
  164MOL   H18033106   3.352   3.684   3.237  0.3538  0.3117 -0.1479
  164MOL   H18133107   3.222   3.697   3.354 -1.6886 -1.7309 -0.6952
  164MOL   C18233108   3.262   3.482   3.034  0.1880  0.2033 -0.0102
  164MOL   C18333109   3.219   3.514   2.889  0.3129  0.0934 -0.1397
  164MOL   O18433110   3.183   3.647   2.878 -0.4674  0.4539  0.3560
  164MOL   C18533111   3.070   3.661   2.800  0.1591  0.1440  0.3085
  164MOL   H18633112   3.285   3.376   3.045  1.7727  0.7388  2.2612
  164MOL   H18733113   3.352   3.538   3.059 -0.7524  0.7536  2.3531
  164MOL   H18833114   3.142   3.445   2.858 -1.7530  2.7975 -1.2212
  164MOL   H18933115   3.053   3.767   2.780  1.8885  0.5505  0.9153
  164MOL   H19033116   3.088   3.597   2.713 -1.9497 -1.3922  0.9493
  164MOL   H19133117   2.991   3.625   2.866  0.7460 -0.6565  0.5801
  164MOL   C19233118   3.342   3.483   2.804 -0.1073 -0.1813  0.2719
  164MOL   C19333119   3.340   3.530   2.657 -0.4103 -0.3095 -0.5617
  164MOL   O19433120   3.463   3.473   2.596  1.0749  0.6851  0.0904
  164MOL   C19533121   3.440   3.436   2.461 -0.2411  0.7483 -0.7319
  164MOL   H19633122   3.369   3.378   2.809  1.6994  0.2590  0.2740
  164MOL   H19733123   3.429   3.532   2.848  0.4260 -0.1180 -0.8472
  164MOL   H19833124   3.331   3.639   2.651  0.7401 -0.0781  1.5103
  164MOL   H19933125   3.350   3.377   2.447  0.7368 -1.1491  0.6163
  164MOL   H20033126   3.447   3.521   2.394 -0.1718  1.3376  0.0183
  164MOL   H20133127   3.524   3.369   2.437  1.4215  2.3999  0.3314
  164MOL   H20233128   3.250   3.479   2.623 -0.0940 -1.7088  0.6917
  165MOL     C133129   2.363   7.024   3.538  0.3338 -0.6961  0.0328
  165MOL     C233130   2.495   7.041   3.459 -0.4639  0.2790  0.3901
  165MOL     O333131   2.510   6.927   3.375 -0.3285  0.4229 -0.3620
  165MOL     C433132   2.595   6.828   3.422 -0.2891  0.5069 -0.8509
  165MOL     H533133   2.277   7.065   3.487 -0.5682 -1.4644  0.9120
  165MOL     H633134   2.351   6.917   3.553 -1.0014 -0.5813 -0.1804
  165MOL     H733135   2.580   7.045   3.527 -1.0743  1.7722  1.1077
  165MOL     H833136   2.690   6.861   3.465  0.0111 -1.4101  0.0007
  165MOL     H933137   2.545   6.782   3.507 -1.6823  2.2110 -0.6983
  165MOL    H1033138   2.611   6.754   3.344  0.0637  0.7487 -1.0055
  165MOL    H1133139   2.376   7.079   3.632 -0.1882  0.3721 -0.5087
  165MOL    C1233140   2.482   7.153   3.353  0.4658 -0.8644  0.8634
  165MOL    C1333141   2.512   7.295   3.408  0.0719 -0.1035  0.3643
  165MOL    O1433142   2.648   7.300   3.428  0.3708 -0.3315 -0.5596
  165MOL    C1533143   2.691   7.323   3.564  0.1335 -0.7508  0.4214
  165MOL    H1633144   2.381   7.153   3.314 -0.5288  1.6879  3.3006
  165MOL    H1733145   2.558   7.143   3.275 -0.3170 -0.0616  0.0023
  165MOL    H1833146   2.464   7.308   3.505  0.2338 -0.5680  0.5120
  165MOL    H1933147   2.664   7.249   3.639 -2.7206 -0.5177 -0.3125
  165MOL    H2033148   2.799   7.321   3.551  0.2894 -2.4929  1.8835
  165MOL    H2133149   2.657   7.423   3.589  0.8879  0.1730 -2.0449
  165MOL    C2233150   2.480   7.408   3.317  0.0044 -0.8213 -0.1097
  165MOL    C2333151   2.332   7.438   3.293 -0.0231 -0.2605 -0.0369
  165MOL    O2433152   2.289   7.515   3.410 -0.2459 -0.1454 -0.0602
  165MOL    C2533153   2.154   7.541   3.426 -0.4496 -0.0361  0.4289
  165MOL    H2633154   2.525   7.374   3.223 -0.2755 -0.9090 -0.2102
  165MOL    H2733155   2.533   7.500   3.342 -0.9610 -0.4927  0.7626
  165MOL    H2833156   2.275   7.346   3.275 -0.3420 -0.2162  0.7533
  165MOL    H2933157   2.148   7.597   3.519  3.1807  0.5095  0.4002
  165MOL    H3033158   2.119   7.619   3.358  0.1908  1.1964  1.5009
  165MOL    H3133159   2.085   7.457   3.428  0.2890 -0.6798 -0.7427
  165MOL    C3233160   2.308   7.532   3.176 -0.3321 -0.2588  0.2410
  165MOL    C3333161   2.363   7.483   3.038 -0.9525  0.0682  0.3733
  165MOL    O3433162   2.309   7.350   3.023  0.2294  0.1857 -0.5120
  165MOL    C3533163   2.399   7.263   2.959  0.1714  0.2531 -0.1284
  165MOL    H3633164   2.357   7.625   3.204 -0.7956 -0.1005  0.5129
  165MOL    H3733165   2.204   7.560   3.158  0.4385  1.6852 -1.4469
  165MOL    H3833166   2.472   7.478   3.047 -0.4574  1.8028 -3.4763
  165MOL    H3933167   2.464   7.224   3.037 -0.3576  3.1100  1.7854
  165MOL    H4033168   2.349   7.179   2.910 -1.2864  0.0621  1.6487
  165MOL    H4133169   2.459   7.311   2.882 -1.9820  0.7850 -1.5133
  165MOL    C4233170   2.333   7.577   2.913  0.2658  0.6310 -0.2601
  165MOL    C4333171   2.416   7.710   2.931 -0.2373 -0.3347 -0.3081
  165MOL    O4433172   2.552   7.674   2.939 -0.4349  0.8096 -0.0456
  165MOL    C4533173   2.621   7.757   3.029 -0.0716  0.0305  0.0269
  165MOL    H4633174   2.229   7.610   2.918  0.1412  0.3243 -0.8843
  165MOL    H4733175   2.353   7.523   2.821 -0.0640  0.1307 -0.0367
  165MOL    H4833176   2.385   7.759   3.023 -0.1246 -0.2538 -0.3139
  165MOL    H4933177   2.575   7.741   3.126  0.2648  1.4844  0.4272
  165MOL    H5033178   2.725   7.731   3.047  0.5933  2.5741 -0.0055
  165MOL    H5133179   2.623   0.050   2.995  3.4904  0.1390  0.3294
  165MOL    C5233180   2.397   7.803   2.804  0.5909 -0.1950 -0.3465
  165MOL    C5333181   2.290   0.105   2.807 -0.1856  0.3794 -0.0720
  165MOL    O5433182   2.337   0.191   2.706  0.5061 -0.2819 -0.0218
  165MOL    C5533183   2.345   0.320   2.760  0.5735 -0.1293  0.3873
  165MOL    H5633184   2.387   7.743   2.714 -0.4993  0.7718 -0.8864
  165MOL    H5733185   2.496   0.033   2.782  0.4422  0.4321  0.1532
  165MOL    H5833186   2.298   0.147   2.908  2.7837 -0.9044  0.2930
  165MOL    H5933187   2.425   0.339   2.832  0.2598  1.5920  0.3110
  165MOL    H6033188   2.381   0.386   2.681  0.1532  0.5121  0.7279
  165MOL    H6133189   2.254   0.361   2.804  0.7791  1.4277 -0.5686
  165MOL    C6233190   2.149   0.052   2.765  0.1568 -0.3027  0.4321
  165MOL    C6333191   2.025   0.158   2.763  1.0330  0.8000  0.6351
  165MOL    O6433192   1.958   0.134   2.644 -0.4886  0.3264 -0.3130
  165MOL    C6533193   2.006   0.211   2.538  0.1411 -0.2197  0.0430
  165MOL    H6633194   2.112   7.776   2.820  0.2121 -0.8444 -0.3797
  165MOL    H6733195   2.168   0.032   2.659 -0.9085 -0.9478  0.3622
  165MOL    H6833196   2.055   0.262   2.767  1.4219  0.7470 -0.5940
  165MOL    H6933197   1.965   0.180   2.442  1.3017 -1.0625 -0.1886
  165MOL    H7033198   1.986   0.318   2.545 -1.1429 -0.3253 -1.6137
  165MOL    H7133199   2.113   0.215   2.520  0.3861 -1.3952  1.1737
  165MOL    C7233200   1.928   0.136   2.882  0.6184  0.3104 -0.4109
  165MOL    C7333201   1.990   0.118   3.026 -0.7538 -0.3002  0.7161
  165MOL    O7433202   2.057   0.242   3.048 -0.0791  0.1338 -0.1919
  165MOL    C7533203   2.166   0.232   3.146  0.3801  0.7179  0.6156
  165MOL    H7633204   1.856   0.057   2.861  1.1949 -0.5535  0.8480
  165MOL    H7733205   1.851   0.213   2.890 -0.1348 -0.4816  0.0695
  165MOL    H7833206   2.073   0.048   3.027 -0.2976  0.2423  0.8828
  165MOL    H7933207   2.208   0.332   3.158  1.2805  0.3132  0.8944
  165MOL    H8033208   2.131   0.206   3.245  0.3396  0.0144  0.4164
  165MOL    H8133209   2.239   0.157   3.114 -0.1347 -0.1651  1.4993
  165MOL    C8233210   1.884   0.096   3.135 -0.3059 -0.2970  0.0876
  165MOL    C8333211   1.821   7.772   3.135 -0.2646 -0.1211 -0.3658
  165MOL    O8433212   1.914   7.669   3.162 -0.0098  0.1195 -0.1042
  165MOL    C8533213   1.896   7.552   3.075  0.4506 -0.1584  0.3790
  165MOL    H8633214   1.812   0.179   3.133  1.9528  1.6988 -2.2315
  165MOL    H8733215   1.923   0.118   3.234 -1.0316 -2.9494  1.0066
  165MOL    H8833216   1.782   7.755   3.035  0.6939 -1.4329 -0.5199
  165MOL    H8933217   1.789   7.534   3.063  0.6394  0.9837 -3.4008
  165MOL    H9033218   1.930   7.575   2.974  0.5616 -2.0815 -0.0494
  165MOL    H9133219   1.929   7.460   3.123 -0.2559  0.2478  1.6742
  165MOL    C9233220   1.714   7.751   3.237 -0.4364 -0.8642 -0.3404
  165MOL    C9333221   1.585   0.026   3.209  0.2528 -0.7635  0.5585
  165MOL    O9433222   1.539   7.774   3.094 -0.0709 -0.2777  0.5001
  165MOL    C9533223   1.535   0.049   2.979  0.6841 -0.6877 -0.2447
  165MOL    H9633224   1.765   7.773   3.330 -0.4713 -1.2921 -0.2195
  165MOL    H9733225   1.687   7.647   3.255 -4.4116  0.2803  1.0171
  165MOL    H9833226   1.611   0.130   3.190  1.3502 -0.8814  1.3560
  165MOL    H9933227   1.633   0.090   2.955  0.4251  0.3011  0.3322
  165MOL   H10033228   1.497   7.793   2.903 -0.1478  0.2066 -0.6247
  165MOL   H10133229   1.466   0.133   2.985  0.6818 -0.6678 -0.5464
  165MOL   C10233230   1.482   0.015   3.319  0.9773 -0.0932 -0.3164
  165MOL   C10333231   1.523   0.068   3.453 -0.7941 -0.0607 -0.5165
  165MOL   O10433232   1.449   0.182   3.481  0.3127 -0.4002 -0.2041
  165MOL   C10533233   1.506   0.288   3.549  0.4329  0.4573  0.2976
  165MOL   H10633234   1.451   7.722   3.330  0.8687 -0.1410 -1.0386
  165MOL   H10733235   1.389   0.061   3.288  0.8820 -0.1858 -0.1636
  165MOL   H10833236   1.628   0.098   3.448  0.1261 -2.7773  1.4068
  165MOL   H10933237   1.540   0.252   3.646  0.7489 -3.3016 -1.1276
  165MOL   H11033238   1.595   0.332   3.504  0.9492  0.9558  1.7772
  165MOL   H11133239   1.429   0.363   3.567 -0.3739 -1.2536  4.4417
  165MOL   C11233240   1.509   7.783   3.577  0.1714 -0.0114 -0.0012
  165MOL   C11333241   1.598   7.652   3.567 -0.2146 -0.1866  0.4661
  165MOL   O11433242   1.729   7.678   3.610  0.0781  0.0604  0.5443
  165MOL   C11533243   1.818   7.575   3.565  0.6082  0.1615  0.2235
  165MOL   H11633244   1.401   7.773   3.593  0.1029 -0.0613 -0.4990
  165MOL   H11733245   1.542   0.017   3.671  0.3779  0.9639 -0.5329
  165MOL   H11833246   1.593   7.617   3.464 -0.1803 -2.1574  1.1136
  165MOL   H11933247   1.824   7.551   3.459  0.3064  1.2982 -0.0628
  165MOL   H12033248   1.917   7.604   3.599  0.0811  1.1085  0.9931
  165MOL   H12133249   1.809   7.479   3.616 -0.9378  0.9346  1.4522
  165MOL   C12233250   1.532   7.538   3.644 -0.6999  0.0816 -0.1362
  165MOL   C12333251   1.396   7.485   3.590 -0.1666 -0.1697  0.9456
  165MOL   O12433252   1.424   7.411   3.468  0.2847  0.0170 -0.0239
  165MOL   C12533253   1.317   7.402   3.376 -0.9056  0.0768  0.2416
  165MOL   H12633254   1.516   7.588   3.740  2.6017  0.1789  0.4412
  165MOL   H12733255   1.597   7.454   3.668 -1.8682 -0.3330  1.5902
  165MOL   H12833256   1.328   7.568   3.568 -0.9654 -1.3112 -0.9801
  165MOL   H12933257   1.357   7.363   3.283 -1.0229  0.2691  0.1121
  165MOL   H13033258   1.234   7.341   3.411 -1.8136 -0.0205 -2.0003
  165MOL   H13133259   1.288   7.504   3.351 -3.2481  0.2011  3.0943
  165MOL   C13233260   1.318   7.401   3.690  0.4833  0.4731 -0.8875
  165MOL   C13333261   1.168   7.424   3.695 -0.2164  0.1583 -0.1545
  165MOL   O13433262   1.114   7.329   3.788  0.6118 -0.8851 -0.4132
  165MOL   C13533263   0.996   7.264   3.748 -0.4109 -0.0595 -0.1429
  165MOL   H13633264   1.363   7.400   3.789 -1.6556  0.6507  0.1142
  165MOL   H13733265   1.329   7.298   3.654 -2.1626 -0.1928  0.0795
  165MOL   H13833266   1.124   7.407   3.598 -0.3729  0.7640 -0.1906
  165MOL   H13933267   0.941   7.215   3.829 -0.2351 -0.4411 -0.2539
  165MOL   H14033268   0.928   7.338   3.705  0.7148  0.1220 -1.6244
  165MOL   H14133269   1.018   7.187   3.675  0.3211  0.7224 -0.7545
  165MOL   C14233270   1.130   7.569   3.744 -0.6306 -0.2246 -0.4133
  165MOL   C14333271   1.163   7.617   3.887  0.2114 -0.4052 -0.3258
  165MOL   O14433272   1.281   7.688   3.860 -0.6335  0.4077  0.6408
  165MOL   C14533273   1.348   7.728   3.974 -0.0047  0.4788 -0.2869
  165MOL   H14633274   1.021   7.576   3.735 -0.6123  1.0614  0.2507
  165MOL   H14733275   1.167   7.647   3.679  0.9253 -1.4294 -1.0176
  165MOL   H14833276   1.171   7.534   3.958 -0.6086  0.2157  0.5041
  165MOL   H14933277   1.304   7.801   4.041 -2.6177 -2.6255  1.5213
  165MOL   H15033278   1.366   7.637   4.032 -1.1227  1.1482  1.1188
  165MOL   H15133279   1.450   7.760   3.952  1.7500 -3.5886  1.3638
  165MOL   C15233280   1.049   7.698   3.953 -0.5104 -0.2751 -0.0890
  165MOL   C15333281   0.968   0.000   3.872 -0.2120  0.7334  0.4650
  165MOL   O15433282   0.851   0.038   3.942 -0.4730  0.0665 -0.2936
  165MOL   C15533283   0.748   7.753   3.916 -0.2192 -0.3542 -0.4431
  165MOL   H15633284   1.085   7.737   4.048 -1.0545 -3.2900  1.4184
  165MOL   H15733285   0.973   7.623   3.977 -0.2585  0.5437  3.5646
  165MOL   H15833286   0.937   7.779   3.773  0.1787  2.9822 -0.4179
  165MOL   H15933287   0.675   7.763   3.996 -0.0600  1.6382 -0.5132
  165MOL   H16033288   0.703   7.763   3.817  1.2479  0.0366 -1.0824
  165MOL   H16133289   0.772   7.647   3.924 -1.6011 -0.5774  1.0686
  165MOL   C16233290   1.053   0.120   3.851  0.0551  0.2415  0.1561
  165MOL   C16333291   1.020   0.205   3.722 -0.6917 -0.5656 -0.3599
  165MOL   O16433292   1.026   0.138   3.595 -0.1947  0.0514 -0.0451
  165MOL   C16533293   1.152   0.099   3.541  0.1104 -0.6353 -0.5160
  165MOL   H16633294   1.153   0.081   3.829 -0.3934  0.5981 -2.7902
  165MOL   H16733295   1.053   0.175   3.944 -0.7248 -1.7330  1.3627
  165MOL   H16833296   1.095   0.280   3.699  0.2967 -0.9114  1.6394
  165MOL   H16933297   1.200   0.032   3.613  1.5145  3.5148  2.6035
  165MOL   H17033298   1.146   0.042   3.449 -2.0610 -0.4759 -0.4963
  165MOL   H17133299   1.214   0.187   3.527  1.0817 -0.8792  2.0014
  165MOL   C17233300   0.893   0.282   3.732 -0.5840  0.1632  0.0222
  165MOL   C17333301   0.876   0.390   3.614 -0.3412  0.0959  0.3076
  165MOL   O17433302   0.742   0.424   3.597 -0.1821 -0.5454  0.9438
  165MOL   C17533303   0.663   0.323   3.530  0.1893 -0.2763 -0.4939
  165MOL   H17633304   0.888   0.334   3.828  0.9064  1.5912 -0.6442
  165MOL   H17733305   0.807   0.216   3.744 -1.0474  0.6233 -0.7478
  165MOL   H17833306   0.913   0.343   3.523 -1.1275  0.6831 -0.3283
  165MOL   H17933307   0.629   0.252   3.605  2.3074 -1.2385 -0.4004
  165MOL   H18033308   0.575   0.368   3.484  1.6213  0.3238 -2.6928
  165MOL   H18133309   0.701   0.282   3.437  1.2521  1.8218 -1.0056
  165MOL   C18233310   0.962   0.520   3.642 -0.0125  0.3354  0.0162
  165MOL   C18333311   0.997   0.610   3.521 -0.2083 -0.5783 -0.2858
  165MOL   O18433312   1.072   0.523   3.432 -0.5309 -0.7603  0.0341
  165MOL   C18533313   1.215   0.533   3.437  0.0802 -0.3599 -0.2210
  165MOL   H18633314   1.055   0.500   3.695 -1.2970 -0.1734  2.1404
  165MOL   H18733315   0.911   0.583   3.716 -0.1777 -0.0925  0.2675
  165MOL   H18833316   1.066   0.679   3.569 -2.0790  1.4100 -0.4219
  165MOL   H18933317   1.246   0.626   3.485  0.8533  0.2709 -1.8898
  165MOL   H19033318   1.251   0.449   3.496 -2.5410 -0.3928  1.4121
  165MOL   H19133319   1.253   0.538   3.335  0.4870  0.7208 -0.0181
  165MOL   C19233320   0.871   0.668   3.458  0.2500  0.3938 -0.6077
  165MOL   C19333321   0.896   0.781   3.361 -1.0629  0.2505  0.7362
  165MOL   O19433322   0.769   0.844   3.327  0.3124 -0.0841  0.4194
  165MOL   C19533323   0.777   0.917   3.202  0.2908  0.5382 -0.7625
  165MOL   H19633324   0.794   0.701   3.527  1.7535  0.3494  1.1404
  165MOL   H19733325   0.822   0.589   3.402 -0.1911 -0.6836  1.2585
  165MOL   H19833326   0.943   0.753   3.267 -2.0146  0.6590  0.1236
  165MOL   H19933327   0.796   0.844   3.124 -0.9943 -0.0466 -0.5329
  165MOL   H20033328   0.682   0.967   3.182  1.0151  2.5254  0.5763
  165MOL   H20133329   0.856   0.992   3.200  0.3358  0.4864 -0.9728
  165MOL   H20233330   0.957   0.863   3.399 -0.7725  1.3527 -2.0022
  166MOL     C133331   7.321   3.482   3.729 -0.6444 -0.0304  0.3786
  166MOL     C233332   7.256   3.614   3.696 -0.6987  0.1339  0.7758
  166MOL     O333333   7.320   3.666   3.575 -0.0232 -0.6899  0.1476
  166MOL     C433334   7.453   3.720   3.599  0.4434  0.1139 -0.4155
  166MOL     H533335   7.257   3.419   3.791  1.2498 -0.1820  2.2353
  166MOL     H633336   7.347   3.421   3.643 -0.4021  0.0774  0.3720
  166MOL     H733337   7.278   3.693   3.767  0.1226 -0.6485  1.4016
  166MOL     H833338   7.528   3.652   3.559 -0.1614 -0.8355  0.0295
  166MOL     H933339   7.463   3.806   3.532  2.5782 -0.7152 -1.2072
  166MOL    H1033340   7.480   3.740   3.703  3.1571 -3.3285 -0.3571
  166MOL    H1133341   7.415   3.485   3.785 -0.2713 -0.4242 -0.2248
  166MOL    C1233342   7.103   3.598   3.685  0.3603 -0.6376 -0.2311
  166MOL    C1333343   7.027   3.727   3.634  0.5395  0.4482 -0.1279
  166MOL    O1433344   6.886   3.717   3.631 -0.0599 -0.0874  0.2141
  166MOL    C1533345   6.835   3.799   3.530 -0.4925  0.0907 -0.0706
  166MOL    H1633346   7.055   3.576   3.780 -1.3163  1.9663 -0.4217
  166MOL    H1733347   7.071   3.525   3.610  0.4317 -0.1147 -0.7770
  166MOL    H1833348   7.069   3.732   3.533  0.6007  0.6333 -0.0933
  166MOL    H1933349   6.729   3.817   3.548 -0.3428 -0.3470  1.3509
  166MOL    H2033350   6.877   3.900   3.531  0.1356 -0.1671  0.5425
  166MOL    H2133351   6.843   3.745   3.436  1.7654  0.5791 -0.1893
  166MOL    C2233352   7.052   3.846   3.733  0.5699  0.2071  0.0173
  166MOL    C2333353   7.165   3.947   3.701 -0.3288 -0.0359  0.6478
  166MOL    O2433354   7.117   4.026   3.595 -0.2804 -0.0040 -0.5055
  166MOL    C2533355   7.222   4.065   3.506 -0.3002  0.3332  0.2798
  166MOL    H2633356   7.062   3.806   3.834  0.1328  1.2782  0.4914
  166MOL    H2733357   6.961   3.904   3.747  0.0216 -0.6825  0.1603
  166MOL    H2833358   7.254   3.893   3.668 -1.4134 -1.7092  0.4023
  166MOL    H2933359   7.208   4.172   3.496 -0.7694  0.0695 -2.2035
  166MOL    H3033360   7.327   4.052   3.531 -0.1107 -0.1477 -0.7376
  166MOL    H3133361   7.207   4.045   3.400  1.8987  2.1314 -0.4029
  166MOL    C3233362   7.197   4.039   3.819  0.9153 -0.6830 -0.0079
  166MOL    C3333363   7.246   3.980   3.960 -0.4144  0.2026 -0.2441
  166MOL    O3433364   7.375   3.938   3.941 -0.4710  0.0052  0.6260
  166MOL    C3533365   7.411   3.815   4.005 -0.7586  0.9017 -0.6004
  166MOL    H3633366   7.104   4.096   3.828  2.0505  1.3646 -0.7289
  166MOL    H3733367   7.269   4.116   3.791 -0.6235  0.3455 -1.2892
  166MOL    H3833368   7.173   3.906   3.992  0.2240 -0.9219 -1.3359
  166MOL    H3933369   7.412   3.814   4.114 -2.5278 -0.6611 -0.5831
  166MOL    H4033370   7.361   3.728   3.963  1.4740 -1.3663  1.2789
  166MOL    H4133371   7.511   3.789   3.968 -0.8819 -0.7341  0.1641
  166MOL    C4233372   7.245   4.087   4.072  0.0472 -0.3797  0.1832
  166MOL    C4333373   7.127   4.185   4.089 -0.1285  0.4560  1.0253
  166MOL    O4433374   7.028   4.109   4.162 -0.4625  0.0771 -0.1029
  166MOL    C4533375   6.895   4.131   4.121 -0.6913  0.5557 -0.0038
  166MOL    H4633376   7.333   4.150   4.085 -0.3669  0.0681  0.8763
  166MOL    H4733377   7.258   4.039   4.170  1.5812 -2.0557 -0.8057
  166MOL    H4833378   7.080   4.218   3.996 -0.2122  1.4025  1.4047
  166MOL    H4933379   6.813   4.088   4.180  0.2462 -0.1366  0.8077
  166MOL    H5033380   6.880   4.239   4.117 -2.0264  0.5393  2.7614
  166MOL    H5133381   6.900   4.094   4.019 -1.3796 -0.6228  0.3782
  166MOL    C5233382   7.161   4.320   4.158 -0.9701 -0.9281 -0.0588
  166MOL    C5333383   7.204   4.423   4.053  0.5885 -0.7039  0.6414
  166MOL    O5433384   7.089   4.464   3.976 -0.4688  0.5796  0.6048
  166MOL    C5533385   7.107   4.450   3.838 -0.3882 -0.0556  0.2775
  166MOL    H5633386   7.235   4.310   4.237  0.4727 -0.0343 -1.2722
  166MOL    H5733387   7.075   4.363   4.210 -1.7714  0.0125 -2.1113
  166MOL    H5833388   7.284   4.373   3.997 -0.9743 -0.6799 -1.7004
  166MOL    H5933389   7.016   4.505   3.811 -0.8901 -0.2087  1.6489
  166MOL    H6033390   7.191   4.499   3.788 -0.2501  0.9611  1.4973
  166MOL    H6133391   7.098   4.346   3.805  2.4934 -0.5521  0.9612
  166MOL    C6233392   7.252   4.547   4.123  0.4449 -0.3416  0.4681
  166MOL    C6333393   7.406   4.522   4.157 -0.3755  0.9063  0.5038
  166MOL    O6433394   7.486   4.511   4.040  0.5755  0.5879 -0.4095
  166MOL    C6533395   7.583   4.404   4.052 -0.3779 -0.1273  0.0095
  166MOL    H6633396   7.186   4.561   4.208 -0.6906 -0.8535 -0.3130
  166MOL    H6733397   7.239   4.621   4.043  1.5664 -2.8559 -2.1381
  166MOL    H6833398   7.412   4.433   4.220 -0.6252  0.5868  0.0788
  166MOL    H6933399   7.533   4.308   4.070  2.2709 -1.5377  0.0126
  166MOL    H7033400   7.646   4.389   3.964  0.9465 -0.4166  1.0033
  166MOL    H7133401   7.645   4.423   4.139 -0.1283  0.4019 -0.2835
  166MOL    C7233402   7.453   4.642   4.242  0.4280 -0.8397 -0.1589
  166MOL    C7333403   7.370   4.695   4.362  0.2040  0.7718 -0.0730
  166MOL    O7433404   7.340   4.584   4.455  0.1672 -0.0878  0.3375
  166MOL    C7533405   7.244   4.611   4.552 -0.0171 -1.0873 -0.8173
  166MOL    H7633406   7.470   4.727   4.176 -0.5517  0.3564  1.1173
  166MOL    H7733407   7.554   4.616   4.275  0.5806  1.8747  1.6468
  166MOL    H7833408   7.273   4.741   4.342 -0.1890  1.2369  2.7485
  166MOL    H7933409   7.248   4.534   4.629 -2.5401  1.2070  1.7413
  166MOL    H8033410   7.273   4.690   4.621 -0.9406 -1.4579 -0.0030
  166MOL    H8133411   7.142   4.615   4.515 -1.4704  0.0745  3.0830
  166MOL    C8233412   7.447   4.807   4.441 -0.0118  0.2744  0.0128
  166MOL    C8333413   7.471   4.938   4.361 -0.4925  0.1944 -0.1072
  166MOL    O8433414   7.346   4.987   4.310 -0.6267  0.0321  0.7762
  166MOL    C8533415   7.326   5.002   4.168 -0.0200  0.0674  0.1487
  166MOL    H8633416   7.540   4.766   4.482 -0.6249  0.2169  1.3770
  166MOL    H8733417   7.391   4.823   4.533  0.2347  1.0451  0.0298
  166MOL    H8833418   7.543   4.917   4.282  0.5267 -0.2598  0.9334
  166MOL    H8933419   7.414   5.054   4.129  0.9333  0.3732  2.6386
  166MOL    H9033420   7.304   4.904   4.126  0.6789 -0.9087  1.9824
  166MOL    H9133421   7.236   5.062   4.156 -1.5488 -2.1318  0.4311
  166MOL    C9233422   7.517   5.046   4.459  0.2593 -0.3757  0.0382
  166MOL    C9333423   7.664   5.058   4.483 -0.0211 -0.2970 -0.2659
  166MOL    O9433424   7.723   5.086   4.354 -0.5069 -0.2459  0.4673
  166MOL    C9533425   0.054   5.082   4.347 -0.1627 -1.0080  0.1011
  166MOL    H9633426   7.462   5.028   4.552  0.5774 -0.4705  0.2069
  166MOL    H9733427   7.505   5.136   4.399  0.2007  0.5665  1.4484
  166MOL    H9833428   7.704   4.966   4.525 -2.2261 -0.7870  0.7978
  166MOL    H9933429   0.086   5.066   4.244  1.1447  1.8372  0.0058
  166MOL   H10033430   0.104   5.171   4.385 -0.5125 -0.1887 -1.3104
  166MOL   H10133431   0.091   4.998   4.405 -0.9407 -0.8668  0.8034
  166MOL   C10233432   7.707   5.174   4.583 -0.0907  0.8383 -0.3238
  166MOL   C10333433   7.645   5.144   4.724 -0.4392 -0.0369  0.3224
  166MOL   O10433434   7.695   5.015   4.774 -0.1954 -0.1798  0.5700
  166MOL   C10533435   7.596   4.965   4.865  0.3099 -0.4144 -0.1766
  166MOL   H10633436   7.666   5.265   4.538  0.4851  0.7932 -0.9605
  166MOL   H10733437   0.005   5.181   4.594 -0.3854  1.2336  2.7512
  166MOL   H10833438   7.537   5.143   4.707 -0.3772  2.9326 -0.5353
  166MOL   H10933439   7.493   4.984   4.833  0.8195  0.3137 -1.4196
  166MOL   H11033440   7.609   4.858   4.879  0.7689 -0.3266  0.0752
  166MOL   H11133441   7.601   5.009   4.964  1.8223  1.6996 -1.1492
  166MOL   C11233442   7.675   5.267   4.821  0.1953 -0.0230 -0.1429
  166MOL   C11333443   7.621   5.404   4.781  0.0780 -0.3804  0.1258
  166MOL   O11433444   7.483   5.388   4.756 -0.0818 -0.3616  0.1456
  166MOL   C11533445   7.426   5.440   4.643 -0.7870  0.5094 -0.0825
  166MOL   H11633446   7.781   5.286   4.835  0.5387 -0.0003 -2.5322
  166MOL   H11733447   7.647   5.241   4.923 -1.8551  1.8462 -0.1732
  166MOL   H11833448   7.678   5.427   4.691 -1.6858  1.4217 -0.5499
  166MOL   H11933449   7.437   5.548   4.646 -0.6361  0.4468  1.9986
  166MOL   H12033450   7.488   5.404   4.560  0.2403 -0.2124  0.9879
  166MOL   H12133451   7.320   5.416   4.636 -0.8565  1.2347 -1.9507
  166MOL   C12233452   7.636   5.509   4.895  0.1582  0.1821  0.2766
  166MOL   C12333453   7.624   5.652   4.839 -0.0060 -0.2880 -0.5375
  166MOL   O12433454   7.626   5.724   4.961  1.1269 -0.4289 -0.1570
  166MOL   C12533455   7.571   5.855   4.952  0.3039  0.2086  0.3219
  166MOL   H12633456   7.740   5.501   4.927  1.2985 -0.8672 -3.4638
  166MOL   H12733457   7.571   5.497   4.981 -0.9000 -2.0963 -0.8087
  166MOL   H12833458   7.521   5.658   4.804 -0.9714 -0.3977  2.1305
  166MOL   H12933459   7.638   5.931   4.913  2.3016 -1.6366  0.0946
  166MOL   H13033460   7.490   5.851   4.879 -0.5723  1.8949  1.1793
  166MOL   H13133461   7.528   5.876   5.050 -0.6157  2.2526 -0.4933
  166MOL   C13233462   7.735   5.697   4.740 -0.0122  0.5466 -0.0557
  166MOL   C13333463   7.676   5.745   4.609 -0.1671  0.3543 -0.8447
  166MOL   O13433464   7.605   5.859   4.640  0.4393  0.2714 -0.0066
  166MOL   C13533465   7.486   5.879   4.563  0.4252  0.5079 -0.9952
  166MOL   H13633466   7.800   5.612   4.722  1.7011  1.7186  0.4385
  166MOL   H13733467   7.785   5.786   4.778 -1.7710  1.6843 -0.3562
  166MOL   H13833468   7.621   5.655   4.579  1.0147 -0.4887 -0.5242
  166MOL   H13933469   7.430   5.969   4.589 -0.6802 -0.4683  0.0442
  166MOL   H14033470   7.506   5.894   4.456 -0.0046 -2.6294 -1.5520
  166MOL   H14133471   7.421   5.793   4.579  2.7324 -0.9128  0.9536
  166MOL   C14233472   7.769   5.765   4.494 -0.5993 -0.6882 -1.0041
  166MOL   C14333473   7.733   5.705   4.363 -0.0491 -0.2809  0.5096
  166MOL   O14433474   7.780   5.781   4.251 -0.0319 -0.1582 -0.1557
  166MOL   C14533475   7.680   5.856   4.178 -0.5674 -0.2212 -0.0586
  166MOL   H14633476   0.061   5.734   4.516 -0.4069  0.6234 -0.0275
  166MOL   H14733477   7.784   5.873   4.489  1.4556 -0.9562 -1.2281
  166MOL   H14833478   7.624   5.700   4.354 -0.0964  1.2678  0.0822
  166MOL   H14933479   7.732   5.893   4.090 -0.0740 -0.7926 -0.0091
  166MOL   H15033480   7.593   5.793   4.163 -2.1785  1.7664  0.6979
  166MOL   H15133481   7.657   5.943   4.240 -2.9425 -1.5047  0.9125
  166MOL   C15233482   7.788   5.561   4.341  0.1399  0.0205  0.2626
  166MOL   C15333483   7.727   5.489   4.218  0.0521 -0.0724  0.0214
  166MOL   O15433484   7.587   5.489   4.240 -0.1899 -0.5933 -0.3343
  166MOL   C15533485   7.510   5.380   4.184 -0.1847  0.5017  0.0502
  166MOL   H15633486   7.747   5.506   4.425  1.3193  0.8056  1.3722
  166MOL   H15733487   0.086   5.551   4.350 -0.1927 -1.7895  2.5443
  166MOL   H15833488   7.759   5.387   4.239  0.5715 -0.0233 -0.5221
  166MOL   H15933489   7.404   5.370   4.210  0.2036  0.1152  1.5547
  166MOL   H16033490   7.507   5.380   4.075 -2.9063  0.0803  0.0765
  166MOL   H16133491   7.547   5.280   4.207 -0.3947  0.7358  1.4603
  166MOL   C16233492   7.770   5.531   4.072  0.0326 -0.1697 -0.0547
  166MOL   C16333493   0.108   5.526   4.057  0.0414  0.0433  0.4373
  166MOL   O16433494   0.140   5.404   3.992 -0.3601  0.0244  0.0155
  166MOL   C16533495   0.234   5.323   4.055  0.1078 -0.2454 -0.0431
  166MOL   H16633496   7.737   5.633   4.048 -0.2135 -0.3751 -0.5868
  166MOL   H16733497   7.725   5.465   3.998 -1.7194  0.7789  0.1429
  166MOL   H16833498   0.172   5.531   4.145  0.4794 -3.8385  0.4550
  166MOL   H16933499   0.229   5.230   3.999 -1.6837 -0.4125  0.3273
  166MOL   H17033500   0.335   5.363   4.054 -0.3373  0.9387  0.5354
  166MOL   H17133501   0.199   5.299   4.156 -0.1790 -2.1559 -0.5768
  166MOL   C17233502   0.150   5.644   3.972 -0.4611  0.1549  0.4654
  166MOL   C17333503   0.300   5.661   3.955  0.2058 -0.4750  0.5403
  166MOL   O17433504   0.308   5.766   3.862  0.2955  0.2270  0.2444
  166MOL   C17533505   0.327   5.724   3.725  0.1252 -0.7118 -0.5591
  166MOL   H17633506   0.117   5.726   4.036 -1.0983 -0.3179  0.7603
  166MOL   H17733507   0.091   5.644   3.880 -0.2077 -0.0625  0.3019
  166MOL   H17833508   0.334   5.567   3.912 -1.3643 -0.2609 -1.2085
  166MOL   H17933509   0.309   5.808   3.658 -0.5928 -1.5940 -1.4959
  166MOL   H18033510   0.431   5.692   3.720  0.7288  0.9888  0.7710
  166MOL   H18133511   0.262   5.647   3.684 -2.0724 -0.6410  2.6272
  166MOL   C18233512   0.376   5.704   4.085  0.0972 -0.1907 -0.2876
  166MOL   C18333513   0.521   5.660   4.093  0.2962 -0.2311  0.0839
  166MOL   O18433514   0.518   5.521   4.124  0.3064  0.4900 -0.4434
  166MOL   C18533515   0.641   5.453   4.151  0.6794 -0.1936 -0.4924
  166MOL   H18633516   0.324   5.663   4.171  0.8327 -3.4795 -1.3307
  166MOL   H18733517   0.374   5.812   4.093  1.5113  0.2166 -4.2161
  166MOL   H18833518   0.573   5.708   4.176 -1.0130 -1.0801  1.4223
  166MOL   H18933519   0.696   5.429   4.059 -1.4241 -0.6252 -1.6610
  166MOL   H19033520   0.697   5.504   4.230 -0.2903  1.3340 -0.7640
  166MOL   H19133521   0.618   5.358   4.198  2.1666 -0.1086  0.4537
  166MOL   C19233522   0.608   5.687   3.972 -0.0597 -1.4889 -0.3938
  166MOL   C19333523   0.633   5.836   3.944 -0.0076 -0.4804 -0.0442
  166MOL   O19433524   0.707   5.851   3.823 -0.4014  0.0023  0.0900
  166MOL   C19533525   0.849   5.833   3.833  0.2855 -0.3133 -0.1967
  166MOL   H19633526   0.569   5.637   3.883 -0.8098  0.6024 -1.2737
  166MOL   H19733527   0.708   5.645   3.983  2.1481  3.5748  0.1810
  166MOL   H19833528   0.682   5.880   4.031 -0.4483 -1.5066  0.7296
  166MOL   H19933529   0.879   5.730   3.853  2.3156 -0.0006 -1.4137
  166MOL   H20033530   0.888   5.872   3.739  0.3863 -1.9335 -0.8521
  166MOL   H20133531   0.887   5.896   3.913 -0.6176  1.7462 -1.3520
  166MOL   H20233532   0.540   5.893   3.936  0.7282  0.6922 -0.4563
  167MOL     C133533   3.795   6.819   5.700  0.1739 -0.3470 -0.3750
  167MOL     C233534   3.764   6.754   5.557 -0.3287 -0.0999 -0.5670
  167MOL     O333535   3.649   6.668   5.572  0.0388  0.8144  0.3927
  167MOL     C433536   3.681   6.538   5.624 -0.2898 -0.1899 -0.0385
  167MOL     H533537   3.701   6.862   5.737  1.4056  1.0810  1.1441
  167MOL     H633538   3.834   6.740   5.764  0.8940  0.4610  0.1845
  167MOL     H733539   3.842   6.693   5.511  0.4342  0.2167  0.2892
  167MOL     H833540   3.583   6.499   5.652 -0.1627 -1.2084 -0.9955
  167MOL     H933541   3.727   6.481   5.544  1.2008  0.2412  0.5028
  167MOL    H1033542   3.757   6.538   5.702 -0.3372  2.4292  0.0642
  167MOL    H1133543   3.871   6.895   5.687  0.3649 -0.6118 -0.8067
  167MOL    C1233544   3.736   6.862   5.454 -0.6129  0.3022 -0.7677
  167MOL    C1333545   3.729   6.825   5.306  0.3893 -0.4309 -0.6183
  167MOL    O1433546   3.847   6.762   5.272 -0.3410 -0.4821  0.6255
  167MOL    C1533547   3.957   6.839   5.239  0.4575  0.2477  0.4852
  167MOL    H1633548   3.812   6.939   5.459  0.2888 -0.5634 -1.0447
  167MOL    H1733549   3.643   6.916   5.473 -0.3452  0.6973 -0.5865
  167MOL    H1833550   3.707   6.917   5.252  1.1916  0.6924  0.9548
  167MOL    H1933551   3.987   6.894   5.328  1.0385 -0.6887  0.8696
  167MOL    H2033552   4.038   6.773   5.208 -1.0410 -2.1518  1.5829
  167MOL    H2133553   3.926   6.917   5.168  0.9104 -1.0447 -1.1725
  167MOL    C2233554   3.613   6.731   5.267 -1.4230  0.6752  0.4103
  167MOL    C2333555   3.466   6.784   5.287  0.3021 -0.2980 -0.1288
  167MOL    O2433556   3.461   6.896   5.189  0.2955 -0.3482 -0.2377
  167MOL    C2533557   3.381   7.000   5.232  0.4639  0.8190  0.0913
  167MOL    H2633558   3.623   6.642   5.330  3.6803 -0.7019 -2.0093
  167MOL    H2733559   3.625   6.691   5.166  0.0885 -0.0984  0.8682
  167MOL    H2833560   3.459   6.825   5.387  1.7879 -0.8890  0.2304
  167MOL    H2933561   3.399   7.014   5.339 -0.3670  4.6473 -0.1970
  167MOL    H3033562   3.386   7.087   5.166  0.7919  0.2385 -0.6467
  167MOL    H3133563   3.278   6.968   5.215  0.3977  0.7649  0.5888
  167MOL    C3233564   3.350   6.685   5.274  0.8844 -0.1368  0.3050
  167MOL    C3333565   3.318   6.606   5.404  0.1867 -0.4259 -0.6644
  167MOL    O3433566   3.270   6.685   5.513  0.0582  0.0283 -0.4404
  167MOL    C3533567   3.320   6.652   5.645 -0.7892 -0.1733  0.1044
  167MOL    H3633568   3.377   6.610   5.199 -1.0415 -1.6134  1.0561
  167MOL    H3733569   3.255   6.729   5.244 -0.3172 -2.2247  0.9654
  167MOL    H3833570   3.419   6.576   5.432 -0.0777 -0.3492  0.4235
  167MOL    H3933571   3.240   6.678   5.715 -0.2339  2.6320 -0.2431
  167MOL    H4033572   3.332   6.544   5.643 -2.3143 -0.3510  0.2172
  167MOL    H4133573   3.404   6.718   5.668 -1.7469  0.4700  1.8705
  167MOL    C4233574   3.216   6.490   5.384 -0.0431  0.4825  0.0952
  167MOL    C4333575   3.086   6.530   5.321  0.7444  0.4131  0.2340
  167MOL    O4433576   3.100   6.482   5.184 -0.1205 -0.1986  0.0672
  167MOL    C4533577   3.019   6.552   5.088 -1.1379  0.3283 -0.4943
  167MOL    H4633578   3.196   6.436   5.477  1.0162 -0.3796 -0.1642
  167MOL    H4733579   3.259   6.419   5.313 -2.5324 -1.4406  0.4774
  167MOL    H4833580   3.063   6.636   5.318  0.3733  0.3213 -0.1354
  167MOL    H4933581   2.913   6.531   5.101 -0.9332  0.3033  1.3223
  167MOL    H5033582   3.046   6.658   5.085 -0.5173  0.2286  0.8585
  167MOL    H5133583   3.044   6.518   4.988  0.3634  1.7759 -0.6348
  167MOL    C5233584   2.966   6.453   5.384 -0.5579 -0.2313  0.2532
  167MOL    C5333585   2.917   6.501   5.515 -0.2282  0.1252  0.0236
  167MOL    O5433586   2.997   6.470   5.631  0.1432 -0.2922 -0.3893
  167MOL    C5533587   2.968   6.340   5.684  0.1983 -0.5202  0.3783
  167MOL    H5633588   3.001   6.350   5.389  1.0175  0.2188 -1.1434
  167MOL    H5733589   2.878   6.446   5.320 -0.9913 -0.8459  0.9113
  167MOL    H5833590   2.821   6.456   5.538 -0.3273  0.0754 -0.4953
  167MOL    H5933591   3.036   6.302   5.761  0.4099 -0.2644  0.3165
  167MOL    H6033592   2.865   6.336   5.719 -0.1161 -1.0026 -0.5736
  167MOL    H6133593   2.970   6.263   5.607 -1.1493  0.2201 -0.4134
  167MOL    C6233594   2.901   6.650   5.524 -0.2487  0.1637 -0.7790
  167MOL    C6333595   2.804   6.715   5.420 -0.2654  0.0144 -0.4656
  167MOL    O6433596   2.679   6.661   5.444  0.5306  0.4993 -0.4072
  167MOL    C6533597   2.590   6.631   5.331 -0.2007  0.3936  0.1478
  167MOL    H6633598   3.000   6.694   5.514  0.1724 -0.5094  0.3086
  167MOL    H6733599   2.860   6.671   5.623 -0.1203 -0.5992 -0.5595
  167MOL    H6833600   2.837   6.686   5.320  1.9407 -0.2961  0.3196
  167MOL    H6933601   2.643   6.567   5.260  0.2426  0.4914  0.3899
  167MOL    H7033602   2.502   6.577   5.366  1.3029 -0.5009  2.6908
  167MOL    H7133603   2.556   6.719   5.276 -3.0810 -1.0649 -0.4875
  167MOL    C7233604   2.789   6.873   5.429  0.5165  0.7034  0.0175
  167MOL    C7333605   2.903   6.944   5.356  0.4143 -0.1117  0.4548
  167MOL    O7433606   2.879   6.932   5.219 -0.1196 -0.3845  0.4118
  167MOL    C7533607   2.992   6.951   5.140 -0.1731  0.1747  0.1412
  167MOL    H7633608   2.788   6.909   5.532  0.6125  1.6000 -0.2858
  167MOL    H7733609   2.701   6.903   5.373 -1.3675 -0.4821  2.2626
  167MOL    H7833610   2.999   6.897   5.379 -1.3253 -3.2373  1.6455
  167MOL    H7933611   3.057   7.033   5.171 -1.3419  0.8628  0.7828
  167MOL    H8033612   3.068   6.875   5.158 -0.0088 -0.0224 -1.3352
  167MOL    H8133613   2.969   6.946   5.034  0.2307 -2.6777  0.1456
  167MOL    C8233614   2.904   7.093   5.402 -0.6615 -0.8618  0.0506
  167MOL    C8333615   2.994   7.122   5.527  0.3767 -0.0701  0.9164
  167MOL    O8433616   2.947   7.033   5.631 -0.2030 -0.5600 -0.7892
  167MOL    C8533617   2.889   7.110   5.738  0.3869  0.4385  0.0055
  167MOL    H8633618   2.803   7.121   5.431 -0.8455  1.9197 -3.0588
  167MOL    H8733619   2.929   7.160   5.320 -1.2886  0.4117  0.8957
  167MOL    H8833620   2.989   7.228   5.550  1.5420  0.4658 -1.1159
  167MOL    H8933621   2.824   7.191   5.706 -0.8634 -1.7024 -3.2191
  167MOL    H9033622   2.834   7.046   5.808 -2.2732  3.5744  0.8829
  167MOL    H9133623   2.965   7.166   5.792  1.4718  0.6521 -1.7007
  167MOL    C9233624   3.139   7.088   5.486 -0.0709  0.1905  0.5701
  167MOL    C9333625   3.245   7.146   5.583  0.1989 -0.4476 -0.6578
  167MOL    O9433626   3.364   7.058   5.584  0.6411 -0.2861  0.1249
  167MOL    C9533627   3.407   7.029   5.713 -0.3391  0.4678  0.2146
  167MOL    H9633628   3.166   7.109   5.382 -2.2034  0.2869  0.0215
  167MOL    H9733629   3.153   6.980   5.488 -0.2991  0.1517  0.0027
  167MOL    H9833630   3.204   7.140   5.684  0.4021  1.2903 -0.4620
  167MOL    H9933631   3.495   6.965   5.706 -0.3986  0.5917 -2.0974
  167MOL   H10033632   3.439   7.110   5.779  0.5129 -0.0214  0.4073
  167MOL   H10133633   3.328   6.972   5.762 -0.8813  1.3141  0.3359
  167MOL   C10233634   3.273   7.287   5.550  0.0764 -0.4933 -0.6563
  167MOL   C10333635   3.369   7.366   5.648  0.0972 -0.6536  0.2465
  167MOL   O10433636   3.391   7.500   5.602 -0.4552  0.2524 -0.4013
  167MOL   C10533637   3.473   7.512   5.491 -0.2706  0.0902 -0.5347
  167MOL   H10633638   3.177   7.338   5.542 -0.3858 -1.2109  0.1939
  167MOL   H10733639   3.314   7.289   5.449 -1.1069 -0.8234 -1.1519
  167MOL   H10833640   3.469   7.322   5.647 -0.0412 -0.9698 -0.9743
  167MOL   H10933641   3.568   7.463   5.510  0.2173  2.1627  2.8355
  167MOL   H11033642   3.417   7.493   5.400  0.3412  0.3105 -0.9514
  167MOL   H11133643   3.499   7.617   5.497 -0.4236 -0.0296  3.8399
  167MOL   C11233644   3.325   7.375   5.789  0.5468 -0.4772 -0.8731
  167MOL   C11333645   3.207   7.469   5.813  1.2017  0.4075  0.1798
  167MOL   O11433646   3.087   7.413   5.768  0.6049  0.0993  0.1247
  167MOL   C11533647   3.015   7.498   5.681 -0.2482 -0.1959 -0.0153
  167MOL   H11633648   3.409   7.410   5.848 -1.6029  0.8189  1.5205
  167MOL   H11733649   3.307   7.279   5.838  1.5007  1.3522  3.2043
  167MOL   H11833650   3.229   7.560   5.758  1.8136 -0.0517 -0.3379
  167MOL   H11933651   2.928   7.459   5.627 -1.9620  2.3308  0.8338
  167MOL   H12033652   2.986   7.572   5.756 -1.4920 -1.5345  0.8770
  167MOL   H12133653   3.080   7.540   5.605 -0.6108 -2.5238 -1.6640
  167MOL   C12233654   3.191   7.507   5.957 -0.5396 -0.3484  0.4900
  167MOL   C12333655   3.301   7.599   6.018  0.6226  0.3154  0.4099
  167MOL   O12433656   3.319   7.722   5.948 -0.0572 -0.0480 -0.3311
  167MOL   C12533657   3.447   7.754   5.902  0.3362  0.2707  0.7489
  167MOL   H12633658   3.179   7.411   6.007  0.0169  0.1483  1.5892
  167MOL   H12733659   3.093   7.553   5.974 -1.1398 -1.7047  0.7512
  167MOL   H12833660   3.395   7.547   6.001 -1.2048 -2.7194 -1.0008
  167MOL   H12933661   3.439   0.034   5.842  0.2718  0.3658  0.8994
  167MOL   H13033662   3.518   7.777   5.982  1.8325  2.1696 -1.0804
  167MOL   H13133663   3.489   7.682   5.832  2.0420  0.7626  1.2275
  167MOL   C13233664   3.269   7.624   6.164 -0.0706 -0.2009  0.1404
  167MOL   C13333665   3.385   7.700   6.235  0.3037 -0.2151  0.0232
  167MOL   O13433666   3.349   0.027   6.223 -0.3097 -0.0311 -0.0078
  167MOL   C13533667   3.456   0.116   6.214  0.3630  0.0132  0.7665
  167MOL   H13633668   3.248   7.530   6.215  2.6232  0.5010  2.6659
  167MOL   H13733669   3.170   7.667   6.177  0.3871  0.7643  0.5281
  167MOL   H13833670   3.483   7.687   6.189  0.4120  0.8896 -0.0622
  167MOL   H13933671   3.485   0.117   6.109 -0.7038 -0.1387  0.4654
  167MOL   H14033672   3.436   0.219   6.243  0.6541  0.2036  0.2920
  167MOL   H14133673   3.548   0.090   6.268  0.3706 -2.4042 -0.3500
  167MOL   C14233674   3.399   7.673   6.384  0.4544  0.8978 -0.0242
  167MOL   C14333675   3.462   7.539   6.424  0.3646 -0.1969  0.3429
  167MOL   O14433676   3.590   7.538   6.370 -0.2064 -0.1542 -0.1873
  167MOL   C14533677   3.624   7.408   6.329  0.0039  0.4520  0.3954
  167MOL   H14633678   3.300   7.681   6.429  0.7926 -0.4931  0.9964
  167MOL   H14733679   3.453   7.753   6.435  0.3901 -0.6772  2.5922
  167MOL   H14833680   3.397   7.459   6.390  0.1470  0.4779 -0.8504
  167MOL   H14933681   3.553   7.370   6.256  0.3999 -0.1996  0.3434
  167MOL   H15033682   3.718   7.405   6.273 -0.2964 -2.6553 -0.0568
  167MOL   H15133683   3.628   7.335   6.411 -1.4552 -3.1428 -2.6072
  167MOL   C15233684   3.469   7.521   6.579 -0.4034  0.0620 -0.4993
  167MOL   C15333685   3.339   7.536   6.664 -0.3718  0.1482 -0.2382
  167MOL   O15433686   3.266   7.410   6.639  0.8100 -0.6229  0.4321
  167MOL   C15533687   3.127   7.420   6.624  0.3754 -0.2292  0.9599
  167MOL   H15633688   3.533   7.600   6.618  0.2378 -0.3865 -0.6326
  167MOL   H15733689   3.505   7.420   6.597 -0.1727 -0.1663 -2.2050
  167MOL   H15833690   3.281   7.623   6.635  0.5313  0.4025 -1.3296
  167MOL   H15933691   3.093   7.317   6.627 -0.6097  0.0278 -0.6989
  167MOL   H16033692   3.081   7.467   6.711 -3.4889  1.0054 -1.6172
  167MOL   H16133693   3.108   7.458   6.523 -1.1186 -1.1253  0.8875
  167MOL   C16233694   3.366   7.544   6.814  0.4356  0.4634  0.0032
  167MOL   C16333695   3.418   7.670   6.880 -0.2127  0.2031  0.0903
  167MOL   O16433696   3.326   7.777   6.858  0.0414 -0.2145 -0.1068
  167MOL   C16533697   3.396   0.088   6.825  0.2476 -0.5491 -0.4706
  167MOL   H16633698   3.434   7.464   6.841 -1.2778 -0.3400  2.0791
  167MOL   H16733699   3.274   7.523   6.869  0.3935  2.2637  0.6509
  167MOL   H16833700   3.515   7.698   6.841 -0.5594 -0.1661 -1.0451
  167MOL   H16933701   3.328   0.173   6.823  1.5259  0.5623  1.7834
  167MOL   H17033702   3.465   0.124   6.901  1.2498  0.4062 -1.8199
  167MOL   H17133703   3.441   0.082   6.726 -0.8519  1.3193 -1.1326
  167MOL   C17233704   3.423   7.653   7.037  0.0911  0.0951  1.0145
  167MOL   C17333705   3.510   7.545   7.099  0.3204 -0.3131  0.6480
  167MOL   O17433706   3.641   7.574   7.049 -0.2215  0.0771 -0.0808
  167MOL   C17533707   3.722   7.475   6.999  0.1885 -0.1434 -0.0173
  167MOL   H17633708   3.318   7.641   7.062 -0.5898  1.6499 -0.9527
  167MOL   H17733709   3.456   7.748   7.079 -1.6793  0.4068  1.7444
  167MOL   H17833710   3.480   7.445   7.068  2.3880 -0.8589  0.3047
  167MOL   H17933711   3.786   7.510   6.917 -0.1887  1.4032  0.3344
  167MOL   H18033712   3.783   7.425   7.074  0.5124 -0.3899 -0.4437
  167MOL   H18133713   3.661   7.409   6.938 -0.4796 -1.4907  2.0641
  167MOL   C18233714   3.518   7.558   7.255  0.1146 -0.6007  0.5974
  167MOL   C18333715   3.615   7.450   7.328 -0.0517 -0.2618 -0.4106
  167MOL   O18433716   3.601   7.452   7.477  0.3216 -0.5569 -0.1218
  167MOL   C18533717   3.653   7.564   7.532 -0.2134 -0.0521 -0.5702
  167MOL   H18633718   3.413   7.553   7.283 -0.0997  0.6839  0.0978
  167MOL   H18733719   3.550   7.660   7.277 -0.1469 -0.7940  1.9134
  167MOL   H18833720   3.716   7.486   7.307 -0.1590 -0.8611 -2.0075
  167MOL   H18933721   3.761   7.568   7.527 -0.1027 -0.6513  0.8967
  167MOL   H19033722   3.605   7.654   7.492  0.8189  1.0340  0.5864
  167MOL   H19133723   3.629   7.553   7.638 -0.6498 -2.1282 -0.8664
  167MOL   C19233724   3.595   7.300   7.288  0.0578  0.5802 -0.0112
  167MOL   C19333725   3.454   7.228   7.304 -0.1790 -0.2724 -0.2204
  167MOL   O19433726   3.384   7.240   7.170 -0.2297 -0.3535  0.4244
  167MOL   C19533727   3.359   7.118   7.112 -0.1597  0.0219  0.9438
  167MOL   H19633728   3.657   7.237   7.350  0.2627  0.2043 -0.5913
  167MOL   H19733729   3.637   7.294   7.187  0.8743  3.2464  0.1120
  167MOL   H19833730   3.382   7.269   7.375  2.2693 -0.1555  2.2766
  167MOL   H19933731   3.325   7.140   7.011  1.6028 -2.2963 -0.2198
  167MOL   H20033732   3.452   7.061   7.106  0.9366  1.4073  3.8969
  167MOL   H20133733   3.297   7.044   7.164  1.0345  0.4261  3.0292
  167MOL   H20233734   3.483   7.127   7.332 -1.7741 -0.7018 -0.0543
  168MOL     C133735   2.257   4.289   2.875 -0.0626 -0.5915  0.0578
  168MOL     C233736   2.226   4.426   2.941 -0.3709  0.3539 -0.4988
  168MOL     O333737   2.145   4.407   3.060 -0.0747  0.4536 -0.2496
  168MOL     C433738   2.004   4.396   3.049 -0.5801  0.3323 -0.1867
  168MOL     H533739   2.158   4.252   2.846 -0.4291  0.4509 -0.0723
  168MOL     H633740   2.312   4.300   2.782 -0.4863  1.0547 -0.0096
  168MOL     H733741   2.176   4.475   2.858  0.4557 -3.9489 -3.7490
  168MOL     H833742   1.964   4.479   2.991 -1.6086  0.6860  0.9986
  168MOL     H933743   1.979   4.302   2.999  2.1099 -2.6037  3.6361
  168MOL    H1033744   1.958   4.394   3.148  0.5812 -0.7538  0.3496
  168MOL    H1133745   2.307   4.211   2.932  1.3885 -0.6474 -1.2799
  168MOL    C1233746   2.365   4.490   2.988  0.0865  1.1287 -0.3967
  168MOL    C1333747   2.350   4.643   3.007  0.6347  0.0822 -0.1842
  168MOL    O1433748   2.296   4.690   2.885  0.1203  0.2551 -0.3267
  168MOL    C1533749   2.384   4.699   2.775  0.2744  0.2293  0.2199
  168MOL    H1633750   2.449   4.466   2.922 -0.6294 -0.6703 -0.7013
  168MOL    H1733751   2.399   4.445   3.081  1.6988  0.7568 -1.1401
  168MOL    H1833752   2.450   4.686   3.020  1.0847 -0.8498 -0.5660
  168MOL    H1933753   2.396   4.603   2.724  0.8779  1.2244 -1.5780
  168MOL    H2033754   2.337   4.765   2.701 -0.3526  0.1563  0.5487
  168MOL    H2133755   2.477   4.752   2.797 -0.4378  1.4421  0.3980
  168MOL    C2233756   2.248   4.680   3.120  0.0352  0.2453  0.8596
  168MOL    C2333757   2.292   4.621   3.258 -0.1216  0.1651  0.5675
  168MOL    O2433758   2.422   4.665   3.282 -0.1811 -0.0064  0.2201
  168MOL    C2533759   2.491   4.583   3.381 -0.6012 -0.2045  0.1153
  168MOL    H2633760   2.156   4.633   3.088  1.6794 -1.7400 -1.1554
  168MOL    H2733761   2.237   4.789   3.123 -1.1974  0.1979 -1.1443
  168MOL    H2833762   2.289   4.513   3.241  0.3672  0.2160  0.1305
  168MOL    H2933763   2.437   4.588   3.475 -0.5874 -1.6274  0.2117
  168MOL    H3033764   2.510   4.477   3.363  2.5952  0.2734  0.3171
  168MOL    H3133765   2.593   4.620   3.392 -0.7123  0.3639 -0.7110
  168MOL    C3233766   2.193   4.662   3.365  0.2261  0.6126 -0.9589
  168MOL    C3333767   2.049   4.612   3.365  0.6274 -0.1561 -0.8232
  168MOL    O3433768   2.036   4.527   3.478 -0.0209 -0.0948 -0.0198
  168MOL    C3533769   2.016   4.394   3.450 -0.4389 -0.5047  0.4887
  168MOL    H3633770   2.197   4.770   3.352 -1.3365  0.6483 -1.1562
  168MOL    H3733771   2.228   4.656   3.468 -1.2435 -1.5439 -0.5622
  168MOL    H3833772   2.041   4.549   3.276 -1.1691 -0.6096 -0.3443
  168MOL    H3933773   1.946   4.380   3.368 -0.3451  0.7856  0.1712
  168MOL    H4033774   2.108   4.356   3.404 -0.6768 -0.7640  0.2278
  168MOL    H4133775   1.982   4.338   3.537 -2.0495 -0.1821  0.0767
  168MOL    C4233776   1.941   4.719   3.378  0.1815 -0.0515 -0.6039
  168MOL    C4333777   1.935   4.808   3.251 -0.6043 -0.1027 -0.2146
  168MOL    O4433778   1.846   4.743   3.156  0.4776  0.2567 -0.0003
  168MOL    C4533779   1.881   4.772   3.021  0.2087 -0.1429  0.6762
  168MOL    H4633780   1.947   4.779   3.469 -2.2302 -0.4825 -0.1097
  168MOL    H4733781   1.846   4.666   3.382 -0.0385  0.2533 -1.6568
  168MOL    H4833782   2.035   4.800   3.209  0.5752  1.3006  2.2201
  168MOL    H4933783   1.869   4.877   2.993  0.3844 -0.1432  0.5976
  168MOL    H5033784   1.980   4.733   2.995 -1.3016 -3.6256 -0.0740
  168MOL    H5133785   1.809   4.720   2.957  1.3512 -0.2202 -0.5812
  168MOL    C5233786   1.883   4.950   3.279  0.0246 -0.3502  0.0811
  168MOL    C5333787   1.993   5.043   3.343 -0.2392  0.6309  0.1358
  168MOL    O5433788   2.082   5.048   3.234 -0.0420 -0.3853  0.5129
  168MOL    C5533789   2.224   5.078   3.262 -0.6680  0.2222  0.0088
  168MOL    H5633790   1.794   4.947   3.341 -0.2435 -0.4319 -0.3007
  168MOL    H5733791   1.840   5.006   3.196 -2.4994 -1.5723  0.5194
  168MOL    H5833792   2.031   4.991   3.431  0.6134 -0.2384 -0.7377
  168MOL    H5933793   2.271   4.997   3.318 -1.9500 -0.2163  0.4518
  168MOL    H6033794   2.280   5.085   3.169 -1.0016  2.0018 -0.0864
  168MOL    H6133795   2.237   5.167   3.323  0.6503  0.6405 -0.8425
  168MOL    C6233796   1.934   5.181   3.374  0.1258  0.7533  0.0034
  168MOL    C6333797   1.821   5.178   3.479  0.3792 -0.4983  0.1897
  168MOL    O6433798   1.874   5.119   3.598  0.7085  0.1589  0.0204
  168MOL    C6533799   1.791   5.027   3.664  0.0211 -0.2853  0.1497
  168MOL    H6633800   1.893   5.223   3.282  0.3503 -0.6610 -0.7477
  168MOL    H6733801   2.011   5.248   3.415  1.2403 -1.1959  1.1696
  168MOL    H6833802   1.741   5.112   3.446  2.4923 -3.9866  1.6025
  168MOL    H6933803   1.683   5.037   3.666 -0.2154 -2.6278  0.1369
  168MOL    H7033804   1.806   4.924   3.633 -1.9298 -1.4581  2.9448
  168MOL    H7133805   1.827   5.018   3.767 -0.9324 -0.7470  0.4487
  168MOL    C7233806   1.775   5.318   3.522  0.2968  0.2517  0.0349
  168MOL    C7333807   1.642   5.340   3.592 -0.1676 -0.5467  0.3818
  168MOL    O7433808   1.628   5.476   3.622 -0.9963 -0.5505 -0.1611
  168MOL    C7533809   1.697   5.520   3.743 -0.5415  0.7275  0.0087
  168MOL    H7633810   1.781   5.392   3.442 -2.1426  0.9120  0.4332
  168MOL    H7733811   1.856   5.346   3.590 -0.3194  0.4974  0.6674
  168MOL    H7833812   1.651   5.278   3.682  2.7719  0.5287  0.8761
  168MOL    H7933813   1.650   5.616   3.763 -0.9996  0.6026 -0.4559
  168MOL    H8033814   1.680   5.452   3.826  1.3865 -0.6317 -0.6600
  168MOL    H8133815   1.805   5.529   3.735 -0.1487 -0.5305  3.1718
  168MOL    C8233816   1.524   5.294   3.502 -0.2397 -0.5337 -0.0638
  168MOL    C8333817   1.376   5.323   3.547 -0.0672 -0.5165 -0.7478
  168MOL    O8433818   1.290   5.286   3.441  0.3472  0.2335 -0.6281
  168MOL    C8533819   1.254   5.390   3.356  0.1570  0.2355 -0.6907
  168MOL    H8633820   1.531   5.186   3.496  2.3350 -0.4012  0.1622
  168MOL    H8733821   1.540   5.338   3.403  3.1032  1.6083  1.3314
  168MOL    H8833822   1.368   5.428   3.577 -0.8539 -0.4449 -1.1868
  168MOL    H8933823   1.198   5.350   3.271  0.8226  0.8350 -1.4274
  168MOL    H9033824   1.188   5.460   3.405  0.1333 -1.4720  1.7873
  168MOL    H9133825   1.329   5.456   3.312  0.1199  0.8904  0.2213
  168MOL    C9233826   1.338   5.244   3.671 -0.3695 -0.3464  0.6097
  168MOL    C9333827   1.191   5.243   3.712 -0.1514  0.0221  0.9984
  168MOL    O9433828   1.180   5.154   3.819 -0.1162  0.3874 -0.2279
  168MOL    C9533829   1.090   5.049   3.797 -0.7119  0.3648 -0.0216
  168MOL    H9633830   1.401   5.274   3.755 -1.1491  1.9039  0.4296
  168MOL    H9733831   1.364   5.141   3.649  0.6092 -0.3271  1.6395
  168MOL    H9833832   1.141   5.205   3.624  0.3087  0.0311  0.7323
  168MOL    H9933833   0.984   5.073   3.789 -0.6182  0.3414 -1.4883
  168MOL   H10033834   1.115   4.994   3.706 -0.5947 -0.9448  0.7807
  168MOL   H10133835   1.113   4.972   3.871  0.2869  0.5809 -0.0992
  168MOL   C10233836   1.146   5.378   3.753 -0.4840  0.6490  0.2954
  168MOL   C10333837   0.996   5.403   3.769  0.2875 -0.8187  0.9468
  168MOL   O10433838   0.956   5.481   3.881  0.0247 -0.0665  0.3591
  168MOL   C10533839   0.959   5.412   4.006 -0.0201  0.3464 -0.0056
  168MOL   H10633840   1.179   5.447   3.675  1.2765 -0.7895 -0.2649
  168MOL   H10733841   1.205   5.407   3.840  0.7612 -1.3235  0.1312
  168MOL   H10833842   0.945   5.308   3.785 -2.1426  0.3745  0.5190
  168MOL   H10933843   0.917   5.476   4.083  2.6992  2.1605  0.0507
  168MOL   H11033844   0.901   5.319   4.005  0.5352 -0.0038 -1.4764
  168MOL   H11133845   1.064   5.399   4.034  0.2366  0.3649 -0.9278
  168MOL   C11233846   0.923   5.476   3.645  0.1130 -0.5212 -0.0918
  168MOL   C11333847   0.788   5.412   3.588  0.1329 -0.1214  1.0033
  168MOL   O11433848   0.751   5.490   3.478 -0.4277 -0.9719  0.1246
  168MOL   C11533849   0.677   5.610   3.518 -0.3161  0.0314  0.2962
  168MOL   H11633850   0.991   5.485   3.560  0.6616 -1.3465  0.2507
  168MOL   H11733851   0.914   5.582   3.671 -0.3605 -0.4534 -0.5280
  168MOL   H11833852   0.730   5.430   3.678 -0.9996 -0.8758  0.4358
  168MOL   H11933853   0.663   5.670   3.428 -3.7561  0.5945  1.1195
  168MOL   H12033854   0.574   5.590   3.547 -0.8466  0.7141 -1.0411
  168MOL   H12133855   0.728   5.669   3.594 -0.6330  0.3254  0.2867
  168MOL   C12233856   0.801   5.263   3.545 -0.0119  0.2438 -0.1212
  168MOL   C12333857   0.665   5.206   3.496  0.2272 -0.3556 -0.1407
  168MOL   O12433858   0.686   5.130   3.379  0.1224 -0.0830  0.2256
  168MOL   C12533859   0.698   5.221   3.268 -0.3674  0.0913  0.7181
  168MOL   H12633860   0.828   5.195   3.626 -0.5468 -1.2309 -1.1610
  168MOL   H12733861   0.884   5.246   3.476  0.4631  1.2473  0.1863
  168MOL   H12833862   0.588   5.280   3.474  0.5395 -0.6123 -2.1902
  168MOL   H12933863   0.780   5.291   3.283 -1.2054  1.4915 -0.9477
  168MOL   H13033864   0.714   5.164   3.176  0.8709  0.2801  0.8050
  168MOL   H13133865   0.603   5.274   3.259 -0.7427 -1.0033 -2.2123
  168MOL   C13233866   0.595   5.105   3.593  0.5548  0.4420 -0.4585
  168MOL   C13333867   0.538   5.178   3.718  0.5597  0.0542  0.0266
  168MOL   O13433868   0.454   5.287   3.663 -0.2657  0.5622  0.5803
  168MOL   C13533869   0.421   5.378   3.761 -0.3410 -0.1513 -0.0808
  168MOL   H13633870   0.658   5.020   3.618 -0.2217  0.2329  0.8546
  168MOL   H13733871   0.509   5.062   3.542  1.0889  0.9922 -1.8574
  168MOL   H13833872   0.617   5.229   3.773  0.4127  0.1425  0.1564
  168MOL   H13933873   0.340   5.340   3.823  1.4552 -0.0441  2.3935
  168MOL   H14033874   0.503   5.397   3.830 -2.2895  0.6808  2.0786
  168MOL   H14133875   0.386   5.470   3.714 -0.0645 -0.4464 -0.8686
  168MOL   C14233876   0.460   5.083   3.801  0.0394  0.0150 -0.2537
  168MOL   C14333877   0.548   5.007   3.891  0.4410  0.2905 -0.3441
  168MOL   O14433878   0.596   5.096   3.990 -0.1110  0.0300 -0.3644
  168MOL   C14533879   0.732   5.105   4.012 -0.7074 -0.5444  0.3858
  168MOL   H14633880   0.399   5.020   3.736  0.8062  1.4077 -2.3811
  168MOL   H14733881   0.388   5.135   3.864  0.6635  0.4456  0.1087
  168MOL   H14833882   0.631   4.967   3.834 -0.5751  0.2933 -1.8505
  168MOL   H14933883   0.773   5.009   4.042  1.9744  0.2695 -0.5602
  168MOL   H15033884   0.789   5.136   3.924  1.1408  0.4061  1.8824
  168MOL   H15133885   0.761   5.174   4.091  0.4625  0.5423 -0.9502
  168MOL   C15233886   0.463   4.895   3.955 -0.3421 -0.5619  0.0034
  168MOL   C15333887   0.437   4.771   3.863  0.4838  0.4432 -0.0032
  168MOL   O15433888   0.551   4.683   3.876 -0.1984  0.4073 -0.6056
  168MOL   C15533889   0.568   4.603   3.765  0.6521 -0.7647 -0.4043
  168MOL   H15633890   0.369   4.933   3.996 -0.6460 -1.1645 -0.1286
  168MOL   H15733891   0.523   4.851   4.035 -1.1698  0.6994  1.3568
  168MOL   H15833892   0.431   4.807   3.761 -1.8187 -0.5313 -0.2517
  168MOL   H15933893   0.667   4.558   3.757  0.7777 -0.3271 -1.3992
  168MOL   H16033894   0.499   4.518   3.762 -0.9109  0.5052 -1.8897
  168MOL   H16133895   0.548   4.655   3.671 -0.3434  0.4711  0.4832
  168MOL   C16233896   0.312   4.689   3.896  0.0828  0.9075 -0.0917
  168MOL   C16333897   0.187   4.746   3.840 -1.0562 -0.2895  0.3868
  168MOL   O16433898   0.184   4.708   3.708  0.7182 -0.3600  0.5760
  168MOL   C16533899   0.124   4.793   3.609 -0.0978 -0.3290  0.6077
  168MOL   H16633900   0.295   4.694   4.004  2.6022 -1.5105  0.4775
  168MOL   H16733901   0.316   4.581   3.887 -0.7011  0.9890 -1.3645
  168MOL   H16833902   0.183   4.855   3.846  1.4716 -0.1802  0.9248
  168MOL   H16933903   0.015   4.792   3.620 -0.0120 -1.3745  1.4489
  168MOL   H17033904   0.155   4.896   3.627  0.5650 -0.6180  1.1344
  168MOL   H17133905   0.157   4.764   3.509  1.6010  0.2215  0.9978
  168MOL   C17233906   0.055   4.687   3.895 -0.2252 -0.0919 -0.3977
  168MOL   C17333907   7.796   4.752   4.015  0.2517  0.0553  0.3767
  168MOL   O17433908   0.071   4.749   4.136 -0.4897 -0.2904  0.0423
  168MOL   C17533909   0.012   4.707   4.254 -0.0580  0.0767 -0.1588
  168MOL   H17633910   0.081   4.587   3.927  3.8237  1.3494  1.1297
  168MOL   H17733911   7.791   4.679   3.816 -1.0505  0.4041  0.3188
  168MOL   H17833912   7.712   4.683   4.026 -2.5669  3.0705 -1.3840
  168MOL   H17933913   0.079   4.707   4.341 -0.5455  2.3300  0.2551
  168MOL   H18033914   7.740   4.767   4.293  0.6156  0.2468  1.0710
  168MOL   H18133915   7.794   4.603   4.239  1.0294 -0.4797  1.4719
  168MOL   C18233916   7.755   4.905   3.996  0.2860  0.8621  0.0193
  168MOL   C18333917   7.655   4.908   3.886 -0.0126 -0.2565 -0.2777
  168MOL   O18433918   7.537   4.853   3.936 -0.6251  0.4068 -0.1582
  168MOL   C18533919   7.474   4.769   3.842 -0.2035  0.4595 -0.0775
  168MOL   H18633920   0.030   4.970   3.979  0.4121  1.0267  1.2201
  168MOL   H18733921   7.705   4.949   4.082  0.4527  1.2007 -0.0597
  168MOL   H18833922   7.687   4.854   3.797 -0.1442  1.2965 -1.2834
  168MOL   H18933923   7.531   4.677   3.829 -0.4830  0.4295 -1.1060
  168MOL   H19033924   7.371   4.751   3.872 -0.5760  0.7376 -1.1708
  168MOL   H19133925   7.463   4.817   3.745 -0.1260  0.9296  0.1451
  168MOL   C19233926   7.639   5.052   3.838 -0.2953  0.5301 -0.1196
  168MOL   C19333927   7.769   5.102   3.770  0.2430  0.0514  1.1353
  168MOL   O19433928   7.713   5.229   3.726 -0.2154 -0.5200  0.0342
  168MOL   C19533929   0.006   5.304   3.660 -0.1365 -0.4910 -0.0982
  168MOL   H19633930   7.619   5.120   3.921  0.0028 -0.6919  0.9586
  168MOL   H19733931   7.561   5.059   3.762 -0.2629  0.9573 -0.1140
  168MOL   H19833932   7.796   5.044   3.682 -0.8317  0.0025  0.8308
  168MOL   H19933933   0.054   5.243   3.584  1.4601  0.9755 -0.2976
  168MOL   H20033934   7.768   5.396   3.624  0.9681  1.6527  3.5689
  168MOL   H20133935   0.083   5.328   3.733  1.1257 -1.8298 -0.9875
  168MOL   H20233936   0.045   5.117   3.836  2.5749 -2.5185 -1.2009
  169MOL     C133937   7.138   3.178   7.612  0.1533 -0.2146  0.3753
  169MOL     C233938   7.002   3.112   7.623 -0.1926  0.3183 -0.0638
  169MOL     O333939   7.015   2.966   7.614  0.4541  0.0809 -0.6772
  169MOL     C433940   6.893   2.910   7.577 -0.6401 -0.1380 -0.2126
  169MOL     H533941   7.138   3.286   7.624 -2.0649 -0.1384 -0.1761
  169MOL     H633942   7.191   3.145   7.701 -0.7978  0.5868  1.2550
  169MOL     H733943   6.940   3.154   7.545  0.5843 -0.4663 -1.1211
  169MOL     H833944   6.890   2.810   7.620 -0.2404 -0.2701 -0.4899
  169MOL     H933945   6.805   2.967   7.608 -0.9072 -0.0531 -1.1143
  169MOL    H1033946   6.892   2.905   7.468  1.2923  0.7919 -0.2965
  169MOL    H1133947   7.193   3.148   7.523  1.3785 -0.8073  1.3112
  169MOL    C1233948   6.941   3.137   7.761  0.6273 -0.4465  0.3298
  169MOL    C1333949   6.932   3.292   7.805 -0.4514  0.2070  0.4872
  169MOL    O1433950   6.883   3.348   7.680  0.5855  0.2259  0.2726
  169MOL    C1533951   6.916   3.482   7.666 -0.0575 -0.2220 -0.3004
  169MOL    H1633952   7.000   3.081   0.023  0.6790 -0.7447  0.0621
  169MOL    H1733953   6.838   3.101   7.763 -0.0886  1.5320  0.8562
  169MOL    H1833954   7.028   3.339   0.019  0.5696 -1.6882  0.2062
  169MOL    H1933955   6.885   3.509   7.566  2.4836  0.7100 -0.8752
  169MOL    H2033956   6.869   3.545   7.742  1.5571 -0.1994  0.7005
  169MOL    H2133957   7.024   3.492   7.666 -0.0356 -0.3866 -1.9242
  169MOL    C2233958   6.829   3.316   0.106 -0.3794 -0.2001 -0.0973
  169MOL    C2333959   6.894   3.277   0.249  0.0043 -0.4085 -0.0999
  169MOL    O2433960   6.974   3.395   0.274  0.7298 -0.0624  0.0317
  169MOL    C2533961   7.092   3.354   0.340 -0.2341 -0.0793 -0.4538
  169MOL    H2633962   6.737   3.261   0.089  0.1081 -0.9665 -0.2697
  169MOL    H2733963   6.796   3.420   0.113  2.3678  0.6377  1.7119
  169MOL    H2833964   6.940   3.179   0.238  1.2498  0.3025 -1.3416
  169MOL    H2933965   7.136   3.450   0.367 -1.5400  0.2722  0.4353
  169MOL    H3033966   7.080   3.287   0.424  4.2971  0.5143  0.7840
  169MOL    H3133967   7.173   3.306   0.284  1.2633 -0.1705  1.7225
  169MOL    C3233968   6.786   3.268   0.361  0.6923  0.4283 -0.0645
  169MOL    C3333969   6.708   3.138   0.356  0.3373  0.1486  0.2348
  169MOL    O3433970   6.796   3.038   0.422 -0.6540 -0.5713 -0.6952
  169MOL    C3533971   6.760   2.904   0.403 -0.2475 -0.5434 -0.4053
  169MOL    H3633972   6.725   3.358   0.370 -0.0736 -0.1406  0.4488
  169MOL    H3733973   6.821   3.256   0.463  0.6213  0.3917 -0.0455
  169MOL    H3833974   6.697   3.114   0.250  1.7206  4.7879 -1.0702
  169MOL    H3933975   6.848   2.843   0.381  0.4213  0.4590 -0.5682
  169MOL    H4033976   6.711   2.871   0.495 -1.6763  5.9973  1.4057
  169MOL    H4133977   6.702   2.897   0.311  0.1914 -1.2759 -0.6328
  169MOL    C4233978   6.565   3.138   0.415  0.5638  0.3262  0.0561
  169MOL    C4333979   6.465   3.240   0.345 -0.9665 -0.2666 -0.9836
  169MOL    O4433980   6.459   3.206   0.207 -0.0230 -1.0362 -0.2082
  169MOL    C4533981   6.405   3.313   0.126  0.2509  0.3475  0.1738
  169MOL    H4633982   6.559   3.163   0.521  1.9326 -0.0800  0.2356
  169MOL    H4733983   6.530   3.035   0.417  1.2027 -0.1203 -4.9676
  169MOL    H4833984   6.503   3.342   0.359 -0.2599 -0.5736 -0.6461
  169MOL    H4933985   6.412   3.289   0.019  0.5692  1.6060 -0.0952
  169MOL    H5033986   6.308   3.336   0.169  0.9322 -0.5510  2.2279
  169MOL    H5133987   6.462   3.406   0.135  0.0004  0.4063  1.2055
  169MOL    C5233988   6.336   3.238   0.421  0.2093  0.3727 -0.1651
  169MOL    C5333989   6.311   3.360   0.510  0.5887 -0.1031 -0.3696
  169MOL    O5433990   6.167   3.354   0.542 -0.5426  0.0164  0.0929
  169MOL    C5533991   6.088   3.434   0.451  0.3655 -0.3586  0.1874
  169MOL    H5633992   6.325   3.148   0.482 -0.0610  0.4483 -0.1025
  169MOL    H5733993   6.255   3.240   0.349  0.2091 -1.0282 -0.2098
  169MOL    H5833994   6.334   3.450   0.453 -1.0093  2.8633  3.3536
  169MOL    H5933995   5.985   3.410   0.477  0.3683  2.8954  3.6159
  169MOL    H6033996   6.101   3.541   0.468  0.3914 -0.5574  1.4268
  169MOL    H6133997   6.112   3.416   0.346 -0.5840 -0.3350 -0.0386
  169MOL    C6233998   6.399   3.350   0.644  0.0999  0.4899  0.1585
  169MOL    C6333999   6.350   3.444   0.751 -0.1498  0.1396 -0.1317
  169MOL    O6434000   6.425   3.419   0.877 -0.4404  0.2945 -1.0387
  169MOL    C6534001   6.394   3.296   0.948  0.9049 -0.2976 -0.0653
  169MOL    H6634002   6.502   3.377   0.625 -0.1569 -0.8043 -3.3969
  169MOL    H6734003   6.404   3.248   0.684  0.8095  0.6568  0.4967
  169MOL    H6834004   6.248   3.421   0.780  0.4922 -0.0447  2.1450
  169MOL    H6934005   6.394   3.309   1.056 -0.6524 -0.6921  0.0032
  169MOL    H7034006   6.298   3.253   0.919 -0.1756  0.3326  2.4860
  169MOL    H7134007   6.473   3.226   0.922 -0.7832 -2.6836  1.0830
  169MOL    C7234008   6.359   3.600   0.722  0.0402  0.6389 -0.1299
  169MOL    C7334009   6.501   3.651   0.689  0.0528  1.0424  0.0895
  169MOL    O7434010   6.516   3.613   0.553  0.0329 -0.1470  0.2054
  169MOL    C7534011   6.651   3.615   0.507 -0.0648 -0.2967  0.0277
  169MOL    H7634012   6.325   3.639   0.818 -0.6780 -0.1024 -0.0703
  169MOL    H7734013   6.285   3.632   0.648 -3.1864  1.3650  3.2895
  169MOL    H7834014   6.574   3.604   0.755  2.5486  0.8191 -2.7540
  169MOL    H7934015   6.710   3.548   0.569  0.3809  0.6940  0.6868
  169MOL    H8034016   6.642   3.575   0.406 -0.9533 -0.0509  0.0038
  169MOL    H8134017   6.686   3.718   0.506 -1.6724  0.2713 -0.6682
  169MOL    C8234018   6.522   3.801   0.714  0.0050  0.3179  1.4288
  169MOL    C8334019   6.449   3.900   0.630  1.1177 -0.0683  0.1026
  169MOL    O8434020   6.312   3.895   0.656  0.3987 -0.2303 -0.1364
  169MOL    C8534021   6.232   3.972   0.571 -0.4548 -0.6087 -0.3182
  169MOL    H8634022   6.628   3.829   0.716  0.0545  0.1089  2.0416
  169MOL    H8734023   6.503   3.818   0.820 -0.6853 -0.7577  1.4833
  169MOL    H8834024   6.470   3.874   0.526  0.2153  1.6150 -0.5328
  169MOL    H8934025   6.259   3.961   0.465 -0.1661 -1.6391 -0.1443
  169MOL    H9034026   6.129   3.937   0.572 -1.4609  2.3159  1.1958
  169MOL    H9134027   6.243   4.077   0.596 -1.1591 -0.5271 -0.3624
  169MOL    C9234028   6.508   4.049   0.646 -0.3391 -0.0341 -0.1999
  169MOL    C9334029   6.638   4.059   0.565  0.1847 -0.3039 -0.0422
  169MOL    O9434030   6.596   4.088   0.432  0.1934 -0.2966 -0.3758
  169MOL    C9534031   6.689   4.058   0.332 -0.3086 -0.1904  0.0010
  169MOL    H9634032   6.529   4.068   0.751 -2.0223  2.2405 -0.2254
  169MOL    H9734033   6.441   4.134   0.630  0.6743  1.2995  2.3342
  169MOL    H9834034   6.695   3.967   0.578  0.8315  0.6506  5.1775
  169MOL    H9934035   6.771   4.129   0.326 -1.5495  1.3752  1.1869
  169MOL   H10034036   6.719   3.953   0.335 -0.7160 -0.3471 -1.3235
  169MOL   H10134037   6.640   4.067   0.235 -3.7982 -0.1792  1.6848
  169MOL   C10234038   6.728   4.176   0.600  0.2535 -0.5524  0.2896
  169MOL   C10334039   6.765   4.180   0.757  0.3074 -0.6770 -0.6364
  169MOL   O10434040   6.801   4.040   0.795  0.5575 -0.2755 -0.2940
  169MOL   C10534041   6.804   4.007   0.934 -0.0176 -0.5064 -0.2456
  169MOL   H10634042   6.685   4.270   0.567 -0.2724 -0.4580  1.2110
  169MOL   H10734043   6.821   4.163   0.545 -0.0640 -1.5138 -0.0144
  169MOL   H10834044   6.675   4.205   0.815  0.3101 -0.5177 -0.7001
  169MOL   H10934045   6.833   4.081   1.009 -3.0062 -1.4700  1.9577
  169MOL   H11034046   6.702   3.986   0.967  0.3449 -0.7954  0.7287
  169MOL   H11134047   6.856   3.912   0.943  0.7427 -0.1214 -0.4922
  169MOL   C11234048   6.875   4.286   0.780  0.0965  0.2080 -0.2061
  169MOL   C11334049   6.858   4.371   0.903 -0.6078  0.3708  0.3925
  169MOL   O11434050   6.975   4.457   0.907  0.2927 -0.6957  0.2042
  169MOL   C11534051   7.079   4.406   0.981 -0.1847  0.0991 -0.2235
  169MOL   H11634052   6.891   4.358   0.700  3.6411 -0.0083  0.1986
  169MOL   H11734053   6.963   4.224   0.795 -0.8976 -0.6136  2.6177
  169MOL   H11834054   6.840   4.296   0.981  0.7574 -0.7286 -0.3263
  169MOL   H11934055   7.169   4.467   0.972  0.6535 -1.1221 -0.2357
  169MOL   H12034056   7.046   4.400   1.085  1.1660 -1.1791  0.1580
  169MOL   H12134057   7.106   4.312   0.933  0.7637  0.8005 -1.0904
  169MOL   C12234058   6.744   4.472   0.905 -0.5287 -0.5145 -0.2916
  169MOL   C12334059   6.721   4.535   1.039 -0.2868 -0.3644 -0.6445
  169MOL   O12434060   6.611   4.629   1.044  0.4401 -0.2738 -0.2085
  169MOL   C12534061   6.642   4.759   0.999  0.2707 -0.3273 -0.0606
  169MOL   H12634062   6.648   4.430   0.874 -1.6578  0.3859  1.8707
  169MOL   H12734063   6.767   4.549   0.831  0.7273  2.4796  3.1006
  169MOL   H12834064   6.810   4.588   1.074  1.5742 -2.9596 -1.2908
  169MOL   H12934065   6.652   4.753   0.890 -0.9522  1.8459 -0.3276
  169MOL   H13034066   6.551   4.814   1.026  1.0548  0.5603  0.8102
  169MOL   H13134067   6.718   4.827   1.037 -1.4033  2.6209 -1.7418
  169MOL   C13234068   6.684   4.429   1.150 -0.0167  0.1105 -0.6732
  169MOL   C13334069   6.583   4.321   1.123 -0.5124  0.0033  0.1532
  169MOL   O13434070   6.582   4.240   1.238  0.0071 -0.8768 -0.3150
  169MOL   C13534071   6.694   4.155   1.253  0.0536 -0.3856  0.2769
  169MOL   H13634072   6.644   4.489   1.231  2.9070  1.9067 -0.4754
  169MOL   H13734073   6.774   4.406   1.206 -1.3337 -1.1758  0.9535
  169MOL   H13834074   6.613   4.268   1.032 -0.7183 -2.8009  1.6792
  169MOL   H13934075   6.676   4.067   1.191 -0.5242  0.4193 -0.7062
  169MOL   H14034076   6.794   4.197   1.240  0.3135 -1.6850 -2.3817
  169MOL   H14134077   6.690   4.119   1.355 -0.3826  1.2111  0.8277
  169MOL   C14234078   6.443   4.360   1.103 -0.2388 -0.7276 -0.8850
  169MOL   C14334079   6.366   4.285   0.997  0.5146  0.2465 -0.0078
  169MOL   O14434080   6.333   4.161   1.055  0.3341  0.1158 -0.3854
  169MOL   C14534081   6.330   4.043   0.969  0.2387 -0.4347  0.4067
  169MOL   H14634082   6.452   4.465   1.074  0.2043 -1.0830 -2.0676
  169MOL   H14734083   6.387   4.367   1.196  0.3753  0.9997 -0.6300
  169MOL   H14834084   6.431   4.279   0.909  0.9832 -3.2282  0.5118
  169MOL   H14934085   6.274   4.053   0.876  1.7454 -1.1282 -0.6003
  169MOL   H15034086   6.425   3.991   0.959  0.0637 -0.7345  0.2955
  169MOL   H15134087   6.267   3.965   1.012  1.9783 -2.8931 -1.3899
  169MOL   C15234088   6.230   4.343   0.962 -0.4061 -0.0132  0.5063
  169MOL   C15334089   6.229   4.457   0.851 -0.1690 -0.8579  0.1104
  169MOL   O15434090   6.262   4.390   0.724  0.1126  0.8049 -0.0239
  169MOL   C15534091   6.309   4.462   0.616 -0.4472 -0.4151 -0.2883
  169MOL   H15634092   6.186   4.377   1.055  1.6570  0.9454  1.1568
  169MOL   H15734093   6.171   4.261   0.919  1.4812 -0.9005 -0.4436
  169MOL   H15834094   6.313   4.525   0.863 -0.0675 -1.1964  1.3653
  169MOL   H15934095   6.353   4.398   0.540 -0.0829  0.8786 -1.1996
  169MOL   H16034096   6.248   4.537   0.565  1.2449 -0.3703 -2.3002
  169MOL   H16134097   6.386   4.531   0.651  0.1060 -0.9858 -0.3789
  169MOL   C16234098   6.097   4.538   0.854  0.1461  0.1618 -0.5677
  169MOL   C16334099   6.072   4.625   0.980  0.0285  0.1459  0.0469
  169MOL   O16434100   6.181   4.721   0.985 -0.2824  0.2287  0.3074
  169MOL   C16534101   6.237   4.732   1.115 -0.3013  0.4769  0.4912
  169MOL   H16634102   6.006   4.482   0.833 -0.3430  0.9672 -0.6419
  169MOL   H16734103   6.103   4.608   0.770  0.9351  0.2934 -0.4095
  169MOL   H16834104   6.066   4.561   1.067  3.1894  0.3136  0.4501
  169MOL   H16934105   6.163   4.763   1.189  0.0125  1.0755  0.5626
  169MOL   H17034106   6.272   4.635   1.150  0.0195  0.3802 -0.0902
  169MOL   H17134107   6.322   4.800   1.122  0.5314 -0.2556 -1.9677
  169MOL   C17234108   5.947   4.706   0.971  0.1424 -0.6344 -0.9779
  169MOL   C17334109   5.816   4.630   0.985 -0.3041  0.6214 -0.4361
  169MOL   O17434110   5.804   4.579   1.120  0.3523 -0.3833  0.3966
  169MOL   C17534111   5.811   4.441   1.135  0.3227 -0.5020  0.5811
  169MOL   H17634112   5.942   4.770   0.883 -0.8735  1.6568  0.6870
  169MOL   H17734113   5.950   4.773   1.057 -2.2356 -0.4488 -1.0125
  169MOL   H17834114   5.802   4.556   0.907 -2.5954  0.0263  0.4877
  169MOL   H17934115   5.905   4.400   1.099 -0.0584  1.5254 -2.8663
  169MOL   H18034116   5.806   4.401   1.237  3.4378 -1.5605  0.3636
  169MOL   H18134117   5.735   4.393   1.073  0.7904 -1.4298  0.7241
  169MOL   C18234118   5.703   4.717   0.955 -0.3635 -0.4268 -0.1075
  169MOL   C18334119   5.567   4.642   0.969  0.6449  0.1935 -0.4156
  169MOL   O18434120   5.469   4.740   0.963  0.6591  0.5889  0.6038
  169MOL   C18534121   5.428   4.780   1.090 -0.1392  0.6462 -0.0121
  169MOL   H18634122   5.721   4.766   0.859 -2.0241  1.0634  0.3251
  169MOL   H18734123   5.708   4.791   1.035  2.4201  1.3893 -1.8692
  169MOL   H18834124   5.566   4.584   1.062  1.8637  2.1877  0.8976
  169MOL   H18934125   5.372   4.704   1.144 -1.0411  0.3268 -1.3700
  169MOL   H19034126   5.497   4.828   1.159 -0.2337 -1.6114  1.6961
  169MOL   H19134127   5.356   4.860   1.074 -0.7599  0.7667  3.1564
  169MOL   C19234128   5.534   4.539   0.856 -0.5377 -0.0616  0.4153
  169MOL   C19334129   5.421   4.437   0.885  0.2476 -0.6106 -0.1728
  169MOL   O19434130   5.467   4.339   0.983  0.0730  0.2406 -0.1372
  169MOL   C19534131   5.361   4.250   1.023 -0.0609 -0.1510 -0.1608
  169MOL   H19634132   5.621   4.482   0.822 -1.6060 -1.1206 -0.5739
  169MOL   H19734133   5.506   4.590   0.764 -1.3434 -0.1878  0.5857
  169MOL   H19834134   5.388   4.384   0.796  0.8324  1.9071 -1.9309
  169MOL   H19934135   5.400   4.175   1.092 -0.6413 -2.0432 -1.8376
  169MOL   H20034136   5.286   4.315   1.068  1.8186  1.5581  0.5624
  169MOL   H20134137   5.319   4.199   0.936 -0.4680 -0.7894  0.4060
  169MOL   H20234138   5.325   4.481   0.913 -0.0892 -0.0672 -2.1110
  170MOL     C134139   1.948   3.593   2.957 -0.3802 -0.4242  0.8332
  170MOL     C234140   1.949   3.493   2.840 -0.4957  0.6266 -0.1181
  170MOL     O334141   1.856   3.393   2.881  0.0115 -0.2753 -0.0782
  170MOL     C434142   1.922   3.271   2.911  0.3494  0.5518  0.1763
  170MOL     H534143   1.979   3.541   3.048  0.4418 -0.0903  0.7448
  170MOL     H634144   2.033   3.660   2.944  1.4651 -2.4516  2.2041
  170MOL     H734145   2.049   3.457   2.816 -0.6934  0.0066 -0.0216
  170MOL     H834146   1.856   3.186   2.894  1.0702  0.1822 -0.8207
  170MOL     H934147   1.994   3.260   2.830  0.5619 -0.0927  0.4461
  170MOL    H1034148   1.970   3.279   3.009 -0.0726 -0.7727  0.5040
  170MOL    H1134149   1.851   3.640   2.978 -0.1664  0.5204 -0.2466
  170MOL    C1234150   1.892   3.571   2.713  0.4870 -0.5823 -0.9664
  170MOL    C1334151   1.885   3.498   2.579  0.3603 -0.3348  0.6444
  170MOL    O1434152   1.825   3.587   2.488  0.5809 -0.9730 -0.4127
  170MOL    C1534153   1.684   3.556   2.481  0.2090 -0.2231 -0.3736
  170MOL    H1634154   1.951   3.662   2.703  2.1725 -1.3542  1.3888
  170MOL    H1734155   1.793   3.599   2.749  0.7213 -1.7754  0.6645
  170MOL    H1834156   1.828   3.407   2.599  0.7175 -1.0870 -1.6448
  170MOL    H1934157   1.675   3.453   2.446 -0.8621 -0.0064 -0.7789
  170MOL    H2034158   1.636   3.561   2.578 -1.5671  0.9313 -1.2825
  170MOL    H2134159   1.639   3.628   2.412 -0.5542 -0.4915 -0.1579
  170MOL    C2234160   2.025   3.472   2.530  0.0042 -0.0727 -0.5502
  170MOL    C2334161   2.024   3.397   2.390  0.2188  0.1891 -0.4479
  170MOL    O2434162   2.151   3.400   2.321  0.1819  0.7496 -0.2332
  170MOL    C2534163   2.213   3.524   2.293 -0.1791 -0.6690 -0.2359
  170MOL    H2634164   2.080   3.413   2.604 -0.3671 -0.3104 -0.4638
  170MOL    H2734165   2.077   3.567   2.521  1.3869 -0.8189 -0.5786
  170MOL    H2834166   1.949   3.456   2.338 -0.0779 -0.0456 -0.2818
  170MOL    H2934167   2.302   3.540   2.354 -0.4951  1.5513 -0.3123
  170MOL    H3034168   2.238   3.528   2.187 -0.4739  0.4029 -0.2746
  170MOL    H3134169   2.150   3.610   2.316 -1.9340 -1.6995 -1.0660
  170MOL    C3234170   1.952   3.259   2.374  0.2747 -0.1046 -0.1990
  170MOL    C3334171   2.018   3.137   2.428  0.0350  0.8987 -0.0866
  170MOL    O3434172   2.044   3.154   2.570  0.0224  0.0756  0.2515
  170MOL    C3534173   2.172   3.108   2.602  0.0829  0.1845  0.0635
  170MOL    H3634174   1.952   3.251   2.265 -1.4661 -0.1522 -0.2120
  170MOL    H3734175   1.848   3.267   2.405  0.9390 -1.2272  2.3773
  170MOL    H3834176   2.112   3.122   2.375 -0.2434  0.5090 -0.4720
  170MOL    H3934177   2.204   3.119   2.705 -2.3202  1.0710  0.7632
  170MOL    H4034178   2.176   3.002   2.578 -0.9946  0.5282 -1.7134
  170MOL    H4134179   2.251   3.171   2.561 -0.4682  1.7788  1.3787
  170MOL    C4234180   1.930   3.010   2.432  0.4312 -0.4667  0.4082
  170MOL    C4334181   1.906   2.936   2.301  0.0088 -0.1105  0.0835
  170MOL    O4434182   1.852   3.034   2.213 -0.3723 -0.3666  0.1885
  170MOL    C4534183   1.788   2.987   2.092  0.4766 -0.7474  0.4248
  170MOL    H4634184   1.829   3.035   2.466  0.9609  1.6604  0.4690
  170MOL    H4734185   1.967   2.944   2.510 -2.1425 -3.4665 -0.7887
  170MOL    H4834186   1.827   2.862   2.316 -1.5257  1.5130  0.1386
  170MOL    H4934187   1.824   2.893   2.048  3.3799 -0.5561  2.2941
  170MOL    H5034188   1.682   2.970   2.108  0.6848 -1.5655  0.9794
  170MOL    H5134189   1.781   3.062   2.013 -0.9127 -0.5133  0.7592
  170MOL    C5234190   2.040   2.879   2.236  0.3889  0.3302  0.7092
  170MOL    C5334191   2.124   2.782   2.324  0.3742 -0.8903  0.8110
  170MOL    O5434192   2.044   2.671   2.370  0.3301  0.2978 -0.0247
  170MOL    C5534193   2.090   2.596   2.482  0.6169  0.5936  0.5096
  170MOL    H5634194   2.096   2.963   2.194 -0.8352 -0.0698 -1.8091
  170MOL    H5734195   2.015   2.821   2.147  1.6972 -2.2869  1.9896
  170MOL    H5834196   2.154   2.847   2.406  1.6716  0.4990 -0.7092
  170MOL    H5934197   2.073   2.639   2.581 -1.2907  1.0747 -0.0015
  170MOL    H6034198   2.019   2.514   2.494  0.0996  1.0111  0.3230
  170MOL    H6134199   2.189   2.553   2.473 -0.7509 -2.7656  0.5139
  170MOL    C6234200   2.245   2.723   2.248 -0.9494  0.6392 -0.1725
  170MOL    C6334201   2.357   2.830   2.223  0.1865  0.2455 -0.6027
  170MOL    O6434202   2.385   2.871   2.355 -0.0635  0.6058 -0.3255
  170MOL    C6534203   2.429   3.005   2.367  0.4273 -0.2163  0.2050
  170MOL    H6634204   2.212   2.680   2.153 -0.6228 -0.0100  0.0051
  170MOL    H6734205   2.294   2.642   2.303 -1.1160  2.4743  2.7908
  170MOL    H6834206   2.310   2.906   2.161 -1.5718 -1.1034 -0.9504
  170MOL    H6934207   2.447   3.018   2.473  1.7064 -0.4895  0.0316
  170MOL    H7034208   2.521   3.018   2.309  0.6909 -0.9255  0.4704
  170MOL    H7134209   2.366   3.088   2.334 -0.5834 -0.3135  1.8392
  170MOL    C7234210   2.490   2.775   2.150 -0.3743  0.2421  0.1941
  170MOL    C7334211   2.464   2.689   2.028 -0.0225 -0.3714 -0.1245
  170MOL    O7434212   2.371   2.758   1.952 -0.8679 -0.0057  0.3084
  170MOL    C7534213   2.297   2.692   1.861 -0.4512  0.1881  0.5740
  170MOL    H7634214   2.552   2.733   2.229 -0.7520  1.1381  0.9851
  170MOL    H7734215   2.536   2.866   2.112  0.9066  0.2100  1.6051
  170MOL    H7834216   2.415   2.598   2.064 -2.1326  0.3575 -1.1359
  170MOL    H7934217   2.243   2.609   1.906 -0.7820  0.4750  0.7140
  170MOL    H8034218   2.233   2.768   1.816 -1.0345 -1.1919 -0.9714
  170MOL    H8134219   2.354   2.651   1.778 -0.2029  2.4675 -0.4221
  170MOL    C8234220   2.597   2.646   1.952 -0.3571  0.1971  0.3079
  170MOL    C8334221   2.633   2.493   1.966 -0.2196  0.0050  0.0548
  170MOL    O8434222   2.728   2.444   1.867 -0.0018 -0.0198  0.0718
  170MOL    C8534223   2.685   2.466   1.730  0.1123  0.0965  0.2080
  170MOL    H8634224   2.680   2.711   1.981  0.6471  0.1880 -2.4731
  170MOL    H8734225   2.579   2.684   1.852  3.5514  2.5389  0.3678
  170MOL    H8834226   2.534   2.453   1.945 -1.1857  1.6721  1.2441
  170MOL    H8934227   2.722   2.388   1.664  0.3422  0.0771  0.3595
  170MOL    H9034228   2.576   2.478   1.721  0.4539  1.1326 -3.2835
  170MOL    H9134229   2.732   2.559   1.697  1.0397 -0.1891  0.7225
  170MOL    C9234230   2.687   2.444   2.102  0.3710  0.0693  0.4178
  170MOL    C9334231   2.816   2.514   2.145  0.2175 -1.1460 -0.4551
  170MOL    O9434232   2.778   2.629   2.208  0.3410  0.2383 -0.3202
  170MOL    C9534233   2.880   2.727   2.222 -0.0322 -0.1946  0.8979
  170MOL    H9634234   2.707   2.337   2.098  0.5920  0.1010  0.6242
  170MOL    H9734235   2.611   2.457   2.179 -3.3213 -0.9555 -2.8891
  170MOL    H9834236   2.876   2.525   2.055 -1.9246 -1.8791 -2.0281
  170MOL    H9934237   2.840   2.789   2.302 -3.2189  0.1024 -0.8219
  170MOL   H10034238   2.974   2.677   2.245  0.1671 -0.8275 -1.1580
  170MOL   H10134239   2.900   2.788   2.134 -0.1730 -2.1692 -0.5432
  170MOL   C10234240   2.890   2.429   2.257 -0.0500 -0.0411 -0.2902
  170MOL   C10334241   3.003   2.339   2.198 -0.4669 -0.2740  0.7948
  170MOL   O10434242   3.111   2.432   2.193  0.4771  0.4589 -0.6491
  170MOL   C10534243   3.166   2.438   2.063 -0.3835  0.2666 -0.0524
  170MOL   H10634244   2.822   2.367   2.314 -0.9182  1.2636  0.1210
  170MOL   H10734245   2.939   2.489   2.334  1.4767 -1.2651 -0.2661
  170MOL   H10834246   2.975   2.295   2.102 -1.4253  0.6855  0.6280
  170MOL   H10934247   3.244   2.514   2.060 -0.6054  0.4507 -1.4770
  170MOL   H11034248   3.223   2.350   2.034 -1.1076  0.2605 -1.5219
  170MOL   H11134249   3.097   2.451   1.979 -0.2401  1.9756  0.0608
  170MOL   C11234250   3.047   2.229   2.298 -0.3343 -0.0333  0.5569
  170MOL   C11334251   2.957   2.106   2.281 -0.2099  0.0841 -0.4591
  170MOL   O11434252   2.984   2.039   2.154  0.5752  0.3015  0.0854
  170MOL   C11534253   2.872   1.984   2.080  0.4941 -0.3270  0.0428
  170MOL   H11634254   3.057   2.269   2.399 -0.2037  1.3634 -0.0001
  170MOL   H11734255   3.143   2.189   2.265 -2.4009 -3.4581 -1.6544
  170MOL   H11834256   2.852   2.131   2.291  0.5206  2.7879  1.0475
  170MOL   H11934257   2.915   1.902   2.023 -0.5509 -0.9829  0.1692
  170MOL   H12034258   2.803   1.936   2.150 -0.7255 -0.0380 -0.9351
  170MOL   H12134259   2.827   2.061   2.018 -1.1448 -0.9261  0.4429
  170MOL   C12234260   2.988   1.997   2.386 -0.1771 -0.0043  0.7857
  170MOL   C12334261   2.982   2.046   2.529  0.2265  0.6542 -0.5215
  170MOL   O12434262   2.849   2.090   2.553  0.2681  0.6775 -0.2216
  170MOL   C12534263   2.813   2.154   2.676 -0.3197  0.5203 -0.1361
  170MOL   H12634264   3.091   1.972   2.361  0.1043 -0.5288  2.4596
  170MOL   H12734265   2.917   1.915   2.374  1.8652 -1.8901  1.4036
  170MOL   H12834266   3.053   2.128   2.540 -0.7226  1.4661 -0.3213
  170MOL   H12934267   2.776   2.089   2.756 -1.6285  1.7187  0.2570
  170MOL   H13034268   2.895   2.208   2.725 -0.9116 -0.6911  2.2994
  170MOL   H13134269   2.729   2.215   2.643 -1.7528 -1.6923 -0.6924
  170MOL   C13234270   3.020   1.936   2.638 -0.3616 -0.6196  0.6993
  170MOL   C13334271   3.170   1.897   2.632 -0.0834 -0.6985  0.1326
  170MOL   O13434272   3.239   2.016   2.650 -0.0127  0.1688  0.1398
  170MOL   C13534273   3.380   2.008   2.629  0.6412  0.4425  0.0454
  170MOL   H13634274   2.954   1.850   2.629 -1.4568  0.1301  1.5059
  170MOL   H13734275   2.995   1.982   2.733  0.7184 -0.7555  1.0663
  170MOL   H13834276   3.210   1.861   2.537 -1.4268 -1.4625 -0.1519
  170MOL   H13934277   3.413   2.106   2.662  2.0174  0.3680 -1.0819
  170MOL   H14034278   3.439   1.924   2.665  0.9340 -0.5398 -2.5796
  170MOL   H14134279   3.393   2.006   2.520  0.1726  0.0857 -0.0035
  170MOL   C14234280   3.199   1.796   2.748  0.3417 -0.0718 -0.4103
  170MOL   C14334281   3.150   1.654   2.728 -0.4581 -0.5786  0.7463
  170MOL   O14434282   3.252   1.572   2.670 -0.0938  0.4938  0.2256
  170MOL   C14534283   3.303   1.612   2.543  0.2880 -0.0651  0.5401
  170MOL   H14634284   3.157   1.832   2.841 -2.4733 -3.1896 -0.3956
  170MOL   H14734285   3.303   1.788   2.781  0.0188  1.9229  1.1723
  170MOL   H14834286   3.070   1.642   2.655  0.8238  1.2849 -1.0506
  170MOL   H14934287   3.382   1.540   2.525  1.1270 -0.0779  3.8561
  170MOL   H15034288   3.229   1.621   2.463 -0.6445 -1.4531  1.2079
  170MOL   H15134289   3.358   1.705   2.550 -0.2554  0.1265  3.0378
  170MOL   C15234290   3.103   1.588   2.855  0.5198  0.2905 -0.1412
  170MOL   C15334291   2.956   1.575   2.890  0.7392  0.6105 -0.0819
  170MOL   O15434292   2.894   1.699   2.852  0.1318 -0.2212 -0.0002
  170MOL   C15534293   2.823   1.762   2.952 -0.4172 -0.5417 -0.3477
  170MOL   H15634294   3.143   1.632   2.946  2.8162  2.9673 -2.3200
  170MOL   H15734295   3.137   1.485   2.861  1.9135  0.9109  3.9258
  170MOL   H15834296   2.943   1.543   2.993  0.3309 -2.5253 -1.0741
  170MOL   H15934297   2.891   1.776   3.036  0.7846  0.6406 -1.4732
  170MOL   H16034298   2.784   1.859   2.921 -0.1776  0.6962  3.0113
  170MOL   H16134299   2.735   1.705   2.983 -2.0958  1.6302 -0.9885
  170MOL   C16234300   2.900   1.454   2.807  0.0492 -1.0945  0.0978
  170MOL   C16334301   2.746   1.434   2.814 -0.5123 -0.2074 -0.3114
  170MOL   O16434302   2.693   1.342   2.724 -0.9304  0.4835 -0.2969
  170MOL   C16534303   2.690   1.390   2.589 -0.2160  0.1284 -0.7970
  170MOL   H16634304   2.949   1.364   2.845  0.6473 -0.3480  1.1195
  170MOL   H16734305   2.928   1.458   2.702  2.8465 -1.0349  0.8125
  170MOL   H16834306   2.695   1.529   2.796 -2.4526 -1.4748 -1.5694
  170MOL   H16934307   2.789   1.372   2.547  0.2001 -1.9482  1.0195
  170MOL   H17034308   2.608   1.342   2.536  0.3964  0.6771 -2.2765
  170MOL   H17134309   2.669   1.497   2.580  2.4871  0.6954 -0.7713
  170MOL   C17234310   2.698   1.395   2.958 -0.3419 -0.0753 -0.5645
  170MOL   C17334311   2.550   1.374   2.964  0.3509 -0.4134  0.1352
  170MOL   O17434312   2.543   1.315   3.099 -0.2010 -0.4804  0.3457
  170MOL   C17534313   2.457   1.212   3.116 -0.9534  0.0652  0.5206
  170MOL   H17634314   2.729   1.476   3.023 -0.6736 -0.6671  0.3377
  170MOL   H17734315   2.762   1.311   2.986  0.5763  1.0643  0.8072
  170MOL   H17834316   2.533   1.298   2.888  1.6393  1.4504 -2.1073
  170MOL   H17934317   2.352   1.242   3.121 -1.8203 -2.8722  1.7288
  170MOL   H18034318   2.488   1.133   3.047 -1.6379 -0.4471  0.7854
  170MOL   H18134319   2.482   1.175   3.216  0.8145 -0.0848  0.0357
  170MOL   C18234320   2.463   1.501   2.951 -0.0552 -0.8096  0.2201
  170MOL   C18334321   2.315   1.488   2.942 -0.1568  0.1217  0.5478
  170MOL   O18434322   2.258   1.622   2.952 -0.1275 -0.6438 -0.1401
  170MOL   C18534323   2.213   1.662   3.081  0.3916 -0.1502 -0.3045
  170MOL   H18634324   2.491   1.549   2.857 -0.8673 -2.1781 -0.7398
  170MOL   H18734325   2.477   1.576   3.028 -1.6951  0.4640 -0.7059
  170MOL   H18834326   2.271   1.439   3.029  1.2667 -0.3484  1.0096
  170MOL   H18934327   2.154   1.753   3.073  0.7329 -0.0802 -2.5463
  170MOL   H19034328   2.152   1.592   3.138 -0.2118 -2.6070 -3.7954
  170MOL   H19134329   2.300   1.696   3.137  0.6845 -1.0000 -0.2231
  170MOL   C19234330   2.259   1.398   2.832  0.1306  0.2865  1.2467
  170MOL   C19334331   2.294   1.415   2.681 -0.4987  0.3320  0.6066
  170MOL   O19434332   2.224   1.327   2.602  0.3662  0.0850 -0.2273
  170MOL   C19534333   2.260   1.314   2.465 -0.8101  0.2137 -1.0013
  170MOL   H19634334   2.152   1.416   2.836 -0.2180 -1.3647  0.0161
  170MOL   H19734335   2.292   1.297   2.857  2.4099  0.2574 -1.5657
  170MOL   H19834336   2.399   1.384   2.679 -0.0744  1.7110  0.8378
  170MOL   H19934337   2.260   1.414   2.422 -0.8492  0.4844 -0.3794
  170MOL   H20034338   2.356   1.267   2.446 -0.8643 -0.5100  0.3944
  170MOL   H20134339   2.177   1.259   2.418 -1.0723  1.3138 -1.8465
  170MOL   H20234340   2.295   1.514   2.637 -0.2236  1.7746  3.7167
  171MOL     C134341   6.650   6.376   4.094 -0.2051 -0.7408 -0.8373
  171MOL     C234342   6.633   6.237   4.035  0.4619  0.2750  1.0662
  171MOL     O334343   6.491   6.225   3.977  0.5079 -0.7522 -0.3683
  171MOL     C434344   6.429   6.098   4.020  0.2598  0.0812 -0.1793
  171MOL     H534345   6.753   6.404   4.113 -0.3006 -0.5053 -0.6585
  171MOL     H634346   6.609   6.446   4.021  1.5516  0.0344 -1.0835
  171MOL     H734347   6.651   6.169   4.119  0.2500 -2.0425 -0.7336
  171MOL     H834348   6.476   6.003   3.992 -2.3546 -1.1803 -0.4202
  171MOL     H934349   6.416   6.104   4.128 -1.8390  1.6866 -0.5152
  171MOL    H1034350   6.327   6.095   3.982 -1.4870 -1.6105  4.2474
  171MOL    H1134351   6.594   6.383   4.187  1.1212 -0.8880 -0.0149
  171MOL    C1234352   6.725   6.187   3.922 -0.1463 -0.6497  0.0660
  171MOL    C1334353   6.872   6.231   3.933  0.6760 -0.2144  0.1881
  171MOL    O1434354   6.915   6.173   4.055  0.4858  0.2179  0.0050
  171MOL    C1534355   7.028   6.236   4.118  0.7438 -0.3499 -0.5833
  171MOL    H1634356   6.689   6.235   3.831 -2.6798 -0.3836  1.1725
  171MOL    H1734357   6.711   6.081   3.903 -2.9944 -0.6696  1.9859
  171MOL    H1834358   6.875   6.340   3.934  3.5984 -0.2732  1.4123
  171MOL    H1934359   6.999   6.322   4.178  1.8652 -0.5960  0.3216
  171MOL    H2034360   7.082   6.169   4.185 -0.1677  2.9578  3.6843
  171MOL    H2134361   7.102   6.265   4.043  0.5821 -0.0257 -0.6148
  171MOL    C2234362   6.960   6.169   3.823  0.6060 -0.4654  0.1675
  171MOL    C2334363   6.956   6.253   3.695 -0.8461 -0.5643 -0.0887
  171MOL    O2434364   7.042   6.364   3.719  0.6945  0.3920 -0.0430
  171MOL    C2534365   6.985   6.488   3.665 -0.1469 -0.8063 -0.5070
  171MOL    H2634366   6.918   6.069   3.808 -2.2537  0.7215 -0.0780
  171MOL    H2734367   7.063   6.161   3.859  0.6234  1.8031  0.7072
  171MOL    H2834368   6.852   6.283   3.683 -0.9290 -1.4709 -1.8139
  171MOL    H2934369   7.062   6.562   3.683 -1.6719  0.4256  1.1304
  171MOL    H3034370   6.962   6.477   3.559 -2.1988 -3.7303  0.1747
  171MOL    H3134371   6.905   6.539   3.719  0.0314 -1.5535  0.4805
  171MOL    C3234372   7.004   6.185   3.564  0.2612 -0.1639  0.4562
  171MOL    C3334373   6.917   6.077   3.491 -0.6190  0.3465  0.2886
  171MOL    O3434374   6.824   6.151   3.412  0.1438  0.7553 -0.0334
  171MOL    C3534375   6.693   6.153   3.454 -0.1992 -0.6994 -0.1658
  171MOL    H3634376   7.094   6.130   3.592  0.7434  0.6436  0.5029
  171MOL    H3734377   7.038   6.262   3.495  0.2093 -0.7762 -0.2679
  171MOL    H3834378   6.869   6.017   3.568  0.6897  1.9271  2.4063
  171MOL    H3934379   6.676   6.185   3.557  1.4103 -1.5892  0.3921
  171MOL    H4034380   6.642   6.217   3.381  0.1516  0.1185  0.2984
  171MOL    H4134381   6.658   6.050   3.447 -1.7517 -0.1536 -0.6922
  171MOL    C4234382   7.013   5.995   3.389  0.1919 -0.5151  0.5083
  171MOL    C4334383   6.948   5.876   3.304 -0.9952  0.8556  0.5546
  171MOL    O4434384   7.057   5.809   3.240 -0.4680 -0.0540  0.2280
  171MOL    C4534385   7.110   5.867   3.124 -0.1529 -0.1925  0.0393
  171MOL    H4634386   7.084   5.949   3.458  0.2261  1.3505  1.7648
  171MOL    H4734387   7.067   6.063   3.324 -0.1204  1.8055  2.5894
  171MOL    H4834388   6.870   5.911   3.236 -0.7763  1.4991  0.6283
  171MOL    H4934389   7.050   5.863   3.034  3.1662 -1.5867 -2.2181
  171MOL    H5034390   7.151   5.968   3.127 -0.5039 -0.0659  0.7266
  171MOL    H5134391   7.187   5.795   3.096  0.7815  0.6973  0.2887
  171MOL    C5234392   6.891   5.766   3.392  0.1009  0.3622 -0.5916
  171MOL    C5334393   6.823   5.651   3.304  0.8289 -0.0226 -0.0004
  171MOL    O5434394   6.805   5.556   3.410 -0.3501 -0.6774 -0.6051
  171MOL    C5534395   6.829   5.422   3.368 -0.0330  0.3705  0.1401
  171MOL    H5634396   6.814   5.806   3.459  0.4148  0.8265 -0.5016
  171MOL    H5734397   6.958   5.721   3.466 -0.7524 -1.2429 -0.7742
  171MOL    H5834398   6.899   5.618   3.233  0.3531 -3.1707  0.9081
  171MOL    H5934399   6.926   5.420   3.317  0.4770 -1.5344  1.1378
  171MOL    H6034400   6.827   5.365   3.461  1.0928 -0.2389 -0.1894
  171MOL    H6134401   6.753   5.375   3.305 -1.0179 -0.5548  1.9905
  171MOL    C6234402   6.688   5.691   3.236 -0.1130 -0.3151 -0.0527
  171MOL    C6334403   6.707   5.700   3.078 -0.4358  0.4786  0.7931
  171MOL    O6434404   6.720   5.570   3.034  0.0889 -0.3550  0.5263
  171MOL    C6534405   6.755   5.544   2.901  0.0154 -0.0293  0.3617
  171MOL    H6634406   6.652   5.781   3.286  0.9266 -0.2344  0.5756
  171MOL    H6734407   6.612   5.615   3.252 -0.4144 -0.8170 -3.5980
  171MOL    H6834408   6.785   5.765   3.038  0.6099 -0.5279  1.1650
  171MOL    H6934409   6.684   5.578   2.826  0.2956 -1.8488 -0.7670
  171MOL    H7034410   6.849   5.594   2.877 -0.2193  0.2419 -0.0103
  171MOL    H7134411   6.763   5.436   2.888 -0.3961  0.1700 -1.7805
  171MOL    C7234412   6.570   5.750   3.015 -0.0357 -1.1910  0.3238
  171MOL    C7334413   6.520   5.885   3.070 -0.0802 -0.0745 -0.4273
  171MOL    O7434414   6.622   5.989   3.061  0.6038 -0.0620  0.2522
  171MOL    C7534415   6.611   6.107   3.136 -0.1200  0.1077 -0.1639
  171MOL    H7634416   6.494   5.677   3.041  1.5834 -3.0999 -0.2210
  171MOL    H7734417   6.588   5.747   2.908 -0.3057 -3.1089  0.3293
  171MOL    H7834418   6.500   5.865   3.175  0.5288  0.4498 -0.2057
  171MOL    H7934419   6.705   6.161   3.138  0.4952 -0.9206 -0.7441
  171MOL    H8034420   6.547   6.182   3.088 -1.1474  0.5984  1.9259
  171MOL    H8134421   6.571   6.095   3.236  2.1842  1.1923  0.9207
  171MOL    C8234422   6.388   5.940   3.012 -0.1779 -0.8953  0.4170
  171MOL    C8334423   6.269   5.846   2.975 -0.0502  0.0789  0.4387
  171MOL    O8434424   6.196   5.816   3.092 -0.3623 -0.4224 -0.0821
  171MOL    C8534425   6.234   5.702   3.160  0.2029 -1.0629 -0.7531
  171MOL    H8634426   6.417   5.977   2.914 -1.1501  1.1306  0.8486
  171MOL    H8734427   6.357   6.029   3.067  2.3394  0.5920 -0.4755
  171MOL    H8834428   6.290   5.756   2.917 -1.5897 -0.6470  0.9782
  171MOL    H8934429   6.341   5.697   3.181  0.9723  1.8849 -3.5811
  171MOL    H9034430   6.172   5.682   3.247  0.5139  0.2548 -0.2353
  171MOL    H9134431   6.234   5.614   3.095 -0.2378 -1.6913  0.0961
  171MOL    C9234432   6.165   5.923   2.887 -0.0096 -0.3171 -0.1889
  171MOL    C9334433   6.032   5.850   2.852  0.5157  0.0383 -0.3993
  171MOL    O9434434   5.926   5.946   2.845  0.1828 -0.3563 -0.2971
  171MOL    C9534435   5.883   5.994   2.973  0.2508  0.1974  0.0286
  171MOL    H9634436   6.212   5.972   2.801 -0.0294  0.7038  0.3789
  171MOL    H9734437   6.142   6.012   2.945  0.4091  1.6935 -2.9664
  171MOL    H9834438   5.999   5.782   2.931  2.2071  0.6749  0.8859
  171MOL    H9934439   5.803   6.068   2.965 -0.3268 -0.3451  0.7691
  171MOL   H10034440   5.844   5.915   3.037  1.6277  0.6389  1.4264
  171MOL   H10134441   5.961   6.042   3.032  1.1430 -1.0658 -0.1179
  171MOL   C10234442   6.024   5.781   2.716 -0.4685  0.4642  0.6749
  171MOL   C10334443   5.897   5.696   2.691 -0.4205 -0.0837 -0.5763
  171MOL   O10434444   5.903   5.673   2.552  0.4914  0.1904 -0.4071
  171MOL   C10534445   5.805   5.743   2.481 -0.4201  0.3757 -0.5528
  171MOL   H10634446   6.110   5.715   2.713 -1.6255 -1.0128 -1.7763
  171MOL   H10734447   6.056   5.842   2.631 -1.2699  0.5122  0.3962
  171MOL   H10834448   5.805   5.750   2.712  0.2443  0.8729 -0.0478
  171MOL   H10934449   5.807   5.713   2.376 -1.5074  0.8391 -0.7135
  171MOL   H11034450   5.705   5.708   2.507 -0.5644 -0.7291 -2.4816
  171MOL   H11134451   5.806   5.852   2.474 -0.8499  0.3050 -2.0604
  171MOL   C11234452   5.903   5.558   2.765  0.4091  0.1574  0.3412
  171MOL   C11334453   5.782   5.481   2.774  0.1145 -0.0278 -0.8526
  171MOL   O11434454   5.810   5.371   2.864 -0.0759 -0.1887 -0.0160
  171MOL   C11534455   5.855   5.247   2.803  0.6593 -0.1486  0.8775
  171MOL   H11634456   5.944   5.566   2.866  1.4513  1.0342 -0.1291
  171MOL   H11734457   5.977   5.500   2.710  1.3696 -0.3386  2.1027
  171MOL   H11834458   5.750   5.443   2.677  1.0018  0.3231 -1.2804
  171MOL   H11934459   5.947   5.257   2.745  0.4909  2.4745  0.9965
  171MOL   H12034460   5.890   5.181   2.882  2.1353 -0.8809 -0.3505
  171MOL   H12134461   5.785   5.199   2.736 -0.9581  2.0063  0.9517
  171MOL   C12234462   5.660   5.558   2.840 -0.0198  0.6380 -0.4642
  171MOL   C12334463   5.543   5.467   2.889 -1.0023  0.2515 -0.6184
  171MOL   O12434464   5.435   5.540   2.952  0.5988  0.0533  0.4777
  171MOL   C12534465   5.465   5.593   3.082  0.5745  0.2428 -0.3913
  171MOL   H12634466   5.631   5.629   2.762 -1.7427 -1.5867 -1.9241
  171MOL   H12734467   5.696   5.620   2.922  1.6325  0.3768 -0.9792
  171MOL   H12834468   5.586   5.404   2.967  0.1497 -0.4902 -1.8349
  171MOL   H12934469   5.382   5.589   3.152  0.8456 -0.0986 -0.0902
  171MOL   H13034470   5.541   5.535   3.134  0.6396 -0.1587 -0.9352
  171MOL   H13134471   5.511   5.692   3.074 -4.2785  2.6034 -0.6931
  171MOL   C13234472   5.491   5.367   2.775 -0.3373  0.0240 -0.2015
  171MOL   C13334473   5.441   5.427   2.648 -0.1918  0.3557 -0.3867
  171MOL   O13434474   5.443   5.342   2.535  0.1146 -0.0780 -0.1724
  171MOL   C13534475   5.574   5.326   2.491 -0.7696  0.1192  0.5636
  171MOL   H13634476   5.417   5.298   2.817 -1.3145  1.1638 -0.0226
  171MOL   H13734477   5.577   5.304   2.752 -0.4665 -0.2980  0.1877
  171MOL   H13834478   5.507   5.511   2.624  0.6485 -0.2727 -0.3012
  171MOL   H13934479   5.625   5.241   2.537  0.9494  0.0156 -1.4311
  171MOL   H14034480   5.563   5.303   2.385  1.1830  1.6887 -0.0157
  171MOL   H14134481   5.649   5.404   2.506  0.2025 -0.6378 -0.2274
  171MOL   C14234482   5.296   5.474   2.664  0.4549 -0.3922  0.2595
  171MOL   C14334483   5.256   5.606   2.596 -0.5644 -0.1478 -0.9123
  171MOL   O14434484   5.115   5.630   2.601  0.1457 -0.0331 -0.4792
  171MOL   C14534485   5.037   5.569   2.507  0.2440 -0.3341  0.0249
  171MOL   H14634486   5.272   5.485   2.770  0.1197  0.8883  0.0522
  171MOL   H14734487   5.227   5.397   2.631  0.9971 -0.9953  0.5110
  171MOL   H14834488   5.290   5.610   2.492  2.0839 -0.7751 -0.1133
  171MOL   H14934489   4.996   5.480   2.556  0.7812  0.0862  1.2476
  171MOL   H15034490   4.958   5.633   2.469  1.4151  0.8784 -0.4020
  171MOL   H15134491   5.092   5.536   2.418  1.1337 -1.6719  1.0399
  171MOL   C15234492   5.309   5.729   2.676 -0.8135  1.1635  0.2339
  171MOL   C15334493   5.308   5.863   2.591  0.0369 -0.1480 -0.6146
  171MOL   O15434494   5.424   5.867   2.497  0.4929  0.4186 -0.3342
  171MOL   C15534495   5.527   5.953   2.539 -0.0090 -0.0900  0.5395
  171MOL   H15634496   5.406   5.715   2.724 -0.0807  0.6163 -1.3759
  171MOL   H15734497   5.235   5.756   2.751 -1.6694 -1.6818  0.5001
  171MOL   H15834498   5.317   5.949   2.658 -0.8962 -1.4074  1.1747
  171MOL   H15934499   5.491   6.042   2.590 -1.5066 -2.0460  3.0070
  171MOL   H16034500   5.585   5.905   2.618  2.7758 -0.5621 -1.7122
  171MOL   H16134501   5.589   5.976   2.452 -1.7542 -0.7824 -0.9219
  171MOL   C16234502   5.179   5.885   2.514  0.2021  0.9131  0.5829
  171MOL   C16334503   5.171   6.009   2.426  0.7170  0.6815 -0.0796
  171MOL   O16434504   5.049   6.000   2.367 -0.4118 -0.3515  0.3016
  171MOL   C16534505   5.052   5.943   2.235  0.0518 -0.1011 -0.1844
  171MOL   H16634506   5.101   5.895   2.590 -0.6126  2.7342 -0.4432
  171MOL   H16734507   5.153   5.803   2.447 -0.5282 -1.1305  3.2647
  171MOL   H16834508   5.259   6.007   2.362  0.6049 -1.8670 -0.2075
  171MOL   H16934509   4.955   5.958   2.189  0.0306  1.3256  0.3174
  171MOL   H17034510   5.119   6.006   2.177 -2.0369  2.4624  0.1280
  171MOL   H17134511   5.092   5.842   2.222 -2.2570 -1.2728  1.5646
  171MOL   C17234512   5.173   6.138   2.505  0.1135 -0.0661 -0.3948
  171MOL   C17334513   5.144   6.262   2.423 -0.0270  0.2578  0.4262
  171MOL   O17434514   5.144   6.365   2.502 -0.0164  0.0792  0.0946
  171MOL   C17534515   5.053   6.471   2.467 -0.0605 -0.2379  0.0735
  171MOL   H17634516   5.262   6.158   2.564  0.5650 -1.9100 -0.4174
  171MOL   H17734517   5.090   6.140   2.575  1.8859  1.9171  1.7229
  171MOL   H17834518   5.039   6.256   2.391  0.2765  3.3783 -1.3785
  171MOL   H17934519   4.949   6.438   2.470  0.1596 -1.0103 -0.5360
  171MOL   H18034520   5.061   6.547   2.544  3.0610 -0.0999 -0.2936
  171MOL   H18134521   5.083   6.512   2.370 -0.6684  2.1573  0.8649
  171MOL   C18234522   5.225   6.287   2.295 -0.5463  0.7269  0.2156
  171MOL   C18334523   5.374   6.294   2.320  0.0065  0.0471  0.1476
  171MOL   O18434524   5.430   6.299   2.189  0.1630  0.3524 -0.3102
  171MOL   C18534525   5.469   6.175   2.144 -0.1599  0.4105 -0.1721
  171MOL   H18634526   5.193   6.375   2.239 -0.9013  0.1754 -0.4557
  171MOL   H18734527   5.202   6.209   2.223  0.5862  0.2419  0.3665
  171MOL   H18834528   5.412   6.213   2.383 -0.5231  1.4055  2.2401
  171MOL   H18934529   5.523   6.174   2.050  0.7824  2.3369  0.3342
  171MOL   H19034530   5.537   6.147   2.224  1.1981  0.9129 -1.1375
  171MOL   H19134531   5.391   6.099   2.136  0.1632  0.1234 -0.5807
  171MOL   C19234532   5.418   6.426   2.397  0.3917 -0.3149 -0.2740
  171MOL   C19334533   5.566   6.417   2.435 -0.0711  0.0504  0.4691
  171MOL   O19434534   5.599   6.536   2.511  0.4502 -0.1556 -0.5630
  171MOL   C19534535   5.603   6.662   2.445  0.3221 -1.0318  1.0418
  171MOL   H19634536   5.363   6.439   2.490  0.6277  2.3432 -0.4828
  171MOL   H19734537   5.395   6.511   2.333 -1.0096 -1.3882 -1.2257
  171MOL   H19834538   5.632   6.405   2.349 -2.3001 -0.4281 -1.2042
  171MOL   H19934539   5.509   6.703   2.409  0.4777 -1.2937  0.3360
  171MOL   H20034540   5.629   6.735   2.522  1.4404 -0.1809 -0.1261
  171MOL   H20134541   5.674   6.665   2.363  0.5127  0.1232  1.2419
  171MOL   H20234542   5.584   6.323   2.488  2.1015 -0.2970 -0.8324
  172MOL     C134543   3.032   2.078   7.587  0.3781 -0.3321  0.0383
  172MOL     C234544   2.897   2.060   7.662  0.2612 -0.0806 -0.0019
  172MOL     O334545   2.886   2.144   7.776  0.2072 -0.1772 -0.0239
  172MOL     C434546   2.966   2.101   0.073  0.1751 -0.9216 -0.2373
  172MOL     H534547   3.050   2.009   7.505 -3.1313 -0.6322 -0.5416
  172MOL     H634548   3.036   2.182   7.552  1.1233  0.0600  1.2482
  172MOL     H734549   2.888   1.957   7.699  0.7587 -0.8835 -2.0398
  172MOL     H834550   2.981   1.993   0.073  0.5407 -0.8734 -0.2110
  172MOL     H934551   3.066   2.143   0.060  0.3348 -1.0478  0.5559
  172MOL    H1034552   2.921   2.133   0.167 -1.2557  2.0867 -1.8687
  172MOL    H1134553   3.126   2.072   7.643  0.1459  2.3734  0.8104
  172MOL    C1234554   2.779   2.101   7.588  0.5061 -0.2311 -0.1612
  172MOL    C1334555   2.761   2.026   7.447 -0.0694 -0.1412 -0.0963
  172MOL    O1434556   2.719   1.892   7.475 -0.2142  0.0928 -0.1533
  172MOL    C1534557   2.801   1.801   7.408 -0.1158 -0.2862  0.3514
  172MOL    H1634558   2.775   2.209   7.573  0.5961  0.1232  2.1582
  172MOL    H1734559   2.693   2.081   7.652  0.2084  1.5063  0.0051
  172MOL    H1834560   2.864   2.043   7.415  0.5030  0.0106  1.7258
  172MOL    H1934561   2.786   1.809   7.300  1.5701  2.3262  0.2634
  172MOL    H2034562   2.900   1.829   7.443 -0.8795  3.1713 -0.0895
  172MOL    H2134563   2.783   1.697   7.436 -1.4650 -1.1119 -3.3245
  172MOL    C2234564   2.661   2.077   7.344 -0.0188 -0.5642  0.0515
  172MOL    C2334565   2.699   2.211   7.275  0.0494  0.1482 -0.8768
  172MOL    O2434566   2.813   2.188   7.201 -0.4067 -1.2182  0.8706
  172MOL    C2534567   2.919   2.270   7.222 -0.3019  0.0329 -0.7658
  172MOL    H2634568   2.563   2.093   7.390  0.0979 -0.8931  0.4212
  172MOL    H2734569   2.651   2.000   7.268  0.3177  0.7614 -1.3577
  172MOL    H2834570   2.704   2.286   7.355 -1.9105 -0.1082 -0.4964
  172MOL    H2934571   2.980   2.280   7.132  0.7172  1.7726  0.0820
  172MOL    H3034572   2.893   2.370   7.254 -1.2071 -0.7177  0.8902
  172MOL    H3134573   2.988   2.226   7.295 -0.5186  1.8898  0.5675
  172MOL    C3234574   2.587   2.258   7.180 -0.7887  1.0425 -0.0469
  172MOL    C3334575   2.617   2.390   7.100 -0.5193  0.8721  0.2038
  172MOL    O3434576   2.501   2.413   7.016 -0.0305 -0.3462  0.6957
  172MOL    C3534577   2.511   2.347   6.892 -0.1992  0.3901  0.2147
  172MOL    H3634578   2.485   2.244   7.216 -0.2502 -2.9073  0.0890
  172MOL    H3734579   2.595   2.193   7.093  1.4467  2.0876 -0.6485
  172MOL    H3834580   2.702   2.368   7.035 -1.6169 -1.1724 -0.5946
  172MOL    H3934581   2.575   2.393   6.816 -0.1673  1.4324  0.8732
  172MOL    H4034582   2.541   2.242   6.895 -0.4507  0.3147  0.1275
  172MOL    H4134583   2.410   2.356   6.852  0.6271  3.4219 -1.2966
  172MOL    C4234584   2.627   2.509   7.192  0.3279  0.1005  0.1836
  172MOL    C4334585   2.671   2.644   7.142  0.3545  0.0860 -0.0593
  172MOL    O4434586   2.807   2.619   7.102  0.3640 -0.5910 -0.3311
  172MOL    C4534587   2.906   2.664   7.201  0.4985  0.4453  0.6492
  172MOL    H4634588   2.673   2.491   7.290  0.1807  0.5424  0.3326
  172MOL    H4734589   2.523   2.528   7.218 -0.0388 -0.8552 -0.5785
  172MOL    H4834590   2.667   2.708   7.230 -0.2569 -0.6383  0.4448
  172MOL    H4934591   2.884   2.633   7.303  0.2197 -1.9193 -0.1176
  172MOL    H5034592   3.001   2.614   7.181  1.0490  0.8209  2.2007
  172MOL    H5134593   2.922   2.772   7.201  0.6680  0.4232  0.9651
  172MOL    C5234594   2.598   2.701   7.022  0.3206  0.0863 -0.1952
  172MOL    C5334595   2.609   2.857   6.997  0.3294 -0.9801 -0.2713
  172MOL    O5434596   2.535   2.913   6.888  0.2665  0.5651 -0.2486
  172MOL    C5534597   2.561   2.858   6.752  0.5500 -0.1625  0.1878
  172MOL    H5634598   2.493   2.672   7.022  0.2371  0.2955  1.5411
  172MOL    H5734599   2.624   2.646   6.932  4.0658  0.6983  0.4245
  172MOL    H5834600   2.714   2.874   6.976 -0.2658  1.6366 -1.3182
  172MOL    H5934601   2.668   2.856   6.732  0.6150  1.8271  0.2129
  172MOL    H6034602   2.535   2.753   6.738 -0.4221  0.0993 -0.0088
  172MOL    H6134603   2.514   2.913   6.671 -2.0694 -0.1727  1.6354
  172MOL    C6234604   2.557   2.946   7.113  0.1739 -0.4353  0.1941
  172MOL    C6334605   2.561   3.100   7.098  0.6352  0.0062  0.7048
  172MOL    O6434606   2.526   3.150   7.229 -0.0624 -0.6796 -0.6463
  172MOL    C6534607   2.396   3.198   7.235  0.1086  0.0582 -0.0296
  172MOL    H6634608   2.609   2.916   7.204  0.9602  1.1285  0.2673
  172MOL    H6734609   2.452   2.928   7.139 -0.1745 -0.3718 -1.1187
  172MOL    H6834610   2.476   3.110   7.031  0.1381  1.8954  1.5714
  172MOL    H6934611   2.315   3.131   7.205 -0.6930  0.1955  1.7818
  172MOL    H7034612   2.376   3.237   7.335 -0.4843  1.8923 -0.8379
  172MOL    H7134613   2.393   3.285   7.170  0.0652  1.2361  1.5181
  172MOL    C7234614   2.685   3.169   7.052 -0.2950 -0.5479 -0.0632
  172MOL    C7334615   2.683   3.321   7.040  0.1777  0.8557  0.2524
  172MOL    O7434616   2.775   3.384   7.124  0.4244  0.1804 -0.1575
  172MOL    C7534617   2.726   3.396   7.254  0.3011 -0.0183 -0.2185
  172MOL    H7634618   2.702   3.128   6.953  0.0432  3.4016 -1.7359
  172MOL    H7734619   2.769   3.141   7.116 -1.1049 -0.3505  1.1049
  172MOL    H7834620   2.586   3.366   7.062 -0.5979 -1.3802  1.6049
  172MOL    H7934621   2.714   3.293   7.289  2.3949 -0.8382 -1.7996
  172MOL    H8034622   2.795   3.455   7.315  2.1335 -0.3241 -1.9384
  172MOL    H8134623   2.638   3.457   7.269  1.0933  0.3562  3.5210
  172MOL    C8234624   2.739   3.367   6.906 -0.4243 -0.5556 -0.9014
  172MOL    C8334625   2.630   3.350   6.794  0.5245  0.9093  0.1788
  172MOL    O8434626   2.524   3.435   6.828 -0.1493 -1.3805 -0.7187
  172MOL    C8534627   2.400   3.374   6.798 -0.2243 -0.4464  0.2278
  172MOL    H8634628   2.831   3.313   6.883  0.0931  1.0862 -2.8567
  172MOL    H8734629   2.766   3.473   6.908  1.2450 -0.9779  1.0758
  172MOL    H8834630   2.605   3.244   6.797 -1.4345  1.3860  1.5806
  172MOL    H8934631   2.321   3.441   6.832  0.3773  0.0497  0.6460
  172MOL    H9034632   2.380   3.349   6.694  1.6812 -2.7353  0.3730
  172MOL    H9134633   2.394   3.282   6.855  0.9154 -1.1031 -0.6887
  172MOL    C9234634   2.668   3.396   6.649  0.4494 -0.2252 -0.2900
  172MOL    C9334635   2.804   3.342   6.593 -0.3852 -0.3158 -0.0241
  172MOL    O9434636   2.809   3.204   6.609  0.3073 -0.0424 -0.4179
  172MOL    C9534637   2.939   3.143   6.588  0.6031  0.0601  0.4749
  172MOL    H9634638   2.656   3.503   6.633 -1.0689 -0.3007  0.2562
  172MOL    H9734639   2.592   3.353   6.584  1.1921 -0.8097 -0.7741
  172MOL    H9834640   2.880   3.383   6.659 -2.8987 -0.7782  3.2923
  172MOL    H9934641   3.011   3.220   6.619  0.6729  0.8004 -1.4332
  172MOL   H10034642   2.957   3.057   6.651 -0.4944 -0.5441 -0.0213
  172MOL   H10134643   2.955   3.125   6.481  1.0440  2.0261  0.1794
  172MOL   C10234644   2.841   3.407   6.451  0.3708  0.0382 -0.9300
  172MOL   C10334645   2.991   3.444   6.440  0.7776  0.3379  0.4371
  172MOL   O10434646   3.042   3.427   6.305  0.5190  0.4437 -0.4736
  172MOL   C10534647   3.124   3.312   6.291  0.3089 -0.3347  0.2515
  172MOL   H10634648   2.777   3.492   6.428  2.4047  1.2423 -2.3509
  172MOL   H10734649   2.818   3.337   6.371 -3.0314 -1.4696  1.2850
  172MOL   H10834650   3.048   3.382   6.510 -1.1637 -2.5782 -0.4986
  172MOL   H10934651   3.166   3.315   6.190 -0.3439 -1.8204 -0.0901
  172MOL   H11034652   3.203   3.304   6.365  0.7527 -0.5151 -0.2355
  172MOL   H11134653   3.056   3.227   6.298 -1.1625  0.8105  0.0048
  172MOL   C11234654   3.019   3.594   6.466 -0.6429  0.1054 -0.2559
  172MOL   C11334655   2.993   3.648   6.612  0.9825 -0.1571  0.4402
  172MOL   O11434656   2.858   3.634   6.648 -0.3292 -0.1043 -0.1385
  172MOL   C11534657   2.775   3.736   6.597  0.4350 -0.8287 -0.1632
  172MOL   H11634658   2.959   3.648   6.393 -0.4247 -1.1276 -1.3651
  172MOL   H11734659   3.117   3.629   6.434 -1.4839  2.0885 -0.7556
  172MOL   H11834660   3.008   3.756   6.612 -0.2848  0.0269 -0.0122
  172MOL   H11934661   2.813   3.832   6.633 -2.4424 -0.0689  1.0107
  172MOL   H12034662   2.751   3.744   6.491 -1.8990 -0.1238  0.3809
  172MOL   H12134663   2.685   3.724   6.657  0.5715 -1.5720 -0.1074
  172MOL   C12234664   3.086   3.586   6.712 -0.5089 -0.1017 -0.1216
  172MOL   C12334665   3.236   3.615   6.712  0.1292  0.6133  0.4059
  172MOL   O12434666   3.281   3.614   6.848 -0.2671  0.0919  0.6280
  172MOL   C12534667   3.263   3.737   6.917  0.5023  0.0627  0.1515
  172MOL   H12634668   3.071   3.478   6.707 -0.0267 -0.1980  0.3824
  172MOL   H12734669   3.056   3.611   6.814 -0.1502  1.4562 -0.3840
  172MOL   H12834670   3.243   3.718   6.678 -1.0437  0.4211 -0.4399
  172MOL   H12934671   3.329   3.809   6.870 -0.9630  2.0792  1.1314
  172MOL   H13034672   3.158   3.764   6.928  0.1637 -1.5275  1.1305
  172MOL   H13134673   3.299   3.722   7.019 -0.2126  1.9206  0.6934
  172MOL   C13234674   3.321   3.513   6.625 -0.1590  0.2328 -0.7876
  172MOL   C13334675   3.470   3.506   6.671  0.5096  0.1557  0.2669
  172MOL   O13434676   3.538   3.392   6.623  0.0396  0.3736 -0.3452
  172MOL   C13534677   3.501   3.265   6.679 -0.6254  0.5763  0.2877
  172MOL   H13634678   3.307   3.545   6.522  0.2018 -0.3530 -1.0147
  172MOL   H13734679   3.273   3.418   6.647  0.6707 -0.5091 -2.1946
  172MOL   H13834680   3.474   3.499   6.780  0.0857 -1.5188  0.1941
  172MOL   H13934681   3.485   3.274   6.787  1.3469 -0.9550  0.7402
  172MOL   H14034682   3.407   3.232   6.635  1.0317 -1.9716 -1.4466
  172MOL   H14134683   3.578   3.189   6.669 -1.4125 -0.2674  0.5351
  172MOL   C14234684   3.550   3.629   6.621  0.2744 -0.0219  0.4729
  172MOL   C14334685   3.670   3.653   6.713  0.4632 -0.1698 -0.0194
  172MOL   O14434686   3.775   3.722   6.649 -0.5115  0.3446 -0.6171
  172MOL   C14534687   3.868   3.630   6.586  0.0664  0.0071  0.4531
  172MOL   H14634688   3.487   3.717   6.609 -0.3152 -0.3012  1.4577
  172MOL   H14734689   3.574   3.619   6.515  0.1885 -1.4737  0.5740
  172MOL   H14834690   3.718   3.563   6.753 -1.0855 -0.8962  0.2278
  172MOL   H14934691   3.808   3.572   6.516  3.4753 -2.8331 -0.2655
  172MOL   H15034692   3.936   3.685   6.522  0.0255 -2.7906 -2.0975
  172MOL   H15134693   3.922   3.559   6.648  1.5315  1.6062  1.0409
  172MOL   C15234694   3.633   3.744   6.833  0.6069  0.1736  0.1482
  172MOL   C15334695   3.745   3.759   6.943 -0.0744 -0.0300 -0.2250
  172MOL   O15434696   3.725   3.871   7.020 -0.0475 -0.2211 -0.7899
  172MOL   C15534697   3.773   3.989   6.947 -0.2193  0.2349  0.0080
  172MOL   H15634698   3.546   3.701   6.882  1.4342 -0.2937  1.2441
  172MOL   H15734699   3.604   3.845   6.804  1.0545  0.6560  1.3325
  172MOL   H15834700   3.848   3.761   6.907 -0.0146  1.6247 -0.0042
  172MOL   H15934701   3.704   4.025   6.871  1.0585  0.0128 -1.2752
  172MOL   H16034702   3.778   4.055   7.033 -1.2968 -0.8974  0.9819
  172MOL   H16134703   3.872   3.977   6.905 -0.3038  1.0563 -0.4261
  172MOL   C16234704   3.727   3.647   7.045  0.4328 -0.8300  0.6511
  172MOL   C16334705   3.850   3.647   7.138  0.4183 -0.0987 -0.3210
  172MOL   O16434706   3.810   3.589   7.266  0.4479 -0.2804  0.2492
  172MOL   C16534707   3.746   3.672   7.356 -0.9260  0.4418  0.1818
  172MOL   H16634708   3.724   3.548   7.001  0.7106  0.1089 -1.5612
  172MOL   H16734709   3.632   3.653   7.098 -0.1024  1.1026 -0.4499
  172MOL   H16834710   3.869   3.749   7.173 -3.3916  0.8193 -0.6827
  172MOL   H16934711   3.817   3.740   7.402 -0.2393 -0.6158  0.7084
  172MOL   H17034712   3.655   3.717   7.318 -1.3716 -1.3734 -0.9897
  172MOL   H17134713   3.703   3.616   7.439 -0.8437 -0.5887 -0.4533
  172MOL   C17234714   3.969   3.572   7.083  1.0114  0.0617 -0.7754
  172MOL   C17334715   4.103   3.618   7.142  0.5954  0.1366  0.0415
  172MOL   O17434716   4.198   3.518   7.116 -0.3507 -0.1966 -0.2035
  172MOL   C17534717   4.192   3.397   7.196  0.1703 -0.8964 -0.7066
  172MOL   H17634718   3.979   3.583   6.975  1.1729 -1.9697 -0.9978
  172MOL   H17734719   3.954   3.464   7.080  0.3641  0.0485  1.7857
  172MOL   H17834720   4.095   3.623   7.250  1.2791 -0.4786  0.1181
  172MOL   H17934721   4.104   3.335   7.184  0.2238 -1.4000  1.3251
  172MOL   H18034722   4.268   3.342   7.140 -0.3709 -0.8365 -1.5065
  172MOL   H18134723   4.223   3.402   7.300 -0.8226  2.6351 -0.5163
  172MOL   C18234724   4.145   3.758   7.105 -0.6552 -0.5074 -0.4213
  172MOL   C18334725   4.222   3.796   6.982 -0.2727  0.2491  0.0975
  172MOL   O18434726   4.154   3.774   6.858 -0.0484 -0.1898  0.0989
  172MOL   C18534727   4.205   3.661   6.782  0.3051 -0.0036 -0.2593
  172MOL   H18634728   4.201   3.791   7.193  1.4983  1.2936 -2.4028
  172MOL   H18734729   4.052   3.815   7.108  0.6585  1.6564  0.3082
  172MOL   H18834730   4.322   3.753   6.985 -0.4398 -0.1779 -0.2897
  172MOL   H18934731   4.306   3.677   6.743 -1.2335  4.7436 -2.7626
  172MOL   H19034732   4.193   3.572   6.843 -0.2784 -0.3125 -0.8236
  172MOL   H19134733   4.142   3.660   6.693  0.5201 -0.1115 -0.4095
  172MOL   C19234734   4.252   3.946   6.989 -0.6040  0.1033 -0.6496
  172MOL   C19334735   4.351   4.001   6.886  0.4652  0.1584  0.1289
  172MOL   O19434736   4.346   4.146   6.894  0.0240 -0.1707  0.3090
  172MOL   C19534737   4.440   4.216   6.814 -0.3853 -0.4580  0.0444
  172MOL   H19634738   4.297   3.957   7.088  0.9990  0.5251 -1.3995
  172MOL   H19734739   4.164   4.010   6.994 -0.4644  0.2032  0.7353
  172MOL   H19834740   4.332   3.953   6.790  2.1340 -0.5894  0.1621
  172MOL   H19934741   4.542   4.179   6.826 -0.3908 -0.1950  0.9455
  172MOL   H20034742   4.417   4.204   6.709  0.2586  0.2233 -0.1768
  172MOL   H20134743   4.437   4.322   6.839  0.7245  0.0442 -1.8395
  172MOL   H20234744   4.452   3.969   6.911  0.5209  1.5813  1.8259
  173MOL     C134745   6.317   0.695   6.292  0.3171 -0.7027 -0.0301
  173MOL     C234746   6.459   0.769   6.305  0.1203 -0.3712 -0.2397
  173MOL     O334747   6.548   0.691   6.227  0.1341 -0.0634 -0.1075
  173MOL     C434748   6.639   0.614   6.305 -0.4267  0.0731  0.1203
  173MOL     H534749   6.270   0.709   6.194  1.2426  2.1979 -0.1152
  173MOL     H634750   6.334   0.588   6.298 -0.8303 -1.0116 -1.6533
  173MOL     H734751   6.491   0.762   6.409  0.7130 -0.6911 -0.4428
  173MOL     H834752   6.581   0.553   6.374 -1.0335  1.0638  0.5069
  173MOL     H934753   6.700   0.552   6.240 -0.6846 -0.9132  0.8043
  173MOL    H1034754   6.699   0.683   6.365 -2.4973  1.3328  0.8257
  173MOL    H1134755   6.248   0.731   6.368 -0.9426 -0.3053 -1.3237
  173MOL    C1234756   6.454   0.912   6.251 -0.6952  1.0423 -1.4727
  173MOL    C1334757   6.591   0.985   6.251  0.1578  0.2159 -0.5094
  173MOL    O1434758   6.566   1.088   6.163  0.8764 -0.4288 -0.3035
  173MOL    C1534759   6.596   1.055   6.029 -0.2416 -0.7634  0.0023
  173MOL    H1634760   6.382   0.972   6.306  0.4910  1.8255 -0.7442
  173MOL    H1734761   6.390   0.899   6.164 -0.6707  0.1772 -1.3752
  173MOL    H1834762   6.666   0.917   6.210  2.0001  2.6219 -1.2050
  173MOL    H1934763   6.699   1.077   6.000 -0.1394 -1.9867 -0.6112
  173MOL    H2034764   6.583   0.950   6.002 -0.8909 -0.5478 -0.5183
  173MOL    H2134765   6.550   1.113   5.950 -2.2063 -0.6879  1.1648
  173MOL    C2234766   6.627   1.031   6.390 -0.2532 -0.5272  0.3327
  173MOL    C2334767   6.736   1.136   6.410 -0.0250  0.5101  0.6965
  173MOL    O2434768   6.710   1.202   6.536 -0.0048  0.0287 -0.4807
  173MOL    C2534769   6.633   1.321   6.524  0.0922 -0.1412  0.8145
  173MOL    H2634770   6.653   0.949   6.457 -0.7752  0.3188  1.5963
  173MOL    H2734771   6.534   1.069   6.432  1.1263  1.7490  1.4365
  173MOL    H2834772   6.713   1.198   6.324 -0.4027 -3.2546 -2.0819
  173MOL    H2934773   6.685   1.390   6.458  1.4428  0.3082  2.3217
  173MOL    H3034774   6.534   1.301   6.483  0.7816 -0.3273 -0.8346
  173MOL    H3134775   6.603   1.360   6.621  0.7391  0.3686  0.8102
  173MOL    C3234776   6.882   1.086   6.384  0.1340  0.2428 -0.0679
  173MOL    C3334777   6.981   1.195   6.334 -0.0350 -0.3112  0.3414
  173MOL    O3434778   6.946   1.245   6.203  0.3528  0.3996  0.5684
  173MOL    C3534779   6.969   1.147   6.103  0.1082  0.3102  0.3274
  173MOL    H3634780   6.882   0.998   6.320 -0.9911  0.3726 -0.2600
  173MOL    H3734781   6.920   1.053   6.481 -0.2782 -2.4922 -0.7818
  173MOL    H3834782   7.070   1.133   6.321  1.1358  1.2432  0.7560
  173MOL    H3934783   7.075   1.125   6.087  0.2672  0.0889  1.5898
  173MOL    H4034784   6.907   1.060   6.120  1.7006 -1.0925 -0.9284
  173MOL    H4134785   6.938   1.201   6.014  2.7195  1.3979  0.0162
  173MOL    C4234786   6.989   1.313   6.430  0.5237  0.1040 -0.1007
  173MOL    C4334787   7.107   1.407   6.397 -0.4383  0.6318  0.3737
  173MOL    O4434788   7.079   1.535   6.453  0.1577  0.3425  0.2493
  173MOL    C4534789   7.072   1.635   6.354  0.2083  0.3898  0.2340
  173MOL    H4634790   6.991   1.288   6.536  1.4677  2.3237  0.4393
  173MOL    H4734791   6.905   1.382   6.418  0.6331 -0.1961 -2.9895
  173MOL    H4834792   7.119   1.411   6.289 -2.4162 -1.0883  0.0616
  173MOL    H4934793   7.034   1.722   6.407  2.4859  0.2516  2.1911
  173MOL    H5034794   7.173   1.654   6.319  0.2667 -2.5656 -1.3414
  173MOL    H5134795   7.014   1.606   6.267  1.6350 -1.1304 -0.2355
  173MOL    C5234796   7.236   1.349   6.465  0.2030  0.1470  0.4273
  173MOL    C5334797   7.370   1.405   6.425  0.5951  0.5822 -0.4552
  173MOL    O5434798   7.449   1.393   6.544  0.0753  0.0046 -0.6576
  173MOL    C5534799   7.491   1.516   6.596 -0.3897 -0.1752 -0.2307
  173MOL    H5634800   7.242   1.241   6.451  1.4669  0.2696 -0.0580
  173MOL    H5734801   7.228   1.358   6.573 -2.3831 -0.1100  0.2843
  173MOL    H5834802   7.364   1.511   6.401  0.3416  0.5729 -0.4431
  173MOL    H5934803   7.404   1.581   6.605 -0.9056 -0.9383  0.3910
  173MOL    H6034804   7.549   1.512   6.689  1.9694 -1.8842 -1.7200
  173MOL    H6134805   7.559   1.570   6.531  0.0498 -2.5831 -1.8538
  173MOL    C6234806   7.452   1.327   6.321 -0.1322 -0.0401 -0.0814
  173MOL    C6334807   7.371   1.303   6.189  0.3192 -0.7073 -0.0508
  173MOL    O6434808   7.348   1.421   6.128  0.0900  0.2924 -0.4906
  173MOL    C6534809   7.224   1.414   6.045 -0.0235 -0.2220 -0.2327
  173MOL    H6634810   7.485   1.232   6.365 -4.2001 -0.5088  2.1546
  173MOL    H6734811   7.546   1.379   6.304 -0.2543  0.1792 -0.0784
  173MOL    H6834812   7.282   1.247   6.218 -0.5299 -0.4539 -2.0675
  173MOL    H6934813   7.169   1.506   6.063 -1.1835 -1.0150  0.3227
  173MOL    H7034814   7.244   1.413   5.938  0.2826 -1.5947 -0.1782
  173MOL    H7134815   7.148   1.339   6.066 -2.0033  1.7435 -0.2557
  173MOL    C7234816   7.450   1.211   6.092  0.5343  0.5291 -0.4627
  173MOL    C7334817   7.482   1.060   6.136 -0.3904 -0.0576 -0.1802
  173MOL    O7434818   7.358   0.992   6.161  0.3454  0.0165  0.7189
  173MOL    C7534819   7.368   0.900   6.279  0.6884  0.3805 -0.0419
  173MOL    H7634820   7.549   1.252   6.073  1.4763 -1.6498 -0.3681
  173MOL    H7734821   7.404   1.213   5.993 -2.6104 -1.8320  0.8523
  173MOL    H7834822   7.546   1.061   6.224  0.9168  2.4186 -1.1088
  173MOL    H7934823   7.269   0.863   6.308 -0.5318  2.6083 -1.2581
  173MOL    H8034824   7.423   0.808   6.257  2.0450  1.1936 -0.0542
  173MOL    H8134825   7.412   0.942   6.369 -3.9168  0.1961  2.4270
  173MOL    C8234826   7.545   0.981   6.021  0.2030  0.8148  0.5711
  173MOL    C8334827   7.687   1.016   5.985 -0.4844  0.3790  0.2925
  173MOL    O8434828   7.777   1.010   6.099 -0.2133  0.2582 -0.3563
  173MOL    C8534829   0.072   1.104   6.094 -0.1694 -0.3419 -0.4065
  173MOL    H8634830   7.486   0.981   5.930  2.7626 -0.5440 -1.1754
  173MOL    H8734831   7.557   0.878   6.054 -2.1383  0.5535  0.6837
  173MOL    H8834832   7.684   1.116   5.943 -1.6065  0.1455 -0.1946
  173MOL    H8934833   0.126   1.092   6.187  0.1223 -2.0469 -0.7761
  173MOL    H9034834   0.143   1.084   6.013  0.9483 -1.5993  0.8604
  173MOL    H9134835   0.032   1.205   6.099  1.7469  0.4008  0.3069
  173MOL    C9234836   7.734   0.925   5.867 -0.4248 -0.5608 -0.4646
  173MOL    C9334837   7.672   0.975   5.736  0.6625  0.1061 -0.4465
  173MOL    O9434838   7.746   1.082   5.697 -0.3129  0.3109  0.1084
  173MOL    C9534839   7.666   1.181   5.627  0.2569 -0.0019 -0.5911
  173MOL    H9634840   7.723   0.819   5.888  1.0198 -0.3594  1.3867
  173MOL    H9734841   0.032   0.929   5.863 -0.3790 -0.8289  0.5041
  173MOL    H9834842   7.566   0.995   5.751  0.5806 -1.2905  0.9731
  173MOL    H9934843   7.603   1.138   5.549 -1.6858  0.8205  0.4685
  173MOL   H10034844   7.600   1.222   5.703  1.2204  1.7075 -0.6420
  173MOL   H10134845   7.709   1.275   5.592  0.3880  0.5119  0.8943
  173MOL   C10234846   7.667   0.873   5.619 -0.0208  0.1763 -0.7931
  173MOL   C10334847   7.575   0.755   5.638 -0.7042  0.7313 -0.3863
  173MOL   O10434848   7.450   0.804   5.635 -0.1619  0.0108  0.3126
  173MOL   C10534849   7.348   0.714   5.680  0.2911  0.3665 -0.6290
  173MOL   H10634850   7.768   0.849   5.586  1.1992 -2.5966  4.4557
  173MOL   H10734851   7.641   0.925   5.526  0.2948 -0.9230 -1.5139
  173MOL   H10834852   7.601   0.709   5.734 -0.1634  0.2989 -0.7399
  173MOL   H10934853   7.261   0.779   5.689  1.3385  1.6248  0.4897
  173MOL   H11034854   7.332   0.641   5.600 -0.5925  0.6214 -0.6877
  173MOL   H11134855   7.370   0.677   5.780 -1.3871  1.5075  0.1896
  173MOL   C11234856   7.594   0.649   5.528 -0.0830 -0.8394 -0.5272
  173MOL   C11334857   7.730   0.572   5.551 -0.1233 -0.2978  0.0967
  173MOL   O11434858   7.703   0.473   5.655  0.0609  0.8754 -0.4094
  173MOL   C11534859   7.763   0.497   5.778  0.1552  0.1490  1.2530
  173MOL   H11634860   7.585   0.698   5.431 -0.0053 -2.7399 -1.5194
  173MOL   H11734861   7.523   0.568   5.546  1.7366 -2.2568  0.4141
  173MOL   H11834862   0.006   0.635   5.574 -0.9517  0.0487  2.3623
  173MOL   H11934863   7.743   0.596   5.819 -1.3046 -0.3711  1.8213
  173MOL   H12034864   7.740   0.421   5.853 -0.6709 -0.1289  0.7199
  173MOL   H12134865   0.061   0.489   5.768  0.5429  4.2085  1.4511
  173MOL   C12234866   7.760   0.490   5.423  0.6376  0.2641 -0.1999
  173MOL   C12334867   0.055   0.380   5.440  0.2890 -0.1613  0.7280
  173MOL   O12434868   0.023   0.291   5.338 -0.0452  0.2253 -0.7931
  173MOL   C12534869   0.050   0.156   5.373 -0.1997 -0.4279  0.8160
  173MOL   H12634870   7.786   0.565   5.348 -1.7292  2.1335  0.7868
  173MOL   H12734871   7.671   0.443   5.382  0.8894 -0.8931  0.5691
  173MOL   H12834872   0.039   0.326   5.533 -1.4846  0.6376  0.9002
  173MOL   H12934873   7.781   0.134   5.444 -0.0765  1.1068  1.4547
  173MOL   H13034874   0.046   0.093   5.284  2.1610  0.9565 -0.3295
  173MOL   H13134875   0.139   0.155   5.437  0.7194  1.4429 -0.4012
  173MOL   C13234876   0.199   0.439   5.420 -0.0068  0.4118  0.0797
  173MOL   C13334877   0.283   0.479   5.543 -0.2237 -0.1637  0.0521
  173MOL   O13434878   0.331   0.358   5.609  0.7079  0.0851  0.4229
  173MOL   C13534879   0.367   0.360   5.744 -0.2580 -0.3242  0.9516
  173MOL   H13634880   0.198   0.512   5.339  1.5791 -0.3412 -0.6495
  173MOL   H13734881   0.259   0.357   5.382  1.7912  1.1041  1.3636
  173MOL   H13834882   0.216   0.536   5.607 -0.0596  1.4268 -1.1923
  173MOL   H13934883   0.444   0.435   5.766  0.8402 -1.7074  1.9729
  173MOL   H14034884   0.280   0.371   5.808 -2.6771 -2.6048 -1.8216
  173MOL   H14134885   0.418   0.264   5.752 -0.0629 -0.3180 -0.2107
  173MOL   C14234886   0.408   0.582   5.519  0.0768 -0.0005  0.2306
  173MOL   C14334887   0.374   0.726   5.463  0.7811 -0.0164  0.3317
  173MOL   O14434888   0.281   0.764   5.566 -0.2405  0.1358  0.2331
  173MOL   C14534889   0.226   0.893   5.537  0.0806  0.6028  0.1852
  173MOL   H14634890   0.480   0.527   5.458 -0.5390  0.8231 -1.2572
  173MOL   H14734891   0.459   0.589   5.615  1.4474  0.2309 -0.5055
  173MOL   H14834892   0.330   0.721   5.364  0.1932 -1.5660  0.6612
  173MOL   H14934893   0.180   0.904   5.439 -1.0282  2.8158  0.9438
  173MOL   H15034894   0.154   0.922   5.613 -0.0970 -1.4197  0.8151
  173MOL   H15134895   0.303   0.969   5.552  0.0839  0.4753  0.8488
  173MOL   C15234896   0.501   0.811   5.456  0.0056 -0.4890  0.1057
  173MOL   C15334897   0.598   0.767   5.345  0.3515  0.5892 -0.1297
  173MOL   O15434898   0.523   0.780   5.229 -0.6755 -0.0496  0.7078
  173MOL   C15534899   0.531   0.668   5.141 -0.1952  0.1374 -0.1583
  173MOL   H15634900   0.551   0.803   5.553  1.4605  0.3261 -0.5539
  173MOL   H15734901   0.480   0.918   5.448 -3.7708 -1.2139 -0.6454
  173MOL   H15834902   0.642   0.669   5.362 -2.3918 -0.5900  0.4199
  173MOL   H15934903   0.468   0.596   5.194 -1.7679  1.5535 -0.0602
  173MOL   H16034904   0.486   0.694   5.045  0.3703  1.3202 -0.1084
  173MOL   H16134905   0.630   0.625   5.126 -0.8124 -0.0835 -4.2277
  173MOL   C16234906   0.712   0.870   5.338  0.1168 -0.0477  0.5455
  173MOL   C16334907   0.843   0.823   5.400  0.3437 -0.4512 -0.6954
  173MOL   O16434908   0.939   0.916   5.356  0.5206 -0.1710 -0.2167
  173MOL   C16534909   0.993   0.885   5.230  0.1203  0.1608 -0.2222
  173MOL   H16634910   0.684   0.967   5.377  1.8367  0.2557  1.0816
  173MOL   H16734911   0.726   0.888   5.231 -1.3954 -1.5510  0.0701
  173MOL   H16834912   0.868   0.723   5.365  2.5107 -1.2189  2.8595
  173MOL   H16934913   1.040   0.788   5.218 -2.9726 -1.4038 -0.2119
  173MOL   H17034914   0.929   0.901   5.143 -0.1413 -0.6806 -0.1889
  173MOL   H17134915   1.078   0.952   5.215 -0.0154  0.4730  0.3942
  173MOL   C17234916   0.846   0.826   5.555 -1.3801  0.1802  0.7353
  173MOL   C17334917   0.975   0.772   5.619  0.1771  0.5868  0.2241
  173MOL   O17434918   0.972   0.818   5.755 -0.3725 -0.2255 -0.3122
  173MOL   C17534919   1.050   0.940   5.773  0.2140  0.1841  0.4780
  173MOL   H17634920   0.755   0.770   5.576 -1.6661 -0.2679 -1.5389
  173MOL   H17734921   0.829   0.929   5.589 -2.4843  0.2262  0.0898
  173MOL   H17834922   1.058   0.815   5.563  1.3941 -0.5142  1.1456
  173MOL   H17934923   1.054   0.972   5.877  0.8018  1.7704 -0.0292
  173MOL   H18034924   1.154   0.917   5.753 -0.3691 -2.6849  0.4950
  173MOL   H18134925   1.021   1.025   5.711  2.4831  0.6054 -0.0244
  173MOL   C18234926   0.982   0.610   5.625 -0.3728 -0.7440 -0.4346
  173MOL   C18334927   1.122   0.561   5.674  0.3713 -0.3543 -0.2759
  173MOL   O18434928   1.115   0.473   5.783 -0.1319  0.2858 -0.4478
  173MOL   C18534929   1.101   0.530   5.916 -0.4027 -0.2953  0.1587
  173MOL   H18634930   0.969   0.586   5.520 -0.8091  1.6982 -0.9723
  173MOL   H18734931   0.895   0.566   5.673  0.1239 -1.1441  0.1083
  173MOL   H18834932   1.192   0.641   5.697 -2.0288  1.5441  0.5902
  173MOL   H18934933   1.002   0.573   5.935 -0.9356 -1.5217  0.2303
  173MOL   H19034934   1.109   0.447   5.987 -0.6538 -1.8287 -1.5442
  173MOL   H19134935   1.182   0.591   5.953 -2.7418  2.5905  0.7016
  173MOL   C19234936   1.195   0.469   5.567  0.8948 -0.2905 -0.5754
  173MOL   C19334937   1.328   0.425   5.631 -0.9510  0.0378 -0.2224
  173MOL   O19434938   1.416   0.372   5.526 -0.2298 -0.3985  0.3985
  173MOL   C19534939   1.539   0.334   5.585 -0.2561  0.5302  0.4336
  173MOL   H19634940   1.208   0.530   5.478  0.6732  3.0655  1.5671
  173MOL   H19734941   1.125   0.389   5.542 -0.4800  0.1521  1.6566
  173MOL   H19834942   1.308   0.343   5.700 -0.0807  0.2651  0.3087
  173MOL   H19934943   1.591   0.419   5.629  0.6738  0.2377 -0.0923
  173MOL   H20034944   1.533   0.252   5.657 -2.1905 -0.8894 -1.2796
  173MOL   H20134945   1.603   0.312   5.501  1.4726  0.3226  1.7794
  173MOL   H20234946   1.373   0.511   5.680 -0.9393  0.5171 -1.0673
  174MOL     C134947   6.584   3.440   3.794 -0.2508 -0.3504  0.3348
  174MOL     C234948   6.522   3.562   3.726 -0.2891  0.1126  0.2809
  174MOL     O334949   6.482   3.514   3.601 -0.3000  0.0624  0.0274
  174MOL     C434950   6.564   3.568   3.497  0.1274 -0.3492 -0.1315
  174MOL     H534951   6.531   3.347   3.812  0.9625 -1.8626 -3.4612
  174MOL     H634952   6.671   3.405   3.738 -0.3817  1.0793 -0.7898
  174MOL     H734953   6.598   3.639   3.722 -0.4843  0.2687 -0.4968
  174MOL     H834954   6.665   3.530   3.510  1.3585  3.0542  0.5714
  174MOL     H934955   6.517   3.543   3.401 -3.3947  0.6196  1.2422
  174MOL    H1034956   6.554   3.676   3.507 -1.1896 -0.1809 -2.7817
  174MOL    H1134957   6.609   3.468   3.896 -0.8535 -0.9229  0.6421
  174MOL    C1234958   6.398   3.623   3.782 -0.7345 -0.2846  0.2150
  174MOL    C1334959   6.424   3.712   3.908 -0.1656  0.1407  0.5297
  174MOL    O1434960   6.480   3.838   3.868  0.6557 -0.4061 -0.2800
  174MOL    C1534961   6.617   3.858   3.897 -0.4673  0.0039  0.4526
  174MOL    H1634962   6.331   3.540   3.807 -2.2545  0.7086 -0.5067
  174MOL    H1734963   6.349   3.685   3.707  2.2642  0.3146 -1.3066
  174MOL    H1834964   6.495   3.662   3.974  0.1084 -2.2969 -1.5397
  174MOL    H1934965   6.643   3.810   3.991 -0.5861 -0.0478  0.4602
  174MOL    H2034966   6.696   3.831   3.827  1.4277  0.8089  2.2481
  174MOL    H2134967   6.627   3.965   3.916 -1.5083 -0.0585  1.4288
  174MOL    C2234968   6.300   3.758   3.999  0.6998  1.0438 -0.1701
  174MOL    C2334969   6.253   3.634   4.080 -0.5609  0.3937 -0.5450
  174MOL    O2434970   6.339   3.621   4.199 -0.6664 -0.0677 -0.4979
  174MOL    C2534971   6.372   3.492   4.227  0.0242  1.0369 -0.0658
  174MOL    H2634972   6.222   3.800   3.936  1.0137  1.9603  0.0495
  174MOL    H2734973   6.330   3.829   4.075 -0.5484  0.2480  1.0768
  174MOL    H2834974   6.268   3.544   4.022 -2.3046 -0.7035  0.6608
  174MOL    H2934975   6.442   3.447   4.157 -0.3513 -1.5349  1.1405
  174MOL    H3034976   6.427   3.482   4.321 -3.9524  0.9946  2.3569
  174MOL    H3134977   6.286   3.426   4.244  0.2505  0.7341 -0.0812
  174MOL    C3234978   6.103   3.639   4.110  0.1402  0.0042 -0.3547
  174MOL    C3334979   6.050   3.753   4.197  0.5965  0.3572 -0.2791
  174MOL    O3434980   5.910   3.765   4.180  0.0707 -0.0036  0.1509
  174MOL    C3534981   5.850   3.784   4.046  0.5438  0.3523  0.2224
  174MOL    H3634982   6.073   3.549   4.165 -1.4307 -1.7161 -3.9065
  174MOL    H3734983   6.053   3.643   4.014  0.7476 -0.3179 -0.6847
  174MOL    H3834984   6.103   3.844   4.174  2.4767 -1.1203 -1.8791
  174MOL    H3934985   5.748   3.818   4.067 -0.0828 -0.3624 -1.6092
  174MOL    H4034986   5.908   3.855   3.987  1.7187  1.1027  2.2270
  174MOL    H4134987   5.834   3.690   3.993 -1.2942  0.5937  0.2999
  174MOL    C4234988   6.067   3.736   4.349 -0.1065 -0.2062 -0.1401
  174MOL    C4334989   6.018   3.857   4.430  0.6461  0.5835 -0.6889
  174MOL    O4434990   6.005   3.820   4.564 -0.1904 -0.2976  0.4854
  174MOL    C4534991   5.884   3.854   4.631 -0.1319  0.2477  0.0538
  174MOL    H4634992   6.173   3.719   4.366  0.0966 -0.2584 -1.4016
  174MOL    H4734993   6.017   3.643   4.376 -0.6057  0.5512  1.6442
  174MOL    H4834994   5.925   3.893   4.385 -1.6571 -3.2064  0.7759
  174MOL    H4934995   5.891   3.794   4.722  1.5923  0.0313 -0.1990
  174MOL    H5034996   5.865   3.958   4.656  1.0862  0.5197 -0.1117
  174MOL    H5134997   5.813   3.820   4.556  0.0411  0.1004 -0.0445
  174MOL    C5234998   6.129   3.961   4.429  0.1391 -0.3137  0.1105
  174MOL    C5334999   6.097   4.087   4.502 -0.0636 -0.5079  0.2577
  174MOL    O5435000   6.204   4.178   4.519 -0.3653 -0.7654  0.1747
  174MOL    C5535001   6.307   4.128   4.609 -0.2374 -0.6248  0.3914
  174MOL    H5635002   6.169   3.979   4.329  0.0267  1.1508  0.3219
  174MOL    H5735003   6.214   3.920   4.483  0.0340  0.3163  0.7481
  174MOL    H5835004   6.063   4.062   4.603  2.9415 -0.0377  1.4541
  174MOL    H5935005   6.372   4.051   4.568 -1.0337 -0.9489 -0.2506
  174MOL    H6035006   6.369   4.218   4.617 -2.5356  0.8558  2.7724
  174MOL    H6135007   6.270   4.103   4.709  0.7648  0.2351  0.9966
  174MOL    C6235008   5.986   4.170   4.440 -0.0294 -0.0847 -0.0804
  174MOL    C6335009   6.015   4.218   4.294  0.3384 -0.2555 -0.1209
  174MOL    O6435010   5.894   4.211   4.213 -0.0236  0.9664 -0.2331
  174MOL    C6535011   5.860   4.086   4.154 -0.3650  0.0733 -0.2001
  174MOL    H6635012   5.969   4.260   4.499  0.0777  0.9954 -1.6647
  174MOL    H6735013   5.888   4.121   4.448  1.0230 -1.9634  1.8764
  174MOL    H6835014   6.087   4.155   4.241  1.9363  1.9510 -0.6641
  174MOL    H6935015   5.778   4.089   4.082  1.8743  2.5552 -2.7301
  174MOL    H7035016   5.940   4.033   4.102  0.8169 -0.7386  2.3426
  174MOL    H7135017   5.835   4.017   4.235  0.5140  0.5764  0.5091
  174MOL    C7235018   6.062   4.362   4.282  0.0488 -0.8258 -0.5941
  174MOL    C7335019   6.105   4.402   4.144  0.2014  0.5490  0.2162
  174MOL    O7435020   6.117   4.543   4.148  0.1950 -0.1677  0.0636
  174MOL    C7535021   5.997   4.609   4.114  0.0281 -0.2628 -0.2668
  174MOL    H7635022   6.147   4.379   4.347 -1.4796  0.3890  1.1223
  174MOL    H7735023   5.975   4.424   4.304  0.7690 -0.1124  0.2802
  174MOL    H7835024   6.032   4.373   4.069 -0.7247  0.9339  0.9660
  174MOL    H7935025   6.024   4.706   4.072 -0.6329 -0.2455 -0.6738
  174MOL    H8035026   5.954   4.559   4.027  1.5628 -1.8920 -0.1266
  174MOL    H8135027   5.924   4.624   4.193 -0.7068  0.2733 -1.0350
  174MOL    C8235028   6.239   4.343   4.106 -0.0377 -0.1686 -0.6892
  174MOL    C8335029   6.370   4.389   4.171 -0.6114  0.2282  0.4943
  174MOL    O8435030   6.461   4.278   4.158  0.3195  0.4172  0.0298
  174MOL    C8535031   6.457   4.197   4.266  0.0234  0.1539 -0.5693
  174MOL    H8635032   6.259   4.358   4.000  1.2950  0.2509 -0.3961
  174MOL    H8735033   6.232   4.235   4.118 -0.8042  0.1032  1.3738
  174MOL    H8835034   6.347   4.421   4.272  0.3783  0.4107  0.6638
  174MOL    H8935035   6.459   4.248   4.362 -1.4770 -0.8188 -0.0048
  174MOL    H9035036   6.365   4.140   4.274 -0.8710  1.9043  2.9213
  174MOL    H9135037   6.535   4.123   4.251 -1.4013 -1.5764  0.3922
  174MOL    C9235038   6.436   4.520   4.123  0.0697  0.1475 -0.0554
  174MOL    C9335039   6.570   4.566   4.193  0.4370 -0.1537  0.2649
  174MOL    O9435040   6.673   4.584   4.097  0.1415  0.3385  0.6338
  174MOL    C9535041   6.804   4.561   4.154 -0.1541  0.0048  0.5585
  174MOL    H9635042   6.364   4.598   4.101  0.5970  0.0718 -2.2734
  174MOL    H9735043   6.466   4.504   4.019  0.2289  2.3426 -0.3587
  174MOL    H9835044   6.596   4.489   4.266  0.5674 -1.5084 -1.1871
  174MOL    H9935045   6.875   4.591   4.077  1.4233 -2.4368  1.0081
  174MOL   H10035046   6.828   4.622   4.241 -0.4764 -0.0539  0.6889
  174MOL   H10135047   6.830   4.455   4.163 -1.3497 -0.4282 -0.7312
  174MOL   C10235048   6.553   4.696   4.256  1.1155 -0.3378 -0.0522
  174MOL   C10335049   6.479   4.698   4.400  0.3647  0.2318  0.0352
  174MOL   O10435050   6.363   4.625   4.400  0.4133  0.3141 -0.0699
  174MOL   C10535051   6.249   4.700   4.383 -0.1304 -0.2459  0.2628
  174MOL   H10635052   6.498   4.759   4.186  1.5267  0.9683  0.7676
  174MOL   H10735053   6.651   4.742   4.273  1.2588 -0.3346 -0.8479
  174MOL   H10835054   6.448   4.798   4.429  2.7218  1.3081 -1.0730
  174MOL   H10935055   6.267   4.762   4.295  2.4279 -1.2123  0.0372
  174MOL   H11035056   6.162   4.635   4.373  0.7875 -0.9534 -4.4769
  174MOL   H11135057   6.241   4.765   4.469 -0.7764 -1.5400  1.1941
  174MOL   C11235058   6.567   4.648   4.514  0.2773  0.0927 -0.2920
  174MOL   C11335059   6.518   4.672   4.660  0.4444 -0.7320 -0.7424
  174MOL   O11435060   6.581   4.572   4.738 -0.0715 -0.1481 -0.0171
  174MOL   C11535061   6.508   4.451   4.753  1.3335 -0.3456  0.4564
  174MOL   H11635062   6.666   4.694   4.513  1.2991 -1.9552  1.5916
  174MOL   H11735063   6.586   4.543   4.492  1.6913  0.6842 -2.0370
  174MOL   H11835064   6.412   4.647   4.659  0.0132  0.9919  0.4413
  174MOL   H11935065   6.547   4.380   4.826  1.2094 -2.8722 -1.8529
  174MOL   H12035066   6.409   4.481   4.789  0.9550 -1.6948  0.5857
  174MOL   H12135067   6.499   4.389   4.664 -1.3138 -2.7047  2.2701
  174MOL   C12235068   6.542   4.813   4.722  0.4143 -0.1120 -0.3392
  174MOL   C12335069   6.468   4.837   4.852  0.2746  0.4592  0.1441
  174MOL   O12435070   6.526   4.948   4.919  0.0782  0.0518 -0.2665
  174MOL   C12535071   6.615   4.905   5.024 -0.6541 -0.3366 -0.7591
  174MOL   H12635072   6.506   4.884   4.648  0.8317 -1.5739 -2.0062
  174MOL   H12735073   6.649   4.825   4.739  0.3470  1.8864 -1.1739
  174MOL   H12835074   6.474   4.758   4.927 -2.1054  0.6256  0.5558
  174MOL   H12935075   6.681   4.830   4.980  0.7482  0.0020  0.7297
  174MOL   H13035076   6.691   4.975   5.058 -0.0435 -0.7983 -1.1709
  174MOL   H13135077   6.560   4.855   5.104  1.3837 -3.3702 -1.1513
  174MOL   C13235078   6.316   4.868   4.835 -0.7277  0.8064 -0.3485
  174MOL   C13335079   6.224   4.796   4.924  0.3043 -0.3895 -0.5643
  174MOL   O13435080   6.257   4.825   5.058 -0.1911  0.2221  0.8332
  174MOL   C13535081   6.230   4.732   5.160  0.2755 -0.7382 -0.2840
  174MOL   H13635082   6.281   4.846   4.733 -0.4169  0.1071 -0.3078
  174MOL   H13735083   6.291   4.974   4.836  1.0045  1.1998  1.3219
  174MOL   H13835084   6.234   4.690   4.900 -1.7889 -0.5287 -0.9781
  174MOL   H13935085   6.127   4.732   5.197 -0.3931 -0.8437 -2.1154
  174MOL   H14035086   6.266   4.632   5.137  0.4525 -0.2699 -2.1213
  174MOL   H14135087   6.276   4.759   5.255 -0.2936  2.4897 -0.8541
  174MOL   C14235088   6.078   4.839   4.907 -0.5162 -0.1695 -0.6293
  174MOL   C14335089   6.027   4.856   4.762  0.1485  0.2543  0.8370
  174MOL   O14435090   6.090   4.962   4.691 -0.4694  0.2981 -0.3223
  174MOL   C14535091   6.035   5.087   4.724 -0.2823  0.7308 -0.2066
  174MOL   H14635092   6.060   4.934   4.957  0.0673  0.2643 -1.2356
  174MOL   H14735093   6.014   4.776   4.969  0.0676  0.9481  1.1340
  174MOL   H14835094   5.920   4.876   4.760  0.4193  1.6656 -0.5479
  174MOL   H14935095   6.076   5.165   4.660  1.4680 -2.0758 -2.6413
  174MOL   H15035096   5.926   5.090   4.725 -0.3867 -1.2617 -1.9780
  174MOL   H15135097   6.075   5.109   4.823 -0.6218 -1.7303  0.5033
  174MOL   C15235098   6.036   4.731   4.677  0.2028 -0.1325 -0.0273
  174MOL   C15335099   5.952   4.609   4.731  0.6274 -0.5022  0.6820
  174MOL   O15435100   6.011   4.544   4.849 -0.4305  0.1064 -0.4100
  174MOL   C15535101   6.110   4.447   4.833  0.7023  0.3763  0.0365
  174MOL   H15635102   6.142   4.707   4.680  0.0965 -0.9717 -2.1288
  174MOL   H15735103   6.004   4.756   4.575 -2.3169 -3.7826 -0.2443
  174MOL   H15835104   5.955   4.538   4.649  2.2155  0.0927  0.2079
  174MOL   H15935105   6.073   4.365   4.771  0.0687 -0.4211  1.4598
  174MOL   H16035106   6.206   4.482   4.793  1.6406 -0.1268  1.8336
  174MOL   H16135107   6.128   4.404   4.931 -1.8674 -0.9248 -0.0286
  174MOL   C16235108   5.797   4.636   4.757  0.1124 -0.2185 -0.2262
  174MOL   C16335109   5.711   4.512   4.804  0.6632  0.6529 -0.3780
  174MOL   O16435110   5.585   4.565   4.798  0.5028 -0.3737  0.7171
  174MOL   C16535111   5.550   4.584   4.931  0.2105 -0.1174 -0.9191
  174MOL   H16635112   5.747   4.664   4.664 -0.9056 -1.7081 -0.1500
  174MOL   H16735113   5.780   4.723   4.820 -0.8236 -1.3175  1.0512
  174MOL   H16835114   5.752   4.474   4.898  0.1456  0.2411 -0.3171
  174MOL   H16935115   5.524   4.491   4.980  0.9703  0.1821  0.0805
  174MOL   H17035116   5.628   4.636   4.986 -1.6507  1.9057 -0.1261
  174MOL   H17135117   5.457   4.640   4.932  1.1360  1.4936  2.1921
  174MOL   C17235118   5.708   4.396   4.707 -0.3325  0.1876 -0.1202
  174MOL   C17335119   5.619   4.278   4.744 -0.1467  0.3761 -0.1140
  174MOL   O17435120   5.621   4.192   4.628  0.3509 -0.0827  0.4108
  174MOL   C17535121   5.498   4.202   4.562 -0.4260  0.1483 -0.8605
  174MOL   H17635122   5.809   4.354   4.713 -1.6582 -2.9864  1.1522
  174MOL   H17735123   5.695   4.428   4.603 -2.2087 -1.9621 -0.5870
  174MOL   H17835124   5.518   4.315   4.763  0.0764  1.0059 -0.1139
  174MOL   H17935125   5.475   4.309   4.563  0.2851  0.2988  1.3222
  174MOL   H18035126   5.490   4.176   4.457 -1.3731 -3.1660 -0.0125
  174MOL   H18135127   5.418   4.152   4.616  1.4616 -1.8905  0.1168
  174MOL   C18235128   5.667   4.201   4.873  0.4498  0.3656  0.6981
  174MOL   C18335129   5.584   4.074   4.891  0.0335 -0.7137  0.1100
  174MOL   O18435130   5.638   4.004   5.006 -0.1451 -0.1061 -0.8845
  174MOL   C18535131   5.753   3.920   4.966  0.0648  0.0070 -0.4292
  174MOL   H18635132   5.651   4.271   4.956 -1.4382  0.5253  0.2335
  174MOL   H18735133   5.773   4.180   4.870  0.5614  1.1060 -1.8561
  174MOL   H18835134   5.586   4.019   4.797 -1.7831 -2.2793  0.9605
  174MOL   H18935135   5.795   3.867   5.052  0.1728 -0.4097 -0.7378
  174MOL   H19035136   5.720   3.847   4.893  0.5292  1.5833 -2.2405
  174MOL   H19135137   5.834   3.976   4.919  0.7877 -0.6158  0.0712
  174MOL   C19235138   5.436   4.101   4.933 -0.4785  0.5885  0.8246
  174MOL   C19335139   5.354   3.982   4.899  0.0963  0.1674  0.3940
  174MOL   O19435140   5.225   3.978   4.960 -0.4346  0.1914 -0.4728
  174MOL   C19535141   5.149   3.863   4.926 -0.2527  0.8683 -0.9615
  174MOL   H19635142   5.386   4.179   4.875 -0.1984  0.5314  0.5085
  174MOL   H19735143   5.420   4.120   5.039 -1.8633 -1.5827  1.0523
  174MOL   H19835144   5.405   3.892   4.933 -0.4457 -1.1215 -2.1316
  174MOL   H19935145   5.186   3.774   4.975 -0.2880  0.8521 -0.9659
  174MOL   H20035146   5.045   3.870   4.959 -0.6053  1.9513 -2.2464
  174MOL   H20135147   5.144   3.837   4.820 -2.4693  1.0085 -0.9202
  174MOL   H20235148   5.347   3.955   4.794  0.6221 -1.5011  0.7655
  175MOL     C135149   2.675   3.304   6.027 -0.5438 -0.0227 -0.4946
  175MOL     C235150   2.699   3.165   6.095 -0.0170  0.5645  0.5528
  175MOL     O335151   2.838   3.147   6.124  0.7080 -0.7256  0.3410
  175MOL     C435152   2.908   3.100   6.007  0.5156  0.7990  0.3271
  175MOL     H535153   2.737   3.373   6.083 -1.7960  1.6468 -1.1037
  175MOL     H635154   2.717   3.304   5.927  0.0332 -0.9501 -0.2633
  175MOL     H735155   2.664   3.088   6.027 -0.2944  3.9369 -3.2936
  175MOL     H835156   2.876   3.151   5.916  1.2635  1.0326  0.1908
  175MOL     H935157   3.016   3.110   6.020  0.6808 -1.4520  0.9589
  175MOL    H1035158   2.890   2.995   5.985  3.0715  0.5241 -0.6496
  175MOL    H1135159   2.572   3.339   6.023 -1.3500 -2.3592 -1.0535
  175MOL    C1235160   2.620   3.153   6.225 -0.2068  0.3364 -0.6694
  175MOL    C1335161   2.580   3.008   6.255  0.0905 -0.3689  0.1744
  175MOL    O1435162   2.491   2.946   6.155 -0.3285  0.5974  0.0423
  175MOL    C1535163   2.355   2.977   6.167  0.9216  0.1361  0.0244
  175MOL    H1635164   2.529   3.213   6.220 -0.7038 -0.4123 -0.6734
  175MOL    H1735165   2.674   3.195   6.310  1.7620 -0.1390 -1.6402
  175MOL    H1835166   2.532   3.010   6.353 -0.6420  0.9559 -0.1912
  175MOL    H1935167   2.331   3.078   6.132 -1.6625 -0.6425 -0.6008
  175MOL    H2035168   2.288   2.909   6.114  1.8224 -0.8930  0.2003
  175MOL    H2135169   2.317   2.975   6.269 -1.7719  0.2927 -0.9360
  175MOL    C2235170   2.702   2.915   6.266 -0.7395 -0.1993  0.7841
  175MOL    C2335171   2.681   2.764   6.292  0.1792 -0.3082 -0.1470
  175MOL    O2435172   2.799   2.705   6.240 -0.2354 -0.7018  0.5036
  175MOL    C2535173   2.781   2.652   6.112 -0.4348  0.3595 -0.4384
  175MOL    H2635174   2.769   2.951   6.344  2.7229 -2.5600 -0.9925
  175MOL    H2735175   2.756   2.921   6.171 -1.1412 -1.8197  0.4505
  175MOL    H2835176   2.589   2.735   6.242 -0.3801 -0.0065  0.6913
  175MOL    H2935177   2.879   2.625   6.073 -0.4593  1.1206 -1.0527
  175MOL    H3035178   2.709   2.570   6.114  0.8727 -0.8036 -0.7050
  175MOL    H3135179   2.744   2.724   6.039 -0.1262  0.4480 -0.5093
  175MOL    C3235180   2.667   2.717   6.441  0.0852  0.3036 -0.4975
  175MOL    C3335181   2.629   2.571   6.466  0.0482  0.3643  0.3542
  175MOL    O3435182   2.633   2.543   6.608  0.1720  0.5249  0.4612
  175MOL    C3535183   2.762   2.521   6.655 -0.2624 -0.3952 -0.4196
  175MOL    H3635184   2.601   2.787   6.491  0.5198  0.8026 -0.6082
  175MOL    H3735185   2.764   2.735   6.488  0.5456 -1.6511 -0.6365
  175MOL    H3835186   2.687   2.503   6.405 -0.2207  1.5260 -1.2263
  175MOL    H3935187   2.811   2.431   6.620 -0.5574 -1.9159  2.8803
  175MOL    H4035188   2.829   2.604   6.632 -1.2762  0.3834 -0.5783
  175MOL    H4135189   2.767   2.515   6.764 -1.6249 -1.5631 -0.4167
  175MOL    C4235190   2.487   2.539   6.418  0.2496 -0.7055  0.3977
  175MOL    C4335191   2.478   2.442   6.301 -0.4860 -0.8165 -0.8129
  175MOL    O4435192   2.512   2.311   6.344  0.5548 -1.3262  0.0281
  175MOL    C4535193   2.411   2.246   6.423  0.9434 -0.1997  0.0807
  175MOL    H4635194   2.445   2.631   6.376  1.5321 -0.7566 -1.0678
  175MOL    H4735195   2.423   2.511   6.501 -0.2256  1.5612  0.8268
  175MOL    H4835196   2.543   2.455   6.215 -1.3741  0.7305 -1.2688
  175MOL    H4935197   2.452   2.149   6.452  2.1920 -0.2101 -1.6190
  175MOL    H5035198   2.369   2.305   6.504 -0.5779 -2.7928  1.2312
  175MOL    H5135199   2.320   2.224   6.367 -0.8315  1.1131  2.4068
  175MOL    C5235200   2.342   2.445   6.231  0.7372 -0.0329 -0.9836
  175MOL    C5335201   2.324   2.572   6.144  0.6888  0.8578  0.2135
  175MOL    O5435202   2.408   2.557   6.024 -0.4600  0.1745 -0.3225
  175MOL    C5535203   2.425   2.673   5.939  0.3174 -0.0704 -0.0879
  175MOL    H5635204   2.272   2.435   6.314  1.4647  0.7556 -0.2604
  175MOL    H5735205   2.318   2.352   6.180  0.5823 -0.1602 -0.6843
  175MOL    H5835206   2.345   2.667   6.193 -1.3807  1.7268 -0.5405
  175MOL    H5935207   2.477   2.754   5.991 -1.1869  0.4003  0.7310
  175MOL    H6035208   2.471   2.636   5.848  0.4266 -2.6034  0.9711
  175MOL    H6135209   2.336   2.724   5.901 -0.5102 -2.1509 -0.9837
  175MOL    C6235210   2.177   2.586   6.100 -0.0635 -0.0676 -0.0329
  175MOL    C6335211   2.072   2.620   6.204  0.3241 -0.3881  0.6997
  175MOL    O6435212   2.101   2.750   6.253 -0.6236 -0.1146  1.1285
  175MOL    C6535213   2.092   2.765   6.393  0.7135 -0.2419  0.4513
  175MOL    H6635214   2.156   2.503   6.033  1.3888 -0.3658 -0.1433
  175MOL    H6735215   2.166   2.672   6.033  0.3827 -0.2294 -0.3171
  175MOL    H6835216   2.086   2.556   6.291 -1.6892 -1.3892  0.3201
  175MOL    H6935217   2.144   2.683   6.442 -1.7548 -1.5907  0.8774
  175MOL    H7035218   2.147   2.856   6.417 -0.5317  1.3746 -2.5410
  175MOL    H7135219   1.991   2.770   6.432  0.7399 -0.3263  0.5302
  175MOL    C7235220   1.929   2.604   6.149  0.3163  0.1711  0.7613
  175MOL    C7335221   1.889   2.453   6.126  0.4802 -0.0893 -0.1366
  175MOL    O7435222   1.859   2.405   6.255  0.3177 -0.2693 -0.2311
  175MOL    C7535223   1.932   2.300   6.310  0.4295 -0.4988 -0.4008
  175MOL    H7635224   1.914   2.675   6.068 -0.4667 -0.3181  0.4732
  175MOL    H7735225   1.860   2.644   6.223 -0.3698 -0.5368  0.5152
  175MOL    H7835226   1.974   2.393   6.092  1.4029 -0.3796  2.5997
  175MOL    H7935227   1.961   2.229   6.233  0.9644  0.6517 -1.2684
  175MOL    H8035228   2.022   2.340   6.356 -0.7750  0.1967  1.4118
  175MOL    H8135229   1.882   2.246   6.391 -1.0852  1.6258  0.1073
  175MOL    C8235230   1.782   2.434   6.024 -0.3198 -0.5844 -0.6919
  175MOL    C8335231   1.808   2.452   5.877  0.1844 -0.1281 -0.2763
  175MOL    O8435232   1.862   2.581   5.846  0.0651 -0.2493  0.4682
  175MOL    C8535233   1.761   2.675   5.822 -0.3999 -0.0459  0.6554
  175MOL    H8635234   1.696   2.493   6.053 -0.2415 -1.7196  1.9645
  175MOL    H8735235   1.739   2.338   6.053  0.6561 -0.8105  0.0303
  175MOL    H8835236   1.709   2.437   5.834 -0.5488  0.2497  1.2139
  175MOL    H8935237   1.710   2.647   5.730 -2.3917 -1.1989  2.0868
  175MOL    H9035238   1.690   2.671   5.905 -0.7869 -0.8074  0.2887
  175MOL    H9135239   1.792   2.776   5.795  0.4047 -0.7125 -0.9240
  175MOL    C9235240   1.894   2.354   5.806 -0.2526  0.1754  0.1244
  175MOL    C9335241   1.863   2.212   5.836  0.0392 -0.3047 -0.2691
  175MOL    O9435242   1.728   2.195   5.787 -0.1852  0.2940  0.2196
  175MOL    C9535243   1.652   2.102   5.860  0.3710  0.3332  0.7496
  175MOL    H9635244   1.998   2.374   5.832 -0.8030  1.5510  1.3080
  175MOL    H9735245   1.879   2.383   5.702 -0.3697  1.9458  0.6337
  175MOL    H9835246   1.876   2.192   5.943 -1.8947 -0.8744 -0.1222
  175MOL    H9935247   1.556   2.095   5.808  1.4038  1.0489 -1.3115
  175MOL   H10035248   1.695   2.002   5.864  0.7047  0.5201  1.9653
  175MOL   H10135249   1.628   2.140   5.959 -1.9139 -0.3775  0.4959
  175MOL   C10235250   1.949   2.118   5.752 -0.0771  0.2663 -0.7185
  175MOL   C10335251   2.097   2.120   5.786  0.4386 -0.3987 -0.1932
  175MOL   O10435252   2.102   2.095   5.926 -0.2646 -0.0077  0.9633
  175MOL   C10535253   2.206   2.154   5.995 -0.3695  0.1085 -0.1665
  175MOL   H10635254   1.928   2.144   5.648 -2.5013  1.8222  0.1221
  175MOL   H10735255   1.922   2.013   5.765  2.0723 -0.3455 -0.9800
  175MOL   H10835256   2.140   2.220   5.782 -1.2499  0.3059 -1.5909
  175MOL   H10935257   2.221   2.262   5.983 -0.6445  0.1503 -0.1371
  175MOL   H11035258   2.197   2.147   6.104  3.8982 -0.8400  0.2181
  175MOL   H11135259   2.298   2.104   5.966 -1.2464 -0.6503 -1.6419
  175MOL   C11235260   2.185   2.021   5.709  0.3089  0.1429 -0.0778
  175MOL   C11335261   2.176   2.036   5.552  0.5757 -0.3274  0.7987
  175MOL   O11435262   2.234   2.161   5.524  0.2829  0.0719  0.0282
  175MOL   C11535263   2.152   2.243   5.439  0.0434  0.2474  0.5929
  175MOL   H11635264   2.159   1.917   5.729  1.6801 -0.1732  0.0917
  175MOL   H11735265   2.289   2.041   5.736 -0.2842  1.3735  1.3926
  175MOL   H11835266   2.072   2.019   5.525  1.3079 -1.6922 -1.2672
  175MOL   H11935267   2.064   2.288   5.484 -1.3461 -0.2553 -1.5446
  175MOL   H12035268   2.213   2.328   5.408 -1.1663  1.6205  1.9356
  175MOL   H12135269   2.111   2.198   5.348 -2.7130  2.8891  0.4449
  175MOL   C12235270   2.257   1.920   5.477  0.1404 -0.6544 -0.6777
  175MOL   C12335271   2.212   1.905   5.331 -0.5549  0.2572 -0.5311
  175MOL   O12435272   2.308   1.830   5.265  0.0382 -0.4401 -0.1270
  175MOL   C12535273   2.412   1.898   5.187  0.7635 -0.0899  0.5008
  175MOL   H12635274   2.248   1.824   5.526  2.3863 -0.5058  0.0791
  175MOL   H12735275   2.365   1.930   5.490  0.1578 -1.2840 -0.3601
  175MOL   H12835276   2.211   2.008   5.296  2.9852  0.3025 -0.7048
  175MOL   H12935277   2.457   1.980   5.243  2.3044  0.3015 -1.2458
  175MOL   H13035278   2.483   1.821   5.158  0.1404  0.2710 -2.0669
  175MOL   H13135279   2.379   1.937   5.091 -1.3254 -0.8607  0.8752
  175MOL   C13235280   2.071   1.836   5.310  0.4140 -0.6969  0.6768
  175MOL   C13335281   2.058   1.687   5.330 -0.7246  1.1254  1.0477
  175MOL   O13435282   1.930   1.672   5.381 -0.0997  0.6695 -0.3587
  175MOL   C13535283   1.917   1.668   5.526 -0.0161 -0.0671  0.1242
  175MOL   H13635284   2.035   1.844   5.207  1.2893 -0.9729  0.3353
  175MOL   H13735285   2.000   1.898   5.364 -0.0332 -2.1742  1.8358
  175MOL   H13835286   2.124   1.646   5.406 -1.6645  0.4401  1.5191
  175MOL   H13935287   1.981   1.587   5.563  2.4386  1.3617 -0.8688
  175MOL   H14035288   1.958   1.754   5.578 -0.0323  0.6563 -1.0486
  175MOL   H14135289   1.816   1.669   5.567  0.0123 -3.0080  0.3892
  175MOL   C14235290   2.085   1.605   5.200  0.2378  0.7584  0.2804
  175MOL   C14335291   2.115   1.453   5.223 -0.4241  0.1053  0.2666
  175MOL   O14435292   2.050   1.373   5.131 -0.4323 -0.4250  0.8361
  175MOL   C14535293   1.910   1.363   5.148  0.2069  0.2954 -0.0933
  175MOL   H14635294   2.169   1.655   5.152 -0.7821  0.2846 -2.0357
  175MOL   H14735295   2.010   1.622   5.123  0.0530 -1.4774 -0.0514
  175MOL   H14835296   2.068   1.426   5.317 -0.8699  1.1600  0.3460
  175MOL   H14935297   1.880   1.339   5.250 -0.2929  1.4559  0.0421
  175MOL   H15035298   1.864   1.461   5.132  1.9486  1.0518 -0.6070
  175MOL   H15135299   1.867   1.290   5.081 -1.6132  1.9123 -0.7288
  175MOL   C15235300   2.263   1.415   5.215  0.4695  0.1315 -0.8089
  175MOL   C15335301   2.352   1.478   5.328  0.5819  0.0121 -0.3298
  175MOL   O15435302   2.294   1.437   5.449 -0.2252 -0.1188  0.2656
  175MOL   C15535303   2.334   1.510   5.558  0.0871 -0.1436 -0.2851
  175MOL   H15635304   2.305   1.432   5.116 -0.0987  0.5088 -0.9900
  175MOL   H15735305   2.265   1.306   5.218  1.4368  0.1239 -1.8021
  175MOL   H15835306   2.359   1.584   5.306  0.2004  0.5648  2.0881
  175MOL   H15935307   2.363   1.433   5.629  1.2264 -0.3133 -0.9261
  175MOL   H16035308   2.419   1.575   5.541  0.0907  0.0018  0.2717
  175MOL   H16135309   2.248   1.565   5.599  1.9433  2.6821 -0.0163
  175MOL   C16235310   2.500   1.426   5.324  0.3292 -0.3141  0.7288
  175MOL   C16335311   2.603   1.520   5.256  0.0603 -0.1190  0.0429
  175MOL   O16435312   2.667   1.580   5.372 -0.1035 -0.0569  0.7160
  175MOL   C16535313   2.754   1.683   5.345 -0.4336  0.6250 -0.6790
  175MOL   H16635314   2.498   1.337   5.261  1.5251  0.6659 -0.7501
  175MOL   H16735315   2.543   1.408   5.422  0.6461  0.7712  0.7902
  175MOL   H16835316   2.547   1.596   5.202  1.6526  0.2454 -1.1199
  175MOL   H16935317   2.767   1.735   5.440  0.9651  0.6613 -0.8837
  175MOL   H17035318   2.855   1.644   5.332 -0.3654  0.8987 -0.9646
  175MOL   H17135319   2.720   1.760   5.276  0.7968  1.2744 -0.5807
  175MOL   C17235320   2.710   1.433   5.167  0.1584 -0.7458 -0.1682
  175MOL   C17335321   2.646   1.418   5.032  0.3809  0.2801 -0.0766
  175MOL   O17435322   2.681   1.526   4.948  0.4023  0.5466  0.1951
  175MOL   C17535323   2.574   1.578   4.877 -0.9527  0.4865  1.2147
  175MOL   H17635324   2.730   1.340   5.221  0.6772 -0.2270  0.5438
  175MOL   H17735325   2.812   1.472   5.168 -0.4169  0.7921 -0.4503
  175MOL   H17835326   2.538   1.408   5.048  0.5007 -1.8561 -0.4995
  175MOL   H17935327   2.499   1.503   4.850 -0.5890  1.0999 -1.6767
  175MOL   H18035328   2.511   1.644   4.937  0.5813  3.1260  0.0206
  175MOL   H18135329   2.604   1.647   4.798  1.2704 -0.1691  1.4726
  175MOL   C18235330   2.707   1.288   4.967  0.2080  0.0211 -0.0786
  175MOL   C18335331   2.625   1.162   4.987  0.0877 -0.5094  0.7110
  175MOL   O18435332   2.614   1.123   5.125  0.0856  0.5624  0.2785
  175MOL   C18535333   2.721   1.050   5.172 -0.6371  0.0363  0.1355
  175MOL   H18635334   2.811   1.268   4.993  0.1054  0.5825  0.7805
  175MOL   H18735335   2.728   1.307   4.862 -0.3844  1.1182 -0.0007
  175MOL   H18835336   2.670   1.079   4.933 -1.6511  0.2560 -2.0659
  175MOL   H18935337   2.707   1.032   5.278  1.2831  2.5610  0.8578
  175MOL   H19035338   2.743   0.960   5.114 -2.8838 -2.0087  2.3248
  175MOL   H19135339   2.814   1.106   5.170 -1.3795  1.2775 -2.0683
  175MOL   C19235340   2.480   1.170   4.937  0.4155  0.0561  0.0437
  175MOL   C19335341   2.402   1.041   4.937 -0.4997  0.1780 -0.2370
  175MOL   O19435342   2.267   1.076   4.938 -0.5218 -0.5078  0.5039
  175MOL   C19535343   2.184   0.962   4.916 -0.4365  0.6707  0.0332
  175MOL   H19635344   2.471   1.216   4.839 -1.0235 -2.5049 -1.0728
  175MOL   H19735345   2.424   1.234   5.005 -1.4651 -1.4516 -0.0327
  175MOL   H19835346   2.412   0.992   5.034 -1.2757  2.5331  1.0712
  175MOL   H19935347   2.175   0.950   4.808  1.4116  1.0620 -0.1768
  175MOL   H20035348   2.209   0.866   4.961 -1.1491 -0.6362 -2.2838
  175MOL   H20135349   2.079   0.983   4.939 -0.7704  0.4804 -1.2635
  175MOL   H20235350   2.428   0.963   4.865  1.6345  0.8174 -0.1943
  176MOL     C135351   1.477   2.560   0.993  1.2063  0.0544  0.1493
  176MOL     C235352   1.511   2.708   0.999 -0.3042  0.6535 -0.0237
  176MOL     O335353   1.520   2.752   0.863  0.0912  0.1350  0.1780
  176MOL     C435354   1.653   2.783   0.827  0.3061 -0.4075 -0.3489
  176MOL     H535355   1.390   2.539   0.930  1.8545 -0.5092 -0.5567
  176MOL     H635356   1.555   2.492   0.962  0.8002 -1.5318  2.4781
  176MOL     H735357   1.603   2.713   1.058 -0.3009  0.4331 -0.0105
  176MOL     H835358   1.692   2.874   0.874  0.6991 -1.1742  0.8502
  176MOL     H935359   1.714   2.697   0.854  0.7352 -0.0035 -0.0188
  176MOL    H1035360   1.671   2.810   0.723  1.3888  0.6606  0.0855
  176MOL    H1135361   1.440   2.548   1.095 -0.0528  0.9758 -0.1719
  176MOL    C1235362   1.396   2.791   1.066  0.1106 -0.3677  0.3543
  176MOL    C1335363   1.425   2.942   1.071 -0.4409 -0.3624 -0.6200
  176MOL    O1435364   1.310   3.020   1.048 -0.4292 -0.0364  0.3705
  176MOL    C1535365   1.274   3.035   0.916  0.6667  0.5209 -0.1935
  176MOL    H1635366   1.382   2.750   1.166 -0.3803  1.1056  0.9033
  176MOL    H1735367   1.301   2.777   1.014 -0.1882 -0.2790  0.8651
  176MOL    H1835368   1.500   2.972   0.997 -1.5506  0.6347 -1.3704
  176MOL    H1935369   1.308   2.945   0.866 -0.0749 -0.2519  0.6640
  176MOL    H2035370   1.165   3.038   0.910  0.6784  1.5105 -0.0018
  176MOL    H2135371   1.324   3.126   0.882  1.2386  0.9928  1.8264
  176MOL    C2235372   1.472   2.992   1.208  0.3397 -0.2119 -0.3474
  176MOL    C2335373   1.602   2.947   1.263  0.1106  0.0535 -0.6800
  176MOL    O2435374   1.602   2.811   1.300  0.0325 -0.1204  0.0644
  176MOL    C2535375   1.671   2.796   1.425 -0.5048  0.0201  0.1869
  176MOL    H2635376   1.398   2.959   1.281  1.7916  0.1179  1.3347
  176MOL    H2735377   1.473   3.101   1.215  0.3182 -0.1006 -1.9660
  176MOL    H2835378   1.607   2.992   1.362  1.2636 -0.9776 -0.2512
  176MOL    H2935379   1.686   2.688   1.431  0.5686  0.1698  0.1836
  176MOL    H3035380   1.771   2.833   1.445 -0.5807  0.2049  0.2207
  176MOL    H3135381   1.600   2.818   1.505  1.4414 -0.4137  2.0718
  176MOL    C3235382   1.728   2.983   1.182 -0.2058 -0.1687 -0.3274
  176MOL    C3335383   1.747   3.138   1.176 -0.1013  0.2754  0.2424
  176MOL    O3435384   1.762   3.183   1.307 -0.4283 -0.6079 -0.0396
  176MOL    C3535385   1.750   3.325   1.329  0.3844  0.6280  0.3197
  176MOL    H3635386   1.722   2.944   1.080  1.8199 -0.6532 -0.2761
  176MOL    H3735387   1.810   2.931   1.231 -1.0288 -1.3126 -0.1403
  176MOL    H3835388   1.653   3.176   1.135 -0.5259  0.9755  1.8337
  176MOL    H3935389   1.837   3.383   1.298 -0.5284  1.8621  0.0366
  176MOL    H4035390   1.663   3.357   1.273  1.2318 -0.4211 -1.6593
  176MOL    H4135391   1.749   3.343   1.436  2.2032  1.9857  0.1327
  176MOL    C4235392   1.866   3.179   1.088  0.0134  0.7560  0.2934
  176MOL    C4335393   1.856   3.134   0.939  0.3767  0.3678  0.1771
  176MOL    O4435394   1.794   3.236   0.855  0.3922  0.4546  0.5224
  176MOL    C4535395   1.664   3.189   0.816  0.5172 -0.1594 -0.1188
  176MOL    H4635396   1.958   3.140   1.130  0.5408  1.5959 -0.0506
  176MOL    H4735397   1.880   3.287   1.091  2.4173  0.5362 -1.3971
  176MOL    H4835398   1.809   3.037   0.929 -0.8018  0.8035  1.3661
  176MOL    H4935399   1.597   3.193   0.902 -0.6268  0.5752 -1.0309
  176MOL    H5035400   1.621   3.264   0.750  0.1799  0.6599  1.0164
  176MOL    H5135401   1.669   3.090   0.770 -1.7766  1.1495 -3.3923
  176MOL    C5235402   2.001   3.119   0.879 -0.9097  0.3732  0.4653
  176MOL    C5335403   2.012   3.050   0.736 -0.7938  0.0204  0.1966
  176MOL    O5435404   1.955   2.919   0.758 -0.1424 -0.3403  0.1777
  176MOL    C5535405   2.007   2.815   0.674  0.0369  0.8106 -0.7038
  176MOL    H5635406   2.052   3.052   0.948 -0.1150 -1.1740 -1.5715
  176MOL    H5735407   2.053   3.215   0.886  3.1801 -1.5255 -1.8652
  176MOL    H5835408   2.116   3.036   0.706 -0.6121  1.9804 -0.1935
  176MOL    H5935409   2.002   2.836   0.567  0.7782  1.2570 -0.6556
  176MOL    H6035410   2.112   2.796   0.697  0.3408  0.9497 -1.9728
  176MOL    H6135411   1.957   2.718   0.683 -0.0114  0.8734 -0.2975
  176MOL    C6235412   1.951   3.128   0.613  0.2746 -0.2804  0.2279
  176MOL    C6335413   1.984   3.278   0.602  0.0477  0.0375 -0.7066
  176MOL    O6435414   2.112   3.285   0.553 -0.7080  0.6788  0.2365
  176MOL    C6535415   2.196   3.357   0.647 -0.2321  0.2173 -0.4267
  176MOL    H6635416   1.843   3.110   0.607  0.5134 -1.9842  0.8184
  176MOL    H6735417   1.985   3.089   0.517  0.5032  1.0643 -0.2558
  176MOL    H6835418   1.956   3.320   0.698  1.1382 -0.4152 -0.1832
  176MOL    H6935419   2.221   3.306   0.740  1.8683  0.9681 -0.5466
  176MOL    H7035420   2.285   3.377   0.587 -0.7356 -0.2042 -1.3075
  176MOL    H7135421   2.158   3.456   0.676  0.1637  0.0529  0.6824
  176MOL    C7235422   1.884   3.351   0.516 -0.1196  0.3955  0.3771
  176MOL    C7335423   1.896   3.510   0.511  0.3153  0.7295  0.4321
  176MOL    O7435424   1.905   3.554   0.369  0.0438  0.2532 -0.3660
  176MOL    C7535425   2.030   3.530   0.319 -0.4088 -0.1687  0.6781
  176MOL    H7635426   1.786   3.327   0.555  0.6611 -2.8802  0.4119
  176MOL    H7735427   1.868   3.311   0.416  0.9184 -0.0617  0.3914
  176MOL    H7835428   1.989   3.543   0.556 -0.0712  0.0530  1.7582
  176MOL    H7935429   2.035   3.542   0.211  0.6578  1.0975  0.8523
  176MOL    H8035430   2.100   3.604   0.358 -1.1049  0.5621  0.5572
  176MOL    H8135431   2.059   3.428   0.342 -2.1709 -0.9704 -0.5619
  176MOL    C8235432   1.788   3.590   0.576  0.3540 -0.1484 -0.8354
  176MOL    C8335433   1.792   3.578   0.732  0.2147  0.0570 -0.7712
  176MOL    O8435434   1.928   3.605   0.769 -0.2610  0.1036 -0.1810
  176MOL    C8535435   1.981   3.552   0.889 -0.4302 -0.2127 -0.0598
  176MOL    H8635436   1.694   3.560   0.531  0.1970 -0.6505 -0.1882
  176MOL    H8735437   1.795   3.697   0.554 -0.6126 -0.0800 -0.8085
  176MOL    H8835438   1.765   3.479   0.768 -1.9995  0.4221 -1.3694
  176MOL    H8935439   1.956   3.618   0.972  0.3640  2.1127 -1.5988
  176MOL    H9035440   1.942   3.452   0.907 -0.3771 -0.1132  0.6205
  176MOL    H9135441   2.090   3.545   0.879 -0.4766  0.1816 -0.8988
  176MOL    C9235442   1.699   3.685   0.788  0.0153 -0.3665 -0.4494
  176MOL    C9335443   1.548   3.654   0.782  0.2808 -0.0855  0.4466
  176MOL    O9435444   1.516   3.529   0.846 -0.1325 -0.7123 -0.2124
  176MOL    C9535445   1.394   3.471   0.812  0.3002  0.1203 -0.0641
  176MOL    H9635446   1.709   3.782   0.741  0.4872 -0.5777 -0.7907
  176MOL    H9735447   1.726   3.694   0.894 -1.3736 -2.1264  0.0954
  176MOL    H9835448   1.520   3.642   0.677  1.0770 -0.0548  0.2262
  176MOL    H9935449   1.380   3.368   0.842  3.3080  0.2487  2.0290
  176MOL   H10035450   1.308   3.527   0.851  0.5040  1.0494 -0.9370
  176MOL   H10135451   1.396   3.483   0.704 -1.0085  0.0695 -0.1012
  176MOL   C10235452   1.463   3.768   0.835  0.6265 -0.4065 -0.1291
  176MOL   C10335453   1.367   3.820   0.730  0.4858  0.2436  0.0758
  176MOL   O10435454   1.287   3.930   0.783  0.0129  0.0925 -0.2433
  176MOL   C10535455   1.179   3.982   0.702 -0.3891  0.0467 -0.4462
  176MOL   H10635456   1.527   3.855   0.847 -0.0221  0.3943 -2.2713
  176MOL   H10735457   1.412   3.745   0.929  1.3121 -1.2515  0.0475
  176MOL   H10835458   1.293   3.746   0.700 -0.2496  1.1716 -0.4020
  176MOL   H10935459   1.152   4.078   0.746  0.9365  0.2616 -0.0612
  176MOL   H11035460   1.211   4.013   0.602 -1.7269  1.4271 -0.4670
  176MOL   H11135461   1.103   3.905   0.693 -0.7759 -0.0033  2.7265
  176MOL   C11235462   1.449   3.878   0.612  0.7937 -0.1519  0.4237
  176MOL   C11335463   1.386   3.835   0.476  0.2488  0.0614 -0.8499
  176MOL   O11435464   1.426   3.919   0.367  0.1929 -0.5641 -0.6507
  176MOL   C11535465   1.366   4.044   0.355 -0.6606  0.5112 -0.5074
  176MOL   H11635466   1.554   3.848   0.610  0.9988  0.5866 -1.2706
  176MOL   H11735467   1.455   3.987   0.614  2.4373 -0.1960 -0.5118
  176MOL   H11835468   1.278   3.845   0.478  0.0866 -1.5337  0.7002
  176MOL   H11935469   1.372   4.100   0.448 -3.7458  0.6472 -0.3361
  176MOL   H12035470   1.420   4.099   0.278 -1.7878 -0.2041 -1.8238
  176MOL   H12135471   1.259   4.035   0.338 -1.2680 -1.0402  3.5435
  176MOL   C12235472   1.410   3.686   0.439  0.7473  0.5678 -0.1818
  176MOL   C12335473   1.358   3.646   0.299 -0.3038  0.2910  0.2097
  176MOL   O12435474   1.426   3.527   0.264  0.4694 -0.1908 -0.3129
  176MOL   C12535475   1.545   3.540   0.184 -0.6323  0.1493 -0.1196
  176MOL   H12635476   1.371   3.615   0.512 -0.3456 -0.3680 -1.6507
  176MOL   H12735477   1.516   3.663   0.440  0.5688 -0.2691  0.1359
  176MOL   H12835478   1.388   3.715   0.221  3.9776 -2.4268 -0.7435
  176MOL   H12935479   1.526   3.575   0.083  1.0074  2.3714  0.2882
  176MOL   H13035480   1.628   3.588   0.236  0.3438  0.1367 -1.6275
  176MOL   H13135481   1.573   3.438   0.158  1.8788  0.1586  2.3383
  176MOL   C13235482   1.211   3.609   0.294  0.1009 -0.2938  0.3367
  176MOL   C13335483   1.149   3.560   0.155 -0.1709  0.3116  0.2395
  176MOL   O13435484   1.011   3.554   0.177  0.4232  0.2351  0.3064
  176MOL   C13535485   0.956   3.446   0.255  0.3370  0.3235  0.1796
  176MOL   H13635486   1.162   3.703   0.317  0.2716 -0.2248  0.4151
  176MOL   H13735487   1.197   3.536   0.374 -3.6510 -0.3873 -0.2982
  176MOL   H13835488   1.185   3.463   0.120 -0.1964  0.5846 -0.5397
  176MOL   H13935489   0.970   3.344   0.223 -1.3205  0.0049  0.4252
  176MOL   H14035490   0.989   3.447   0.359  0.8432  0.8232  0.0165
  176MOL   H14135491   0.851   3.478   0.256  1.1142  3.1174 -1.4666
  176MOL   C14235492   1.186   3.642   0.028 -0.1869 -0.2374  0.3331
  176MOL   C14335493   1.069   3.652   7.731 -1.0822 -0.0821  0.6189
  176MOL   O14435494   1.005   3.775   7.740  0.0329  0.1453 -0.4848
  176MOL   C14535495   0.927   3.792   0.050  1.0622  0.0673 -0.1168
  176MOL   H14635496   1.281   3.606   7.799  0.6584  2.9092 -0.6516
  176MOL   H14735497   1.207   3.749   0.036  3.9495 -1.0274  1.0606
  176MOL   H14835498   1.009   3.561   7.731 -2.1337  0.5938 -0.2086
  176MOL   H14935499   0.981   3.814   0.142  0.6634 -0.3053  0.2065
  176MOL   H15035500   0.878   3.886   0.023  0.2023 -1.4707 -4.3075
  176MOL   H15135501   0.856   3.710   0.059  1.6565 -0.7664 -2.4525
  176MOL   C15235502   1.138   3.659   7.588  0.8025  0.3227  0.6900
  176MOL   C15335503   1.037   3.632   7.473  0.1463  0.6913 -0.1677
  176MOL   O15435504   1.085   3.689   7.356 -0.1757  0.1742  0.0087
  176MOL   C15535505   1.070   3.828   7.340  0.4738  0.7577 -0.3978
  176MOL   H15635506   1.219   3.588   7.572  2.0852  1.9618 -0.1964
  176MOL   H15735507   1.184   3.757   7.582  1.8450 -0.2623 -1.2720
  176MOL   H15835508   0.944   3.683   7.497 -0.5205 -0.9548  0.8310
  176MOL   H15935509   1.127   3.858   7.252 -0.4119  0.3711 -1.1092
  176MOL   H16035510   0.963   3.851   7.332  0.0639 -0.1754  2.0245
  176MOL   H16135511   1.112   3.894   7.416 -0.1890  2.6895 -1.6387
  176MOL   C16235512   1.013   3.485   7.450 -0.0131  0.0270  0.0365
  176MOL   C16335513   0.879   3.465   7.382  0.0823 -0.3321  0.0005
  176MOL   O16435514   0.890   3.384   7.271 -0.1644  0.4848  0.2676
  176MOL   C16535515   0.795   3.400   7.170 -0.4702  0.2911  0.2283
  176MOL   H16635516   1.024   3.416   7.534  1.0889 -1.0141 -0.9435
  176MOL   H16735517   1.090   3.439   7.388 -1.2511 -1.9865 -0.0307
  176MOL   H16835518   0.851   3.562   7.342  0.7693 -0.3181 -0.4594
  176MOL   H16935519   0.791   3.506   7.144  0.6180 -0.0281 -1.3189
  176MOL   H17035520   0.822   3.346   7.079  2.0769 -0.6193  1.4998
  176MOL   H17135521   0.695   3.365   7.199 -0.2272 -0.4068  0.2259
  176MOL   C17235522   0.767   3.410   7.473 -0.3214 -0.7715  0.0787
  176MOL   C17335523   0.713   3.508   7.583 -0.2930  0.1769 -0.5767
  176MOL   O17435524   0.635   3.606   7.528  0.2546 -0.0507 -0.0252
  176MOL   C17535525   0.647   3.729   7.597 -0.4035 -0.4610 -0.1947
  176MOL   H17635526   0.800   3.319   7.522  1.3683  1.3877  3.1588
  176MOL   H17735527   0.679   3.390   7.412 -0.9569  1.5680  0.1736
  176MOL   H17835528   0.800   3.541   7.640 -0.3565  1.8250 -1.3995
  176MOL   H17935529   0.633   3.716   7.705 -0.9692 -0.7596 -0.3021
  176MOL   H18035530   0.746   3.773   7.585 -1.4676  3.6207  4.1975
  176MOL   H18135531   0.571   3.801   7.569  1.9286  1.9307 -0.5139
  176MOL   C18235532   0.622   3.443   7.687  0.1921  0.0543  0.1896
  176MOL   C18335533   0.650   3.297   7.737  0.2749 -0.2950 -0.1681
  176MOL   O18435534   0.780   3.296   7.795  0.2742  0.4767 -0.0538
  176MOL   C18535535   0.853   3.176   7.775 -0.1714 -0.6016  0.4492
  176MOL   H18635536   0.526   3.443   7.636  0.7976  1.6069 -0.9807
  176MOL   H18735537   0.627   3.516   7.768  2.3169  1.4459 -1.1497
  176MOL   H18835538   0.642   3.241   7.643  1.3904  0.7981 -0.9414
  176MOL   H18935539   0.846   3.141   7.672 -3.5991  2.3289 -0.4192
  176MOL   H19035540   0.954   3.214   7.790 -0.3606 -0.0695  0.3776
  176MOL   H19135541   0.831   3.100   0.040  2.5156 -1.1323  0.7325
  176MOL   C19235542   0.545   3.249   0.033 -0.4297  0.8160  0.3225
  176MOL   C19335543   0.500   3.108   0.014  0.9054 -0.4062 -0.2315
  176MOL   O19435544   0.402   3.075   0.114 -0.5402 -0.0832 -0.1273
  176MOL   C19535545   0.353   2.943   0.100 -0.4208  0.2361 -0.3126
  176MOL   H19635546   0.457   3.311   0.017 -0.8617 -0.3599 -2.0493
  176MOL   H19735547   0.592   3.275   0.128  1.1999  4.3396 -1.3699
  176MOL   H19835548   0.586   3.042   0.019  1.0282 -0.2865 -0.7852
  176MOL   H19935549   0.274   2.927   0.173  0.0937 -1.8612 -0.1622
  176MOL   H20035550   0.303   2.934   0.004 -2.2408  1.9385  0.4359
  176MOL   H20135551   0.424   2.862   0.121 -0.7764 -0.0203 -0.0829
  176MOL   H20235552   0.445   3.103   7.731 -0.8105  1.1197  0.6577
  177MOL     C135553   3.406   1.888   7.598  0.3674  0.3374  0.3627
  177MOL     C235554   3.309   1.779   7.632  0.3723 -0.0367  0.0945
  177MOL     O335555   3.365   1.659   7.586  0.1056 -0.3615 -0.3884
  177MOL     C435556   3.313   1.615   7.462 -0.3665 -0.3548  0.7045
  177MOL     H535557   3.402   1.926   7.496 -1.0226  1.1069  0.6800
  177MOL     H635558   3.381   1.984   7.645  2.1065  2.1896 -2.3446
  177MOL     H735559   3.210   1.793   7.589 -0.2691 -0.4976  1.3851
  177MOL     H835560   3.205   1.607   7.473 -0.2112  0.3751  3.2741
  177MOL     H935561   3.344   1.681   7.381  1.7043 -1.5919  0.4528
  177MOL    H1035562   3.363   1.521   7.439  1.5543  0.6957  0.4484
  177MOL    H1135563   3.510   1.861   7.613  0.3639 -0.2234 -0.6312
  177MOL    C1235564   3.301   1.754   7.784 -0.3742 -0.0111  0.4134
  177MOL    C1335565   3.207   1.637   0.019 -0.2489 -0.5461  0.2483
  177MOL    O1435566   3.223   1.617   0.157 -0.3424 -0.5243  0.3368
  177MOL    C1535567   3.316   1.510   0.190  0.5482 -0.7463 -0.5674
  177MOL    H1635568   3.262   1.843   0.023 -0.4671 -1.0487  2.2116
  177MOL    H1735569   3.405   1.744   0.004 -0.0558 -0.8190 -0.8691
  177MOL    H1835570   3.236   1.549   7.773  0.2662  0.4201 -1.0039
  177MOL    H1935571   3.318   1.486   0.296  0.3286 -1.7641 -0.7871
  177MOL    H2035572   3.292   1.421   0.132  4.3746 -1.9145 -0.4551
  177MOL    H2135573   3.415   1.545   0.161  1.0603 -1.2026  0.5676
  177MOL    C2235574   3.059   1.660   7.794 -0.8063 -0.5802  0.1715
  177MOL    C2335575   2.972   1.543   0.018  0.4280 -0.4093  0.5962
  177MOL    O2435576   2.842   1.593   0.044  0.3156 -0.2771 -0.7185
  177MOL    C2535577   2.752   1.510   0.104  0.4160 -0.0491  0.0096
  177MOL    H2635578   3.062   1.674   7.685 -0.0123  0.5676  0.3310
  177MOL    H2735579   3.042   1.755   0.034 -1.0381 -1.2632  1.3723
  177MOL    H2835580   3.003   1.499   0.113  1.8653 -2.6978 -0.8832
  177MOL    H2935581   2.793   1.440   0.177 -1.9162 -0.4803  0.9287
  177MOL    H3035582   2.683   1.572   0.161 -1.0107 -0.3998 -1.3258
  177MOL    H3135583   2.698   1.456   0.026  0.8961  1.0739 -1.1289
  177MOL    C3235584   2.968   1.437   7.704  0.2163  0.1488  0.0209
  177MOL    C3335585   2.944   1.294   7.750 -0.3390 -0.2646 -0.7923
  177MOL    O3435586   2.902   1.219   7.636  0.4127  0.2724  0.1175
  177MOL    C3535587   2.759   1.213   7.621 -0.5141  0.8756 -0.1918
  177MOL    H3635588   3.057   1.443   7.641  0.9892 -1.9582  0.8694
  177MOL    H3735589   2.886   1.459   7.636 -0.7535  2.4342  1.8401
  177MOL    H3835590   2.857   1.301   0.005  0.2956 -1.8685  0.2483
  177MOL    H3935591   2.737   1.182   7.518  2.2045  1.5346 -1.0034
  177MOL    H4035592   2.720   1.139   7.691  0.4804  0.6675  0.1426
  177MOL    H4135593   2.709   1.304   7.652 -1.3924  0.0860  0.7346
  177MOL    C4235594   3.068   1.240   0.008 -0.1716 -0.3438 -0.5262
  177MOL    C4335595   3.032   1.142   0.117 -0.3265  0.2390 -0.4501
  177MOL    O4435596   2.979   1.229   0.214 -0.1442  0.1321 -0.3017
  177MOL    C4535597   2.977   1.165   0.343  0.1991 -0.7931 -0.2059
  177MOL    H4635598   3.116   1.318   0.066  0.0716 -2.3274  2.0413
  177MOL    H4735599   3.143   1.195   7.753  2.1694  0.1450  1.7488
  177MOL    H4835600   3.129   1.109   0.153 -1.0513 -0.5118  0.8418
  177MOL    H4935601   2.911   1.219   0.411  0.1797 -1.0578 -0.0152
  177MOL    H5035602   2.931   1.067   0.357 -0.4187 -0.4007  0.5596
  177MOL    H5135603   3.082   1.164   0.372  0.8148 -0.5421 -2.3747
  177MOL    C5235604   2.955   1.010   0.072 -0.6605 -0.1490 -0.5865
  177MOL    C5335605   3.019   0.928   7.767  0.1725 -0.5524  0.2176
  177MOL    O5435606   3.147   0.891   0.010  0.0010 -0.0048  0.3287
  177MOL    C5535607   3.250   0.877   7.723  0.0894 -0.6136  0.1385
  177MOL    H5635608   2.860   1.046   0.032 -2.2923 -1.8077  1.6993
  177MOL    H5735609   2.927   0.952   0.159 -1.1552 -0.1983 -0.7774
  177MOL    H5835610   3.020   0.983   7.673  0.1416 -3.9224 -1.8331
  177MOL    H5935611   3.252   0.780   7.674  0.1281 -0.6960  0.3028
  177MOL    H6035612   3.248   0.952   7.643 -1.7129 -1.3487 -0.5345
  177MOL    H6135613   3.350   0.891   7.764  0.5975  1.4428 -1.7011
  177MOL    C6235614   2.935   0.801   7.746 -0.1525  0.1666 -0.8551
  177MOL    C6335615   2.791   0.818   7.699 -0.4946 -1.0477  0.1578
  177MOL    O6435616   2.776   0.748   7.578  0.3091  0.4303  0.4995
  177MOL    C6535617   2.842   0.800   7.466  0.2998 -0.0133  0.2541
  177MOL    H6635618   2.937   0.746   0.029 -2.1553  0.2921 -0.7046
  177MOL    H6735619   2.989   0.737   7.676 -0.3070 -0.6586 -0.2251
  177MOL    H6835620   2.784   0.926   7.684 -0.2892 -0.5851  3.0309
  177MOL    H6935621   2.946   0.824   7.488  0.3759 -1.9276  2.1794
  177MOL    H7035622   2.837   0.714   7.399 -3.5409 -0.3683  0.8837
  177MOL    H7135623   2.790   0.888   7.429 -0.3763 -0.0883  1.0315
  177MOL    C7235624   2.687   0.759   7.806  0.5677 -0.7277 -0.1516
  177MOL    C7335625   2.535   0.776   7.762  0.2585  0.2151 -0.1954
  177MOL    O7435626   2.451   0.725   0.055 -0.6240 -0.2054  0.1720
  177MOL    C7535627   2.477   0.593   0.096  0.0073  0.0323 -0.3986
  177MOL    H7635628   2.709   0.817   0.085 -0.0142  2.0355 -1.7149
  177MOL    H7735629   2.713   0.655   0.013 -1.8816 -1.3093  0.2992
  177MOL    H7835630   2.523   0.715   7.673 -0.4508 -0.0672  0.0909
  177MOL    H7935631   2.561   0.596   0.165 -1.6541  0.6247  1.6552
  177MOL    H8035632   2.389   0.548   0.143 -0.5780  1.4436 -0.1283
  177MOL    H8135633   2.500   0.537   0.006  0.7884 -2.3118  1.2016
  177MOL    C8235634   2.478   0.919   7.735  0.2029 -0.0505 -1.2757
  177MOL    C8335635   2.478   1.015   0.045 -0.4099 -0.4699 -0.2034
  177MOL    O8435636   2.604   1.046   0.095  0.2142  0.4851 -0.3439
  177MOL    C8535637   2.614   1.081   0.233  0.7463 -0.2169 -0.3794
  177MOL    H8635638   2.374   0.905   7.706 -0.2958 -0.0334  0.4404
  177MOL    H8735639   2.535   0.953   7.648 -1.4617 -0.0665 -2.3826
  177MOL    H8835640   2.420   0.971   0.126 -1.7763  2.8822  0.7176
  177MOL    H8935641   2.550   1.165   0.261  1.0191  0.1173 -0.7400
  177MOL    H9035642   2.600   1.002   0.306 -2.4559  0.8993  0.3065
  177MOL    H9135643   2.709   1.134   0.242 -0.1528  1.1541  1.5332
  177MOL    C9235644   2.418   1.145   7.803 -0.4650 -0.8903  0.0308
  177MOL    C9335645   2.272   1.139   7.776 -0.1161 -0.3366 -0.2797
  177MOL    O9435646   2.214   1.107   0.093 -0.1024  0.0893  0.6090
  177MOL    C9535647   2.074   1.103   0.105  0.2557 -0.2214 -0.0247
  177MOL    H9635648   2.475   1.172   7.713 -2.6202 -0.9425 -1.3867
  177MOL    H9735649   2.444   1.226   0.060  0.0209 -0.5405 -0.5640
  177MOL    H9835650   2.245   1.063   7.702 -0.3809  0.5315 -1.0840
  177MOL    H9935651   2.037   1.195   0.149  2.1271  1.6561 -2.2275
  177MOL   H10035652   2.023   1.089   0.010 -0.4093  0.1426  0.2774
  177MOL   H10135653   2.038   1.023   0.169  0.6412 -0.7501 -0.4552
  177MOL   C10235654   2.231   1.285   7.745 -0.4316 -0.1353  0.4646
  177MOL   C10335655   2.292   1.346   7.612  0.4852  0.2842  0.2400
  177MOL   O10435656   2.231   1.264   7.516  0.2273 -0.5206  0.8504
  177MOL   C10535657   2.295   1.235   7.392 -0.5212  0.1681 -0.2591
  177MOL   H10635658   2.262   1.355   0.012  0.7477 -1.4539  1.2099
  177MOL   H10735659   2.124   1.291   7.730 -0.2449  0.9237 -0.5068
  177MOL   H10835660   2.400   1.352   7.613  0.4751  2.6663 -3.0674
  177MOL   H10935661   2.368   1.158   7.416 -1.9087 -1.6795 -1.8444
  177MOL   H11035662   2.229   1.211   7.308  1.3076  0.3541 -1.7984
  177MOL   H11135663   2.348   1.323   7.354 -0.7715  0.1981 -0.5418
  177MOL   C11235664   2.228   1.489   7.576 -0.1627 -0.3737 -0.1607
  177MOL   C11335665   2.245   1.590   7.691 -0.0425  0.2004  0.1177
  177MOL   O11435666   2.374   1.573   7.744 -0.2557  0.1052  0.5553
  177MOL   C11535667   2.479   1.638   7.665 -0.1933  0.2472 -0.5912
  177MOL   H11635668   2.121   1.475   7.559 -0.0109 -1.0483 -0.5637
  177MOL   H11735669   2.267   1.520   7.479  0.0938 -0.6281 -0.1433
  177MOL   H11835670   2.164   1.558   7.757 -0.0089  0.3398  0.2247
  177MOL   H11935671   2.580   1.606   7.690 -0.0130  1.1822 -0.1097
  177MOL   H12035672   2.465   1.607   7.561 -2.4077  0.5661 -0.4079
  177MOL   H12135673   2.476   1.747   7.665 -0.9426  0.2284 -0.1724
  177MOL   C12235674   2.210   1.738   7.654  0.3995  0.1625  0.3757
  177MOL   C12335675   2.206   1.839   7.773  0.9905  0.1987 -0.9050
  177MOL   O12435676   2.208   1.972   7.712  0.0189 -0.1606 -0.1614
  177MOL   C12535677   2.332   2.033   7.684 -0.1045  0.0492 -0.3547
  177MOL   H12635678   2.108   1.737   7.617  1.1511 -0.9493 -1.7944
  177MOL   H12735679   2.263   1.787   7.572 -0.5172 -0.2856 -0.4941
  177MOL   H12835680   2.299   1.828   0.018  1.1792 -1.5640 -1.5337
  177MOL   H12935681   2.396   1.969   7.624  0.8130  0.9124 -0.3144
  177MOL   H13035682   2.322   2.124   7.624 -0.0372  0.6424  0.5319
  177MOL   H13135683   2.396   2.042   7.772  1.2644  0.3456 -1.3631
  177MOL   C13235684   2.083   1.822   0.044  0.4049 -0.0756 -0.1409
  177MOL   C13335685   2.074   1.903   0.174 -0.2403  0.0817 -0.6221
  177MOL   O13435686   1.937   1.871   0.217 -0.5823 -0.2553  0.2538
  177MOL   C13535687   1.853   1.989   0.204  0.0500  0.0719 -0.4240
  177MOL   H13635688   2.067   1.717   0.069  1.9886 -0.7819 -1.9618
  177MOL   H13735689   1.994   1.850   7.798  0.2354 -1.3935 -0.5477
  177MOL   H13835690   2.088   2.011   0.165  0.1788  0.1840  1.0673
  177MOL   H13935691   1.833   2.005   0.098  0.7419  0.1180 -0.5534
  177MOL   H14035692   1.755   1.981   0.251  0.5582 -0.5517  0.5564
  177MOL   H14135693   1.909   2.079   0.231 -0.3567  0.3389 -0.4643
  177MOL   C14235694   2.169   1.841   0.288 -0.5449  0.7843 -0.0730
  177MOL   C14335695   2.173   1.929   0.419 -0.7088  0.7605  0.2738
  177MOL   O14435696   2.103   1.855   0.521  0.4401  0.5111  0.3251
  177MOL   C14535697   1.963   1.838   0.515  0.5718  0.1115  0.5170
  177MOL   H14635698   2.269   1.827   0.247 -0.8943 -3.7872  0.3416
  177MOL   H14735699   2.129   1.741   0.303 -1.5976  0.9684 -1.5679
  177MOL   H14835700   2.125   2.026   0.406 -2.2921 -0.0222  0.1497
  177MOL   H14935701   1.947   1.798   0.615  0.1519  1.4294  0.9901
  177MOL   H15035702   1.911   1.932   0.498 -0.1156 -0.4209 -0.4145
  177MOL   H15135703   1.933   1.756   0.449 -2.2872 -0.1440  2.0497
  177MOL   C15235704   2.316   1.947   0.466  0.1275  0.1328 -1.1630
  177MOL   C15335705   2.387   2.045   0.371  1.1631  0.7820 -0.2288
  177MOL   O15435706   2.332   2.173   0.390  0.2417 -0.0184 -0.2434
  177MOL   C15535707   2.318   2.249   0.275 -0.0073 -0.0761  0.2410
  177MOL   H15635708   2.360   1.848   0.459 -0.2475 -0.3662  2.5210
  177MOL   H15735709   2.312   1.980   0.569  0.3513 -2.0569 -0.4321
  177MOL   H15835710   2.373   2.007   0.269 -1.4237  2.5156 -0.5562
  177MOL   H15935711   2.294   2.189   0.188  0.7027  1.7095 -1.2173
  177MOL   H16035712   2.244   2.329   0.286  0.2701  0.1135  0.7910
  177MOL   H16135713   2.419   2.291   0.267 -0.0191  0.0387  0.6657
  177MOL   C16235714   2.532   2.063   0.390 -0.1565 -0.2081 -0.6046
  177MOL   C16335715   2.612   1.941   0.328 -0.5913  0.1538  0.3258
  177MOL   O16435716   2.624   1.954   0.185  0.5700  0.3735 -0.9727
  177MOL   C16535717   2.613   1.841   0.102  1.0370 -0.5177  0.5604
  177MOL   H16635718   2.564   2.077   0.494  0.2206 -0.1981 -0.7211
  177MOL   H16735719   2.561   2.157   0.344  0.1465 -1.1908 -2.4642
  177MOL   H16835720   2.558   1.850   0.357  0.3615  0.3246  2.7389
  177MOL   H16935721   2.716   1.809   0.086  1.1170  0.0693 -0.1313
  177MOL   H17035722   2.551   1.760   0.142 -0.8211 -0.5630 -2.2498
  177MOL   H17135723   2.572   1.872   0.006 -0.6234 -2.6973  0.5161
  177MOL   C17235724   2.756   1.925   0.378  0.1131  0.3272 -0.3018
  177MOL   C17335725   2.772   1.887   0.527 -0.2245  0.4918  0.1859
  177MOL   O17435726   2.760   1.989   0.624 -0.2180  0.3700  0.7047
  177MOL   C17535727   2.864   2.081   0.620 -0.4623  0.3759  0.2480
  177MOL   H17635728   2.820   2.011   0.356  0.5653 -0.1613 -0.9326
  177MOL   H17735729   2.798   1.845   0.317 -0.0875  1.7968 -2.4335
  177MOL   H17835730   2.872   1.846   0.539 -0.1534  0.6632  0.1772
  177MOL   H17935731   2.948   2.024   0.661  0.1314  0.4282 -0.8706
  177MOL   H18035732   2.896   2.119   0.523 -0.2191  2.7104  1.1873
  177MOL   H18135733   2.837   2.173   0.673  0.2228  1.3291 -1.0269
  177MOL   C18235734   2.693   1.766   0.586 -0.7635  0.0356  0.1067
  177MOL   C18335735   2.748   1.637   0.518 -0.2720 -0.0583 -0.3329
  177MOL   O18435736   2.881   1.619   0.565  0.5851 -0.1001  0.3174
  177MOL   C18535737   2.959   1.526   0.491  0.8726  0.4182  0.5644
  177MOL   H18635738   2.584   1.763   0.586 -0.7643  0.1283  0.6360
  177MOL   H18735739   2.715   1.747   0.691  1.7551 -0.5822 -0.5076
  177MOL   H18835740   2.746   1.650   0.409  2.0799 -0.1028 -0.4065
  177MOL   H18935741   2.930   1.521   0.387 -1.7563  2.7505  1.1368
  177MOL   H19035742   3.064   1.555   0.487  0.7650  0.7752  0.4216
  177MOL   H19135743   2.951   1.429   0.540 -0.5518  0.2142 -0.0572
  177MOL   C19235744   2.653   1.527   0.558  0.5755 -0.2530  0.4618
  177MOL   C19335745   2.523   1.526   0.479  0.1562 -0.2060 -0.2379
  177MOL   O19435746   2.553   1.494   0.344 -1.2098 -0.5452  0.1140
  177MOL   C19535747   2.451   1.431   0.268  0.8365 -0.0423 -0.7339
  177MOL   H19635748   2.637   1.520   0.666 -1.8453  2.4800  0.3276
  177MOL   H19735749   2.698   1.430   0.536 -0.7308 -0.7995  0.2070
  177MOL   H19835750   2.472   1.623   0.479  2.0571  0.8265  0.0483
  177MOL   H19935751   2.414   1.338   0.312 -2.3110  0.6618 -1.7665
  177MOL   H20035752   2.363   1.491   0.245  0.8151  0.7573  1.3320
  177MOL   H20135753   2.485   1.417   0.166 -0.0865  0.6310 -1.1442
  177MOL   H20235754   2.452   1.455   0.522  0.7892 -0.1986  0.8408
  178MOL     C135755   0.571   0.241   0.295  0.2454  0.1349  0.2955
  178MOL     C235756   0.606   0.096   0.261  0.6435  0.9196 -0.8325
  178MOL     O335757   0.585   0.007   0.378 -0.4604 -0.1634 -0.1359
  178MOL     C435758   0.671   0.032   0.483  0.2070 -0.5803 -0.2732
  178MOL     H535759   0.475   0.255   0.345 -0.7763  0.3743 -1.6757
  178MOL     H635760   0.650   0.285   0.357 -0.0674  0.5093  0.4283
  178MOL     H735761   0.712   0.088   0.234  1.4273  1.1116  2.0358
  178MOL     H835762   0.651   0.126   0.534  0.5059 -0.6318 -0.0622
  178MOL     H935763   0.655   7.772   0.565  1.0152 -0.5705 -0.1085
  178MOL    H1035764   0.773   0.029   0.444 -0.8541  1.7258 -3.4025
  178MOL    H1135765   0.595   0.306   0.211  0.4683  0.2098  0.4143
  178MOL    C1235766   0.524   0.032   0.138 -0.0696 -0.0996  0.3725
  178MOL    C1335767   0.575   7.705   0.084 -0.3120 -0.4062 -0.2156
  178MOL    O1435768   0.522   7.679   7.761 -0.5253 -0.4236  0.1904
  178MOL    C1535769   0.424   7.570   7.759 -0.1755  0.5241  0.5792
  178MOL    H1635770   0.536   0.099   0.052  3.0509 -0.6350  0.3011
  178MOL    H1735771   0.417   0.021   0.152 -0.7686  2.6045 -2.1451
  178MOL    H1835772   0.536   7.630   0.152 -0.2406  0.4350  0.7682
  178MOL    H1935773   0.474   7.479   7.794 -0.2794  0.0307 -0.5233
  178MOL    H2035774   0.327   7.590   7.803 -0.6545  1.4851 -0.8987
  178MOL    H2135775   0.396   7.544   7.656 -0.3081 -0.5041  0.8635
  178MOL    C2235776   0.733   7.697   0.084  0.6538 -0.6311  0.2682
  178MOL    C2335777   0.803   7.589   7.805  0.6356  0.5907 -0.1982
  178MOL    O2435778   0.899   7.642   7.711  0.1960  0.1126 -0.1553
  178MOL    C2535779   0.840   7.688   7.589 -0.3686  0.1316  0.8271
  178MOL    H2635780   0.765   7.693   0.188  0.0162 -0.3018  0.4842
  178MOL    H2735781   0.771   7.789   0.039  0.4507 -1.0049 -0.6832
  178MOL    H2835782   0.733   7.541   7.736 -1.1693  0.1748  1.8655
  178MOL    H2935783   0.754   7.749   7.615 -0.2277  1.1575 -1.0173
  178MOL    H3035784   0.912   7.747   7.532  1.6062 -2.4311  0.5528
  178MOL    H3135785   0.816   7.620   7.507  1.4153 -0.7905  1.0420
  178MOL    C3235786   0.877   7.480   0.070  0.6322  0.0712  0.6958
  178MOL    C3335787   0.784   7.393   0.144  0.9153 -0.7760 -0.5054
  178MOL    O3435788   0.701   7.335   0.048  0.2474  0.1562  0.2989
  178MOL    C3535789   0.597   7.260   0.111  0.0074  0.0635 -0.1678
  178MOL    H3635790   0.954   7.521   0.136 -0.6118  1.7470  1.1462
  178MOL    H3735791   0.931   7.415   0.001 -0.2046  0.4280 -0.3133
  178MOL    H3835792   0.732   7.456   0.215 -0.0710 -0.4137 -1.5358
  178MOL    H3935793   0.633   7.164   0.149 -0.4602  0.5328  1.5373
  178MOL    H4035794   0.544   7.304   0.196 -1.6657  0.3042 -1.2980
  178MOL    H4135795   0.520   7.233   0.039  0.7051  0.6091 -1.1149
  178MOL    C4235796   0.866   7.283   0.219 -0.5540 -0.4523 -0.5021
  178MOL    C4335797   0.938   7.333   0.346 -0.0665  0.8459 -0.1692
  178MOL    O4435798   0.841   7.410   0.419  0.5637 -0.2074 -0.0924
  178MOL    C4535799   0.903   7.514   0.498  0.1216 -0.5946  0.4469
  178MOL    H4635800   0.941   7.231   0.160 -0.4417  1.1563 -1.8192
  178MOL    H4735801   0.804   7.205   0.262 -0.9862  0.6381  0.8919
  178MOL    H4835802   1.013   7.405   0.314 -0.8017  1.4213 -0.6134
  178MOL    H4935803   0.833   7.563   0.566 -1.7165  0.4784 -2.1258
  178MOL    H5035804   0.976   7.470   0.566  0.7902 -0.2564 -0.0408
  178MOL    H5135805   0.947   7.594   0.438 -0.2547 -1.0035 -0.3806
  178MOL    C5235806   0.991   7.216   0.432  1.0519 -0.5627  0.2538
  178MOL    C5335807   1.127   7.159   0.380 -0.4340  0.7380  0.2348
  178MOL    O5435808   1.215   7.261   0.420  0.3899 -0.2221 -0.9353
  178MOL    C5535809   1.321   7.284   0.332  0.4748  0.5479 -0.4050
  178MOL    H5635810   0.926   7.128   0.423  1.3821 -0.8800  0.9313
  178MOL    H5735811   0.994   7.242   0.538 -4.4519 -2.8593  1.1576
  178MOL    H5835812   1.135   7.139   0.273  0.3266 -0.4313  0.4964
  178MOL    H5935813   1.361   7.196   0.282  0.8371  1.2415 -1.3496
  178MOL    H6035814   1.301   7.365   0.261 -1.6695 -0.1964 -0.6907
  178MOL    H6135815   1.403   7.325   0.391  0.1232  0.0656  0.4321
  178MOL    C6235816   1.174   7.023   0.446  0.2637  0.3971 -0.2441
  178MOL    C6335817   1.084   6.901   0.406 -0.2367  0.1735  0.1832
  178MOL    O6435818   1.116   6.883   0.267 -0.6028  1.0898  0.4391
  178MOL    C6535819   1.001   6.891   0.191 -0.3044  0.0895 -0.0714
  178MOL    H6635820   1.191   7.031   0.553  0.8891 -1.1055 -0.2279
  178MOL    H6735821   1.276   7.024   0.406  0.1729  0.8217 -0.4778
  178MOL    H6835822   0.978   6.918   0.428  0.1149  0.5549  1.6391
  178MOL    H6935823   0.932   6.811   0.217 -1.9177  1.5179  0.0974
  178MOL    H7035824   0.944   6.983   0.207  0.5971  0.3433  1.8611
  178MOL    H7135825   1.025   6.897   0.085  2.2167  2.0933  0.5485
  178MOL    C7235826   1.132   6.780   0.481 -0.1023  0.5453  0.1030
  178MOL    C7335827   1.109   6.773   0.630  0.4280  0.3369 -0.0913
  178MOL    O7435828   0.971   6.793   0.653 -0.7811  0.1345 -0.7252
  178MOL    C7535829   0.932   6.882   0.760  0.3233 -0.0115  0.0519
  178MOL    H7635830   1.236   6.761   0.453 -0.1531  3.3758 -2.2043
  178MOL    H7735831   1.085   6.689   0.445  2.2784 -0.7595  0.1513
  178MOL    H7835832   1.160   6.860   0.671 -0.1703  0.3437  0.6651
  178MOL    H7935833   0.981   6.979   0.759 -1.7022  1.0399 -0.7047
  178MOL    H8035834   0.824   6.898   0.761  0.2747 -0.3109 -0.2075
  178MOL    H8135835   0.956   6.837   0.856 -0.1945  1.1386  0.7365
  178MOL    C8235836   1.150   6.642   0.695  0.2690 -0.3839 -0.7928
  178MOL    C8335837   1.292   6.597   0.672  0.8750 -0.6958  1.2481
  178MOL    O8435838   1.368   6.711   0.720  0.4605  0.3311  0.4305
  178MOL    C8535839   1.508   6.698   0.705 -0.4408 -0.5920 -0.6338
  178MOL    H8635840   1.081   6.566   0.660 -0.7310  0.5095 -0.7924
  178MOL    H8735841   1.144   6.648   0.804  4.8251 -0.3945 -0.4393
  178MOL    H8835842   1.304   6.585   0.564  1.4356  2.3837  0.9074
  178MOL    H8935843   1.550   6.602   0.735  1.5099 -0.2809 -2.1861
  178MOL    H9035844   1.514   6.693   0.596 -0.6832 -1.2978 -0.6135
  178MOL    H9135845   1.569   6.782   0.738 -1.2209 -0.0689 -0.5206
  178MOL    C9235846   1.321   6.465   0.748  0.4829 -0.7029 -0.1422
  178MOL    C9335847   1.402   6.361   0.658 -0.8908  0.5398 -0.3049
  178MOL    O9435848   1.422   6.253   0.747  0.1680 -0.5709 -0.0428
  178MOL    C9535849   1.561   6.242   0.784 -0.5374 -0.5432  0.3748
  178MOL    H9635850   1.225   6.420   0.773  0.8190  0.1183  2.7919
  178MOL    H9735851   1.361   6.469   0.849 -2.3120  1.0311  0.9639
  178MOL    H9835852   1.491   6.418   0.634 -1.1824  0.4820 -1.5696
  178MOL    H9935853   1.599   6.337   0.822 -0.2440 -0.6163  0.2598
  178MOL   H10035854   1.575   6.160   0.854  0.7710 -0.1908  0.5413
  178MOL   H10135855   1.611   6.208   0.693 -0.9258  1.3983 -0.5962
  178MOL   C10235856   1.320   6.299   0.539  0.1142 -0.2702  0.0333
  178MOL   C10335857   1.413   6.255   0.423 -0.0928  0.5216 -0.1262
  178MOL   O10435858   1.348   6.147   0.358 -0.3409  0.3406  0.1779
  178MOL   C10535859   1.425   6.050   0.300  0.7389  0.1720  0.1978
  178MOL   H10635860   1.248   6.376   0.511 -0.1003 -0.4581  0.0662
  178MOL   H10735861   1.259   6.215   0.575 -0.1942  0.3270  0.9165
  178MOL   H10835862   1.508   6.209   0.453 -1.3842 -1.7833  0.5486
  178MOL   H10935863   1.449   5.963   0.360 -3.2026 -0.4967  0.9294
  178MOL   H11035864   1.382   6.026   0.203  1.4732 -0.0433 -0.0746
  178MOL   H11135865   1.518   6.086   0.257  1.2975 -1.9965 -0.4469
  178MOL   C11235866   1.430   6.369   0.314 -0.1302 -0.5860 -1.0012
  178MOL   C11335867   1.545   6.467   0.355  0.1919  0.2269  0.2162
  178MOL   O11435868   1.662   6.387   0.377  0.0807 -0.0881 -0.1858
  178MOL   C11535869   1.761   6.450   0.452 -0.7925 -0.3124 -0.3795
  178MOL   H11635870   1.341   6.428   0.294  0.0628  0.8053  1.9447
  178MOL   H11735871   1.463   6.336   0.215  1.9881 -1.7262  0.0273
  178MOL   H11835872   1.508   6.517   0.445 -0.2232 -1.1247  0.8089
  178MOL   H11935873   1.808   6.532   0.399  0.5609 -0.1371  1.0452
  178MOL   H12035874   1.731   6.487   0.550  0.6932 -0.4817  0.1564
  178MOL   H12135875   1.832   6.375   0.488 -0.6761  0.4460  1.0068
  178MOL   C12235876   1.569   6.576   0.252  0.8490 -0.4077 -0.3602
  178MOL   C12335877   1.624   6.543   0.111 -0.0760 -0.2484 -0.7334
  178MOL   O12435878   1.608   6.667   0.040  0.3718 -0.0893  0.4859
  178MOL   C12535879   1.473   6.694   7.800 -0.5587  0.3897 -0.1768
  178MOL   H12635880   1.627   6.658   0.293  0.1561 -1.4690  2.8746
  178MOL   H12735881   1.469   6.616   0.234  0.3004 -1.6258 -0.0883
  178MOL   H12835882   1.573   6.461   0.061 -1.0124 -0.1069 -0.0174
  178MOL   H12935883   1.403   6.727   0.065 -0.4985  1.1745 -0.4538
  178MOL   H13035884   1.478   6.773   7.724 -1.3576 -0.2081 -0.8591
  178MOL   H13135885   1.434   6.603   7.755 -1.1373 -1.8459  4.6405
  178MOL   C13235886   1.778   6.509   0.114 -0.2883  0.0408 -0.0604
  178MOL   C13335887   1.854   6.481   7.789 -0.1317 -0.5263 -0.3964
  178MOL   O13435888   1.988   6.441   0.004  0.0285  0.5182 -0.1275
  178MOL   C13535889   2.070   6.532   0.070 -0.1510 -0.3491  0.7274
  178MOL   H13635890   1.799   6.420   0.173 -3.7803  0.9899  2.7947
  178MOL   H13735891   1.816   6.605   0.149  0.2205  0.0534 -0.6412
  178MOL   H13835892   1.860   6.564   7.718 -0.8906 -1.1260 -1.1569
  178MOL   H13935893   2.027   6.575   0.161 -0.1019  1.4323 -0.0598
  178MOL   H14035894   2.169   6.492   0.088 -0.2599 -0.7502  0.4359
  178MOL   H14135895   2.082   6.625   0.014  1.2571 -1.4428 -0.8117
  178MOL   C14235896   1.776   6.374   7.710  0.4787  0.1092  0.8049
  178MOL   C14335897   1.843   6.323   7.581  0.7353 -0.0976  0.0285
  178MOL   O14435898   1.785   6.201   7.542  0.2432 -0.1320 -0.1835
  178MOL   C14535899   1.847   6.081   7.571  0.2245  0.6706 -0.6856
  178MOL   H14635900   1.671   6.399   7.696 -0.2774 -1.2863  3.6407
  178MOL   H14735901   1.772   6.293   7.782 -1.7618  0.0006  0.5722
  178MOL   H14835902   1.946   6.286   7.585  0.3973 -1.1245 -0.5612
  178MOL   H14935903   1.759   6.018   7.570  0.4885  0.2992 -0.7739
  178MOL   H15035904   1.927   6.056   7.500  0.9243 -0.7196  0.5605
  178MOL   H15135905   1.879   6.077   7.675  0.8624  3.1137 -0.7601
  178MOL   C15235906   1.821   6.419   7.467 -0.1009  0.3802  0.1367
  178MOL   C15335907   1.851   6.359   7.326 -0.1560  0.2523  0.4292
  178MOL   O15435908   1.789   6.446   7.237  0.1170  0.0812 -0.3647
  178MOL   C15535909   1.755   6.401   7.109  0.1325 -0.4687  0.4642
  178MOL   H15635910   1.864   6.516   7.489 -2.1371  1.1678  0.7193
  178MOL   H15735911   1.715   6.443   7.468 -0.2854 -0.2285 -1.9527
  178MOL   H15835912   1.802   6.261   7.324 -0.0246  0.2126 -0.7192
  178MOL   H15935913   1.837   6.383   7.040 -0.3844 -0.0268 -0.2672
  178MOL   H16035914   1.693   6.312   7.117  0.1478 -0.4919  0.3214
  178MOL   H16135915   1.705   6.470   7.042  0.0615  0.3255  1.3238
  178MOL   C16235916   1.991   6.372   7.280 -0.1304 -0.4443  0.1286
  178MOL   C16335917   2.064   6.506   7.308  0.2766 -0.0902 -0.5068
  178MOL   O16435918   2.143   6.492   7.430 -0.6225 -0.4267  0.1497
  178MOL   C16535919   2.167   6.612   7.510  0.2910 -0.0752 -0.7214
  178MOL   H16635920   1.995   6.348   7.174 -0.6521  2.0810 -0.5030
  178MOL   H16735921   2.054   6.296   7.327  1.0937  0.8885  0.6959
  178MOL   H16835922   1.996   6.591   7.307 -1.1161 -1.0069  3.5586
  178MOL   H16935923   2.219   6.574   7.598  1.6361  0.2997 -1.3503
  178MOL   H17035924   2.229   6.686   7.460  1.5673  0.1447  1.1308
  178MOL   H17135925   2.076   6.665   7.538 -0.1186 -0.2199 -1.7663
  178MOL   C17235926   2.181   6.526   7.203  0.2787  0.1857 -0.3919
  178MOL   C17335927   2.142   6.556   7.058 -0.9937  0.1100  0.1051
  178MOL   O17435928   2.090   6.693   7.049 -0.2547  0.3034 -0.1410
  178MOL   C17535929   1.988   6.706   6.951  0.7879 -0.3370 -0.4668
  178MOL   H17635930   2.246   6.439   7.207 -0.3335 -0.2695 -0.3777
  178MOL   H17735931   2.246   6.607   7.238  1.1021  0.0665 -1.6148
  178MOL   H17835932   2.076   6.476   7.024 -0.7857 -0.1407  0.2789
  178MOL   H17935933   1.903   6.642   6.975  2.2964 -2.1596  0.0590
  178MOL   H18035934   1.953   6.809   6.958  2.7917  0.2578  1.3225
  178MOL   H18135935   2.025   6.673   6.855  0.5839 -0.9504 -0.3368
  178MOL   C18235936   2.259   6.549   6.960  0.6452 -0.1339 -0.0840
  178MOL   C18335937   2.320   6.412   6.933 -0.2328 -0.0355  0.4470
  178MOL   O18435938   2.211   6.351   6.868  0.1521  0.2709 -0.2391
  178MOL   C18535939   2.225   6.205   6.871 -0.9343  0.0353  0.6474
  178MOL   H18635940   2.340   6.608   7.004  0.2393 -0.5919  1.2937
  178MOL   H18735941   2.230   6.602   6.869  1.2948  1.7119  0.7586
  178MOL   H18835942   2.350   6.364   7.026  3.2294 -1.0347 -1.0813
  178MOL   H18935943   2.309   6.171   6.810 -1.0438  0.5720  0.1981
  178MOL   H19035944   2.238   6.169   6.973  0.2706 -2.3936 -0.3256
  178MOL   H19135945   2.135   6.152   6.840  0.5092 -1.2604 -1.4843
  178MOL   C19235946   2.437   6.426   6.825 -0.3367  0.4592 -0.9076
  178MOL   C19335947   2.555   6.488   6.885  0.2881 -0.5495 -0.3580
  178MOL   O19435948   2.664   6.472   6.798 -0.3930  0.3499 -0.4122
  178MOL   C19535949   2.785   6.527   6.855  0.2038 -0.0243 -0.3366
  178MOL   H19635950   2.406   6.487   6.740 -0.2381  1.2837 -0.3555
  178MOL   H19735951   2.465   6.328   6.786 -0.3961  0.1864 -0.2575
  178MOL   H19835952   2.565   6.446   6.985  0.1634 -0.7454 -0.4272
  178MOL   H19935953   2.768   6.628   6.890 -0.9242 -0.5339  0.6546
  178MOL   H20035954   2.806   6.474   6.948  0.8620  2.6536  1.0595
  178MOL   H20135955   2.878   6.511   6.801 -0.0225  0.2090 -0.7969
  178MOL   H20235956   2.535   6.595   6.890  4.7445  0.2973  1.0698
  179MOL     C135957   3.213   3.219   0.225 -0.3244 -0.6006  0.2603
  179MOL     C235958   3.224   3.248   0.076  0.3465 -0.5880  0.0839
  179MOL     O335959   3.332   3.185   0.012  0.2118 -0.1232 -0.1266
  179MOL     C435960   3.444   3.271   0.017 -0.0289 -0.4329 -0.1828
  179MOL     H535961   3.291   3.269   0.282  0.7624 -1.9141 -0.0721
  179MOL     H635962   3.123   3.267   0.263 -0.3621 -1.4901  1.3080
  179MOL     H735963   3.213   3.357   0.074 -3.2676 -0.8720  1.8306
  179MOL     H835964   3.448   3.339   0.102 -1.0638  0.5299 -0.8887
  179MOL     H935965   3.531   3.206   0.015 -1.2923 -2.3163  3.2549
  179MOL    H1035966   3.444   3.338   7.741 -0.9100  1.6880  1.4286
  179MOL    H1135967   3.204   3.113   0.246  0.0633 -1.1975 -2.4424
  179MOL    C1235968   3.105   3.193   7.810 -0.2346 -0.0826 -0.2418
  179MOL    C1335969   3.048   3.287   7.700 -0.4776 -0.2032  0.2793
  179MOL    O1435970   2.958   3.205   7.622 -0.4241 -0.2904 -0.1461
  179MOL    C1535971   2.990   3.209   7.485 -0.0377  0.1731  0.2606
  179MOL    H1635972   3.028   3.178   0.075 -0.1700 -1.5448 -0.4574
  179MOL    H1735973   3.128   3.093   7.773 -3.2687 -1.0514  0.3251
  179MOL    H1835974   3.133   3.311   7.636 -0.3894 -0.4679  0.2966
  179MOL    H1935975   2.975   3.306   7.440  0.8536 -0.3429 -1.1924
  179MOL    H2035976   3.089   3.168   7.465 -0.5856 -0.2284 -1.7220
  179MOL    H2135977   2.926   3.152   7.418 -0.9521  0.4585  0.8813
  179MOL    C2235978   2.974   3.412   7.748 -0.0734 -0.6373 -0.1184
  179MOL    C2335979   2.850   3.388   0.024  0.1494  0.2276  0.3714
  179MOL    O2435980   2.889   3.372   0.164  0.5658 -0.0666 -0.0837
  179MOL    C2535981   2.800   3.285   0.233 -0.0287  0.2261  0.2150
  179MOL    H2635982   2.949   3.466   7.657 -0.2831  0.1131  0.3880
  179MOL    H2735983   3.045   3.469   7.808 -1.5897  0.3244  0.7838
  179MOL    H2835984   2.798   3.300   7.795 -1.3069  0.5574  1.4863
  179MOL    H2935985   2.697   3.318   0.227  0.5234  2.1154  0.8302
  179MOL    H3035986   2.806   3.181   0.199 -1.1988  0.2969 -0.2339
  179MOL    H3135987   2.828   3.294   0.338  0.1303  1.4405  0.0740
  179MOL    C3235988   2.758   3.510   0.028 -0.0172  0.0923 -0.6419
  179MOL    C3335989   2.682   3.518   7.703  0.1048  0.2193  0.3086
  179MOL    O3435990   2.599   3.403   7.687 -0.1437 -0.1738  0.3631
  179MOL    C3535991   2.601   3.358   7.554  0.3479  0.0188  0.1040
  179MOL    H3635992   2.825   3.596   0.036 -1.7558  1.6265 -1.8869
  179MOL    H3735993   2.684   3.493   0.106  0.8139 -0.0256  0.1300
  179MOL    H3835994   2.753   3.532   7.621 -0.7427 -0.9157 -0.6379
  179MOL    H3935995   2.551   3.261   7.547  1.3683 -0.4169 -1.3124
  179MOL    H4035996   2.557   3.435   7.491 -2.8000 -2.8780 -1.4143
  179MOL    H4135997   2.703   3.360   7.516 -0.1846 -1.2490 -1.4461
  179MOL    C4235998   2.583   3.638   7.704  0.3428  0.1161  0.7019
  179MOL    C4335999   2.640   3.781   7.698 -0.5694  0.5702  0.4184
  179MOL    O4436000   2.744   3.788   7.599  0.0245 -0.4362 -0.5042
  179MOL    C4536001   2.705   3.766   7.458  0.1180 -0.2768 -0.2081
  179MOL    H4636002   2.519   3.646   7.793 -0.1672  1.9924  0.2016
  179MOL    H4736003   2.498   3.628   7.637  1.0671 -2.1254  0.0786
  179MOL    H4836004   2.694   3.807   7.789 -1.5054  1.2791  0.7777
  179MOL    H4936005   2.644   3.679   7.434 -2.3346  1.2539  0.2994
  179MOL    H5036006   2.646   3.850   7.422  1.3939  0.4191 -0.7264
  179MOL    H5136007   2.791   3.770   7.391  1.5668 -1.6489  1.5250
  179MOL    C5236008   2.535   3.895   7.679 -0.1836 -0.3573  0.0548
  179MOL    C5336009   2.487   3.958   7.809  0.3569  0.0220  0.2565
  179MOL    O5436010   2.593   4.018   0.077 -0.0229  0.8333  0.1313
  179MOL    C5536011   2.649   4.138   0.025 -0.1992 -0.2069  0.2580
  179MOL    H5636012   2.448   3.858   7.625 -1.8470 -0.4292  2.7274
  179MOL    H5736013   2.584   3.968   7.614 -1.3619 -0.8698 -1.4533
  179MOL    H5836014   2.448   3.879   0.062  1.8890  0.6408  2.0043
  179MOL    H5936015   2.697   4.179   0.113  0.7348  0.9118 -0.7457
  179MOL    H6036016   2.727   4.123   7.761  0.8170  1.1082  1.0429
  179MOL    H6136017   2.577   4.214   7.803  0.8622  0.5098 -0.4489
  179MOL    C6236018   2.373   4.055   7.780 -0.1103  0.3658 -0.3386
  179MOL    C6336019   2.232   3.990   7.771  0.0481  0.1387  0.3009
  179MOL    O6436020   2.167   4.003   0.090 -0.1416 -0.3725  0.2464
  179MOL    C6536021   2.208   3.914   0.191 -0.2960  0.0158 -0.0590
  179MOL    H6636022   2.392   4.103   7.684 -1.8634  0.3481 -0.7061
  179MOL    H6736023   2.363   4.132   0.046 -3.3063 -0.5357  0.1886
  179MOL    H6836024   2.238   3.885   7.744  2.1090 -0.0353  1.3975
  179MOL    H6936025   2.303   3.939   0.238 -1.3173 -0.5632  2.3564
  179MOL    H7036026   2.145   3.916   0.280 -0.1554  1.1851  0.0179
  179MOL    H7136027   2.214   3.820   0.136  4.6801  0.3099 -0.2418
  179MOL    C7236028   2.143   4.059   7.666  0.0903  0.5189 -0.0727
  179MOL    C7336029   2.013   3.994   7.634  1.0299  0.7535  1.1334
  179MOL    O7436030   1.942   4.102   7.569 -0.3104  0.1316 -0.1211
  179MOL    C7536031   1.801   4.092   7.591  0.2398  0.3194 -0.2639
  179MOL    H7636032   2.187   4.070   7.567 -1.1263 -1.2126 -0.8246
  179MOL    H7736033   2.135   4.163   7.700 -0.8927  0.3727  0.1473
  179MOL    H7836034   1.965   3.967   7.728  1.4453 -1.1975  0.8131
  179MOL    H7936035   1.754   4.171   7.531  1.8240  2.4749  1.2534
  179MOL    H8036036   1.760   3.992   7.577 -0.7286  0.8013 -0.9355
  179MOL    H8136037   1.777   4.130   7.690  0.3053 -0.8517  0.1993
  179MOL    C8236038   2.028   3.872   7.541  0.0537 -0.2232  0.5759
  179MOL    C8336039   2.010   3.736   7.607 -0.7264  0.0792  0.2934
  179MOL    O8436040   1.877   3.729   7.667 -0.9639 -0.1869  0.7777
  179MOL    C8536041   1.869   3.641   7.778 -1.1516 -0.0955  0.0327
  179MOL    H8636042   2.122   3.879   7.487 -0.1193  0.9371  0.4029
  179MOL    H8736043   1.953   3.877   7.462  0.4813 -1.4973  0.0747
  179MOL    H8836044   2.082   3.713   7.686  0.1439  0.5966 -0.3362
  179MOL    H8936045   1.839   3.538   7.757  1.4044 -1.4150  2.4948
  179MOL    H9036046   1.956   3.656   0.032 -1.1408  1.9870 -0.4541
  179MOL    H9136047   1.785   3.685   0.021 -1.6416  1.2918 -1.8078
  179MOL    C9236048   2.013   3.621   7.503  0.0622 -0.0824  0.1105
  179MOL    C9336049   2.144   3.551   7.474 -0.4484 -0.0862  0.1539
  179MOL    O9436050   2.243   3.651   7.461 -0.1040 -0.2180 -0.3256
  179MOL    C9536051   2.324   3.638   7.348 -0.4858 -0.3724 -0.1038
  179MOL    H9636052   1.960   3.634   7.408 -0.5255  0.5550  0.5253
  179MOL    H9736053   1.953   3.539   7.542  0.5291 -0.8328 -0.7233
  179MOL    H9836054   2.137   3.496   7.380  0.7634 -2.1933  1.2563
  179MOL    H9936055   2.381   3.729   7.364  0.4817 -0.7153 -1.5509
  179MOL   H10036056   2.390   3.552   7.340  0.8521  0.5432  0.9264
  179MOL   H10136057   2.272   3.639   7.252  2.8602 -0.0349 -1.9750
  179MOL   C10236058   2.189   3.444   7.582 -0.4536 -0.1070  0.2914
  179MOL   C10336059   2.100   3.317   7.579  0.3730  0.1556 -1.0095
  179MOL   O10436060   2.118   3.261   7.452  0.1851  0.2374 -0.0607
  179MOL   C10536061   2.022   3.180   7.387 -0.3829 -0.3386 -0.3541
  179MOL   H10636062   2.186   3.487   7.682 -0.5000  2.2997 -0.7088
  179MOL   H10736063   2.289   3.408   7.562 -1.0809 -1.0043 -1.3364
  179MOL   H10836064   1.995   3.346   7.587  0.4738  0.6506 -1.4091
  179MOL   H10936065   2.045   3.154   7.284 -2.3112  0.4638 -1.0177
  179MOL   H11036066   1.992   3.091   7.442 -0.6700 -0.7024 -1.0924
  179MOL   H11136067   1.934   3.245   7.379  1.7832  2.7947  0.3521
  179MOL   C11236068   2.131   3.220   7.696  0.4383 -0.1352  0.9757
  179MOL   C11336069   2.064   3.252   0.022 -0.2666  0.0151  0.2871
  179MOL   O11436070   1.929   3.207   0.011 -0.3178  0.4081  0.6434
  179MOL   C11536071   1.839   3.244   0.111  0.0325  0.3036  0.1756
  179MOL   H11636072   2.239   3.230   7.703  0.3899  0.9106  0.2778
  179MOL   H11736073   2.104   3.119   7.664 -1.1000  0.5760 -0.0257
  179MOL   H11836074   2.058   3.359   0.043  0.9931  0.1537 -0.0275
  179MOL   H11936075   1.879   3.192   0.198  0.3752  1.0303  0.4562
  179MOL   H12036076   1.832   3.352   0.113 -0.7756  0.2323  1.8421
  179MOL   H12136077   1.738   3.208   0.092  0.1925 -0.0759  0.0193
  179MOL   C12236078   2.146   3.196   0.139 -0.9146  0.0973  1.4653
  179MOL   C12336079   2.276   3.275   0.160  0.0638  0.6223  0.2845
  179MOL   O12436080   2.243   3.413   0.187 -0.0700  0.1748  0.3363
  179MOL   C12536081   2.334   3.509   0.134 -0.4706 -0.0200 -0.1590
  179MOL   H12636082   2.182   3.101   0.100  0.8020  1.5009 -0.4630
  179MOL   H12736083   2.089   3.182   0.231 -1.1130 -2.8984  0.9271
  179MOL   H12836084   2.348   3.280   0.079  0.7740 -0.0692  0.8657
  179MOL   H12936085   2.340   3.514   0.025  2.4518 -2.2379 -0.1680
  179MOL   H13036086   2.302   3.604   0.178  0.1295 -1.0440  2.6228
  179MOL   H13136087   2.432   3.487   0.177  0.5171  2.9864 -0.7495
  179MOL   C13236088   2.351   3.231   0.282 -0.5024  0.0261  0.0182
  179MOL   C13336089   2.414   3.095   0.270  0.3550 -0.9489  0.4458
  179MOL   O13436090   2.515   3.121   0.176  0.5171 -0.6808 -0.2048
  179MOL   C13536091   2.519   3.032   0.066 -0.4329 -0.1907  0.0353
  179MOL   H13636092   2.284   3.231   0.368 -0.1289  2.9424  0.3680
  179MOL   H13736093   2.430   3.303   0.304  0.4814 -0.8447 -0.6408
  179MOL   H13836094   2.331   3.030   0.242  0.6410 -1.0368 -0.2232
  179MOL   H13936095   2.419   3.008   0.030  0.8351 -1.6351 -2.7587
  179MOL   H14036096   2.574   3.081   7.796 -1.3767  0.3596 -0.2792
  179MOL   H14136097   2.567   2.941   0.103 -0.6301  0.1469  1.1367
  179MOL   C14236098   2.479   3.058   0.409 -1.0173 -0.5280 -0.2468
  179MOL   C14336099   2.542   2.921   0.412  0.2648  0.0858  0.0533
  179MOL   O14436100   2.608   2.897   0.535 -0.3201 -0.2094  0.2541
  179MOL   C14536101   2.737   2.949   0.546  0.1550  0.0741  0.2557
  179MOL   H14636102   2.408   3.058   0.493 -1.1803 -1.9041 -0.3777
  179MOL   H14736103   2.552   3.131   0.442 -2.3293  0.1218  1.3319
  179MOL   H14836104   2.619   2.915   0.335  1.8256 -0.3707  1.6195
  179MOL   H14936105   2.801   2.906   0.469  1.0834  2.4687 -0.3866
  179MOL   H15036106   2.740   3.058   0.543 -1.5552  0.1333  0.4268
  179MOL   H15136107   2.776   2.922   0.644  0.3509  2.0373  0.7403
  179MOL   C15236108   2.454   2.806   0.381 -0.0221  0.8506 -0.2803
  179MOL   C15336109   2.533   2.671   0.357 -0.0153  0.5431  0.3408
  179MOL   O15436110   2.427   2.574   0.367 -0.3721 -0.0238  0.3807
  179MOL   C15536111   2.384   2.529   0.499  0.0305 -0.5770  0.5901
  179MOL   H15636112   2.389   2.832   0.298 -1.3075  0.5203  0.5962
  179MOL   H15736113   2.383   2.805   0.465  0.1960  0.4951 -0.1027
  179MOL   H15836114   2.605   2.636   0.431 -1.6874 -0.9474  1.2835
  179MOL   H15936115   2.354   2.617   0.556  0.0989  0.9467 -1.6541
  179MOL   H16036116   2.287   2.479   0.493 -0.7059  1.0636 -2.3717
  179MOL   H16136117   2.462   2.483   0.559 -1.7483 -1.4294  2.3099
  179MOL   C16236118   2.592   2.664   0.217 -0.9612  0.3168  0.5161
  179MOL   C16336119   2.651   2.525   0.181  0.0451 -0.1226  0.4812
  179MOL   O16436120   2.613   2.484   0.050 -0.6986  0.2021 -0.0844
  179MOL   C16536121   2.605   2.346   0.029 -0.4615  0.1731  0.2601
  179MOL   H16636122   2.661   2.745   0.195  0.3462 -0.4535  1.7245
  179MOL   H16736123   2.510   2.680   0.146 -1.5969 -1.7983  0.7493
  179MOL   H16836124   2.613   2.452   0.251 -0.4381  0.2046  0.5628
  179MOL   H16936125   2.627   2.332   7.733 -0.1743  2.1630  0.0496
  179MOL   H17036126   2.676   2.285   0.085 -1.7737 -0.9079  0.7817
  179MOL   H17136127   2.500   2.316   0.041 -0.4899 -0.3708 -1.2139
  179MOL   C17236128   2.806   2.521   0.201  0.4128 -0.6559  0.9520
  179MOL   C17336129   2.859   2.515   0.346 -0.0471  0.3288  0.5312
  179MOL   O17436130   2.818   2.391   0.405  0.2432  0.1466  0.3088
  179MOL   C17536131   2.791   2.402   0.543 -0.0740 -0.6425 -0.0076
  179MOL   H17636132   2.853   2.600   0.143 -2.5198 -0.3538 -1.1252
  179MOL   H17736133   2.843   2.433   0.148  0.4019  0.4039 -0.8464
  179MOL   H17836134   2.830   2.606   0.397 -1.9459 -0.0649  0.1991
  179MOL   H17936135   2.749   2.499   0.569  3.2225  0.6566  0.6998
  179MOL   H18036136   2.709   2.331   0.552 -0.0746 -0.5740  0.5126
  179MOL   H18136137   2.873   2.392   0.614 -0.6165  2.4832  1.1569
  179MOL   C18236138   3.013   2.507   0.350  0.0373 -0.2968 -0.0137
  179MOL   C18336139   3.076   2.651   0.346 -0.5252  1.0713 -0.1417
  179MOL   O18436140   3.032   2.738   0.456  0.3217 -0.1311 -0.1202
  179MOL   C18536141   3.049   2.689   0.586  0.2811  0.6319  0.0666
  179MOL   H18636142   3.056   2.463   0.260  1.8345  3.5771 -1.1587
  179MOL   H18736143   3.050   2.453   0.437  1.5048  0.4159 -0.1845
  179MOL   H18836144   3.040   2.693   0.252  2.2226 -0.2599 -1.8560
  179MOL   H18936145   2.975   2.616   0.619  1.4765 -0.6363  0.0010
  179MOL   H19036146   3.152   2.658   0.604  0.5593  1.4589 -0.0864
  179MOL   H19136147   3.049   2.774   0.655  0.3732 -0.9043  2.0108
  179MOL   C19236148   3.230   2.649   0.334  0.1779 -0.1960 -0.8465
  179MOL   C19336149   3.279   2.779   0.274 -0.1494 -0.7452  0.0713
  179MOL   O19436150   3.422   2.776   0.285  0.7075 -0.2665  0.2185
  179MOL   C19536151   3.484   2.872   0.209  0.0109 -0.6869  0.6549
  179MOL   H19636152   3.271   2.561   0.285  0.1661 -0.8696  0.3379
  179MOL   H19736153   3.284   2.640   0.429  3.4268  2.2303 -2.3497
  179MOL   H19836154   3.231   2.868   0.316 -1.1478 -1.8436  1.2961
  179MOL   H19936155   3.491   2.965   0.266 -1.3955  0.6064 -1.1847
  179MOL   H20036156   3.588   2.846   0.194  0.5053  1.4505  0.2124
  179MOL   H20136157   3.429   2.890   0.117  0.4571  1.6316  0.8045
  179MOL   H20236158   3.258   2.779   0.167  0.6568  1.2660 -0.1207
  180MOL     C136159   0.623   7.045   1.521 -0.1110 -0.6597  0.1709
  180MOL     C236160   0.490   7.097   1.461 -0.6773 -0.0268 -0.1453
  180MOL     O336161   0.475   7.215   1.536 -0.2192 -0.4517  0.0978
  180MOL     C436162   0.421   7.191   1.668 -0.0481  0.1570 -0.0030
  180MOL     H536163   0.672   6.965   1.464 -1.5787  0.7148 -3.1610
  180MOL     H636164   0.699   7.123   1.530 -0.9683 -0.0311  2.1984
  180MOL     H736165   0.408   7.028   1.483  0.7731 -1.7637 -0.0455
  180MOL     H836166   0.372   7.280   1.708  1.4751  0.3123  1.5414
  180MOL     H936167   0.348   7.110   1.660  1.6691 -1.4005 -0.0280
  180MOL    H1036168   0.504   7.168   1.734 -1.0940  1.4534  1.7983
  180MOL    H1136169   0.602   7.005   1.620 -1.2634  1.0793  0.6483
  180MOL    C1236170   0.491   7.126   1.308  0.0782 -0.1856  0.1937
  180MOL    C1336171   0.367   7.203   1.255 -0.1116 -0.2690 -0.5652
  180MOL    O1436172   0.346   7.328   1.326 -0.1870  0.3012 -0.8274
  180MOL    C1536173   0.229   7.362   1.387 -0.5150 -0.0404  0.3826
  180MOL    H1636174   0.496   7.030   1.257 -3.1504  1.1908 -2.9133
  180MOL    H1736175   0.582   7.185   1.297  2.1908 -3.4141 -0.4311
  180MOL    H1836176   0.283   7.133   1.257  0.0050 -0.4395 -1.3007
  180MOL    H1936177   0.200   7.301   1.473 -0.3892  1.7529  1.7314
  180MOL    H2036178   0.237   7.456   1.443 -1.9112 -0.0070  0.5436
  180MOL    H2136179   0.151   7.371   1.312 -0.1078  0.4036  0.0100
  180MOL    C2236180   0.393   7.247   1.104 -0.0044 -0.2062  0.4894
  180MOL    C2336181   0.264   7.244   1.019 -0.4590 -0.0755 -0.3382
  180MOL    O2436182   0.289   7.319   0.905  0.1251  0.5408  0.3329
  180MOL    C2536183   0.235   7.452   0.890  0.2368 -0.0979 -0.3177
  180MOL    H2636184   0.471   7.183   1.063  0.0646 -0.3038  0.7757
  180MOL    H2736185   0.427   7.351   1.100 -2.2830  0.5618  0.2215
  180MOL    H2836186   0.179   7.289   1.070  0.6980  1.6613  0.1156
  180MOL    H2936187   0.213   7.495   0.988  1.4889  2.0140 -0.9407
  180MOL    H3036188   0.318   7.509   0.850  0.4132 -0.9282 -1.1434
  180MOL    H3136189   0.146   7.446   0.828 -0.3196  1.1918  0.3390
  180MOL    C3236190   0.233   7.095   0.981 -0.2693 -0.3261 -0.0408
  180MOL    C3336191   0.094   7.068   0.933 -0.5726 -0.2320 -0.1827
  180MOL    O3436192   0.087   6.935   0.872  0.2146 -0.1029 -0.6749
  180MOL    C3536193   0.111   6.938   0.724 -0.2163  0.0370 -0.7307
  180MOL    H3636194   0.247   7.033   1.070  0.8584 -0.0253  0.0047
  180MOL    H3736195   0.303   7.048   0.910 -0.3983  0.8576 -0.9566
  180MOL    H3836196   0.076   7.148   0.861 -0.6417 -2.8930 -3.2609
  180MOL    H3936197   0.098   6.837   0.686  0.1599  1.0045 -3.5089
  180MOL    H4036198   0.053   7.014   0.673  1.7377  1.7018 -0.5636
  180MOL    H4136199   0.206   6.985   0.696 -0.8005  1.3518 -0.5601
  180MOL    C4236200   7.808   7.079   1.050  0.4712 -0.3194 -0.3777
  180MOL    C4336201   7.662   7.126   1.010 -0.4319 -0.0576 -0.3609
  180MOL    O4436202   7.599   7.137   1.135 -0.2971 -0.0466 -0.2628
  180MOL    C4536203   7.555   7.013   1.192 -0.5873 -0.3886  0.3614
  180MOL    H4636204   0.028   7.144   1.132  0.5996 -0.5283 -0.2610
  180MOL    H4736205   7.803   6.977   1.087  0.2884 -1.0705 -2.4153
  180MOL    H4836206   7.623   7.044   0.951  0.0471 -1.2220  0.9256
  180MOL    H4936207   7.543   6.924   1.130  1.5394 -0.4898  0.0496
  180MOL    H5036208   7.603   6.974   1.282  0.0236 -1.2624 -0.3334
  180MOL    H5136209   7.454   7.038   1.226  0.0580  0.8509  1.3878
  180MOL    C5236210   7.647   7.257   0.921  0.2597 -0.4151 -0.3677
  180MOL    C5336211   7.503   7.311   0.917  0.2844 -0.1722 -0.0452
  180MOL    O5436212   7.502   7.436   0.853 -0.0191 -0.1710  0.3910
  180MOL    C5536213   7.537   7.550   0.929  0.2028 -0.8385 -0.5823
  180MOL    H5636214   7.688   7.239   0.822 -1.3199 -0.0835 -1.1042
  180MOL    H5736215   7.703   7.332   0.978 -2.0381  1.2318 -0.1948
  180MOL    H5836216   7.470   7.322   1.021  0.1580  3.8049 -0.4419
  180MOL    H5936217   7.483   7.565   1.022  2.8521  0.6032  0.7702
  180MOL    H6036218   7.642   7.543   0.956  0.4760  1.4843 -0.9449
  180MOL    H6136219   7.553   7.637   0.864 -0.6558 -1.7852 -2.0964
  180MOL    C6236220   7.412   7.225   0.823 -0.5757 -0.5647  0.7487
  180MOL    C6336221   7.328   7.111   0.879  0.1871  0.5949  0.0611
  180MOL    O6436222   7.233   7.145   0.982 -0.1058 -0.0727 -0.0708
  180MOL    C6536223   7.142   7.247   0.945  0.4458  0.0870 -0.3529
  180MOL    H6636224   7.471   7.187   0.739 -1.4669  0.0762 -0.1931
  180MOL    H6736225   7.355   7.295   0.761 -0.1655 -4.0777 -3.9330
  180MOL    H6836226   7.396   7.042   0.928 -1.0074 -0.5418  0.1679
  180MOL    H6936227   7.085   7.277   1.033  0.0540  0.5495 -0.7565
  180MOL    H7036228   7.191   7.338   0.909  0.7418 -0.2402 -0.7830
  180MOL    H7136229   7.066   7.238   0.867 -1.1440  3.5578  0.7028
  180MOL    C7236230   7.259   7.014   0.773 -0.3568 -0.2411  0.0621
  180MOL    C7336231   7.174   6.900   0.830  0.0869  0.5216 -0.0752
  180MOL    O7436232   7.108   6.831   0.724 -0.5861  0.0932 -0.0986
  180MOL    C7536233   7.003   6.906   0.666 -0.2074  0.7544 -0.0385
  180MOL    H7636234   7.342   6.976   0.713 -1.6662 -0.0407 -1.9080
  180MOL    H7736235   7.200   7.072   0.702  0.8020 -1.4681 -1.9558
  180MOL    H7836236   7.096   6.929   0.900 -0.2974  0.4964 -0.4876
  180MOL    H7936237   6.914   6.851   0.634  1.1359 -0.1084 -2.4618
  180MOL    H8036238   6.971   6.983   0.736  0.3190 -0.8477  2.0154
  180MOL    H8136239   7.033   6.974   0.586  0.3138 -0.3345 -0.7842
  180MOL    C8236240   7.262   6.790   0.902 -0.8025  0.4719  0.3540
  180MOL    C8336241   7.174   6.674   0.949  0.5092 -0.3733 -0.7126
  180MOL    O8436242   7.273   6.582   1.001  0.3876  0.4215  0.1031
  180MOL    C8536243   7.230   6.453   0.977  0.7037  0.6961  0.3824
  180MOL    H8636244   7.322   6.841   0.976  0.7503 -0.9512  0.1079
  180MOL    H8736245   7.340   6.752   0.837 -0.1361 -0.7624  1.8413
  180MOL    H8836246   7.128   6.635   0.859 -0.5392 -1.4100  0.2528
  180MOL    H8936247   7.203   6.435   0.873  0.7349 -1.7549  0.7572
  180MOL    H9036248   7.310   6.387   1.011 -0.7888 -1.7655 -0.7213
  180MOL    H9136249   7.138   6.421   1.025  1.3401  0.4675  1.4608
  180MOL    C9236250   7.063   6.711   1.049  0.3791 -0.2304 -0.0402
  180MOL    C9336251   7.111   6.772   1.183 -0.2126 -1.2728  0.0610
  180MOL    O9436252   7.012   6.858   1.242 -0.1924  0.6894  0.0030
  180MOL    C9536253   6.992   6.975   1.170  0.4173  0.1174 -0.3367
  180MOL    H9636254   7.006   6.619   1.064 -0.6720  0.2400 -1.1838
  180MOL    H9736255   6.997   6.776   0.993 -1.0980 -1.0496  0.7117
  180MOL    H9836256   7.208   6.821   1.192 -0.0998 -1.2815 -1.0261
  180MOL    H9936257   6.953   7.048   1.241 -0.5716 -0.4264 -0.3106
  180MOL   H10036258   7.091   7.013   1.141  0.6251 -1.4593 -1.7547
  180MOL   H10136259   6.928   6.971   1.083  2.4609  1.8003 -1.9757
  180MOL   C10236260   7.124   6.653   1.282 -0.3146 -0.0025 -0.3376
  180MOL   C10336261   7.212   6.690   1.407 -0.2639 -0.0759 -0.3824
  180MOL   O10436262   7.178   6.607   1.518 -0.5935 -0.0926 -0.6088
  180MOL   C10536263   7.231   6.477   1.518 -0.5617 -0.1917  0.1531
  180MOL   H10636264   7.145   6.556   1.237 -0.1813 -0.2055  0.1596
  180MOL   H10736265   7.028   6.624   1.326 -0.0395 -3.4162 -1.7882
  180MOL   H10836266   7.163   6.782   1.440 -1.6726 -0.6081 -0.9445
  180MOL   H10936267   7.338   6.475   1.540  0.2298 -2.1868 -3.5001
  180MOL   H11036268   7.188   6.422   1.602 -0.0086 -2.2275 -0.8590
  180MOL   H11136269   7.213   6.421   1.426  0.7099 -1.6369  0.7527
  180MOL   C11236270   7.368   6.709   1.379  0.0605 -0.8673 -0.0001
  180MOL   C11336271   7.429   6.783   1.495  0.1246  0.6704 -0.2721
  180MOL   O11436272   7.567   6.788   1.471 -0.2356 -0.3688 -0.0740
  180MOL   C11536273   7.645   6.689   1.525 -0.2023  0.2047 -0.7627
  180MOL   H11636274   7.389   6.762   1.286 -1.2273  0.2726  0.3473
  180MOL   H11736275   7.421   6.613   1.378  1.5146 -0.0715 -1.1588
  180MOL   H11836276   7.411   6.733   1.590 -0.5024 -1.4498 -1.4800
  180MOL   H11936277   7.655   6.716   1.630 -0.4366 -0.5441 -0.5464
  180MOL   H12036278   7.620   6.586   1.500  0.2777 -0.4019  1.1743
  180MOL   H12136279   7.747   6.704   1.487  0.7076  1.5678  2.0795
  180MOL   C12236280   7.399   6.933   1.498 -0.1863  0.5145 -0.1751
  180MOL   C12336281   7.310   6.991   1.609  0.1676  0.2867  0.3200
  180MOL   O12436282   7.399   7.035   1.717  0.2927 -0.3280 -0.2576
  180MOL   C12536283   7.502   6.954   1.759 -0.9268 -0.0916  0.4503
  180MOL   H12636284   7.349   6.946   1.402 -1.3412  0.2650  0.3858
  180MOL   H12736285   7.494   6.987   1.497  0.1922 -0.1720 -1.0114
  180MOL   H12836286   7.251   6.910   1.652  0.8579 -0.6659 -0.5135
  180MOL   H12936287   7.539   7.003   1.849 -2.3550  1.4628  0.2019
  180MOL   H13036288   7.452   6.861   1.788  0.8298 -1.0454  0.4912
  180MOL   H13136289   7.587   6.947   1.690 -0.6522 -0.6530  0.8466
  180MOL   C13236290   7.235   7.113   1.553 -0.1687 -0.3203 -0.2143
  180MOL   C13336291   7.135   7.179   1.651  0.0970 -0.3068  0.2067
  180MOL   O13436292   7.175   7.311   1.677 -0.0003 -0.2379  0.2732
  180MOL   C13536293   7.254   7.313   1.795 -0.2079  0.4925  0.4385
  180MOL   H13636294   7.174   7.075   1.471  0.3106  0.7948 -1.1032
  180MOL   H13736295   7.309   7.185   1.518 -0.5826 -0.3939 -1.2595
  180MOL   H13836296   7.131   7.112   1.737 -2.2277  0.0912  0.4410
  180MOL   H13936297   7.350   7.262   1.787 -0.5916  0.0773 -1.7819
  180MOL   H14036298   7.285   7.417   1.802 -3.4488  1.6007 -0.5437
  180MOL   H14136299   7.196   7.281   1.882 -0.4380  1.6124  0.7039
  180MOL   C14236300   6.989   7.195   1.595 -0.1444  0.3194 -0.6756
  180MOL   C14336301   6.883   7.239   1.698 -0.3678  0.5809 -0.9130
  180MOL   O14436302   6.776   7.311   1.647 -0.0762 -0.3907 -0.1349
  180MOL   C14536303   6.691   7.258   1.544 -0.2561  0.6215 -0.3367
  180MOL   H14636304   6.968   7.101   1.546  2.9992 -0.1502 -1.2468
  180MOL   H14736305   6.992   7.257   1.505 -1.1912 -0.6291 -1.3736
  180MOL   H14836306   6.934   7.302   1.771  1.0413  0.4848 -1.7832
  180MOL   H14936307   6.735   7.256   1.444  1.1020 -0.1089  0.2621
  180MOL   H15036308   6.656   7.157   1.564  0.6607  0.0927 -1.2838
  180MOL   H15136309   6.605   7.322   1.528  0.3688  1.8895  1.1999
  180MOL   C15236310   6.830   7.122   1.782 -0.5341  0.1623 -0.5260
  180MOL   C15336311   6.736   7.172   1.897  0.0863  0.0863  0.3190
  180MOL   O15436312   6.618   7.199   1.833  0.2452 -0.7549  0.2414
  180MOL   C15536313   6.548   7.325   1.880 -0.2906 -0.3898  0.3224
  180MOL   H15636314   6.914   7.074   1.834  0.4930  2.7390  0.2656
  180MOL   H15736315   6.778   7.049   1.720 -1.3822  1.0832 -0.9023
  180MOL   H15836316   6.790   7.257   1.938 -1.1239  1.2020 -0.4008
  180MOL   H15936317   6.492   7.366   1.796 -0.4473  0.9036  1.0459
  180MOL   H16036318   6.498   7.306   1.975 -1.0445 -0.4756 -0.0924
  180MOL   H16136319   6.625   7.400   1.900  0.1585 -0.5496 -0.7349
  180MOL   C16236320   6.710   7.072   2.006 -0.2262  0.0136  0.5530
  180MOL   C16336321   6.814   7.082   2.119 -0.1494  0.3823  0.2706
  180MOL   O16436322   6.790   7.201   2.184  0.0594 -0.8304 -0.6176
  180MOL   C16536323   6.896   7.247   2.269 -0.3682 -0.3443  0.9021
  180MOL   H16636324   6.717   6.974   1.959  2.5516  1.2580 -1.7710
  180MOL   H16736325   6.611   7.073   2.051 -0.9302  0.2559 -0.9956
  180MOL   H16836326   6.917   7.092   2.084  1.1012 -0.1757  3.5613
  180MOL   H16936327   6.909   7.209   2.370 -1.2510 -1.5581  0.5762
  180MOL   H17036328   6.989   7.241   2.212 -1.1517  1.1928 -0.5850
  180MOL   H17136329   6.880   7.353   2.289  1.3409  0.2475 -0.7514
  180MOL   C17236330   6.819   6.960   2.221 -0.3628 -0.7250  0.2251
  180MOL   C17336331   6.682   6.891   2.259 -0.3096  0.0169  0.3317
  180MOL   O17436332   6.705   6.768   2.321 -0.1222 -0.3445 -0.2953
  180MOL   C17536333   6.590   6.687   2.344 -0.3118 -0.1651  0.2484
  180MOL   H17636334   6.879   6.980   2.309  3.3733 -0.5024 -2.2528
  180MOL   H17736335   6.872   6.880   2.169  0.6715 -1.5352  2.4471
  180MOL   H17836336   6.642   6.872   2.159  1.5657  0.0986 -0.4776
  180MOL   H17936337   6.526   6.711   2.429  0.0644  2.5781 -0.2027
  180MOL   H18036338   6.537   6.675   2.249 -1.0738  0.1151  0.6331
  180MOL   H18136339   6.615   6.584   2.368  0.7551  0.0545  0.0880
  180MOL   C18236340   6.578   6.985   2.326  0.3537  0.3765 -0.1954
  180MOL   C18336341   6.437   6.987   2.262  1.0488  0.2798 -0.0134
  180MOL   O18436342   6.340   6.916   2.334 -0.9973 -0.0608  0.0790
  180MOL   C18536343   6.240   6.861   2.254 -0.0968  0.3276  0.8009
  180MOL   H18636344   6.612   7.088   2.308 -1.8578  1.5937  2.2553
  180MOL   H18736345   6.562   6.970   2.433 -1.3281  0.8254 -0.3815
  180MOL   H18836346   6.450   6.942   2.163  0.7376 -0.3532  0.2344
  180MOL   H18936347   6.270   6.776   2.192  0.4556  1.5118 -0.5905
  180MOL   H19036348   6.154   6.828   2.312  0.2396 -0.5574  0.8124
  180MOL   H19136349   6.192   6.941   2.197 -1.9669 -0.3976  1.3547
  180MOL   C19236350   6.381   7.134   2.266 -0.1899 -0.4125  0.7587
  180MOL   C19336351   6.366   7.199   2.405 -0.2613 -0.6875  1.0193
  180MOL   O19436352   6.283   7.316   2.387  0.2053 -0.2038 -0.0651
  180MOL   C19536353   6.222   7.368   2.501 -1.0027 -0.4735  0.1948
  180MOL   H19636354   6.286   7.141   2.213  0.1205 -0.6127  0.1626
  180MOL   H19736355   6.449   7.201   2.214 -0.0159  0.9657  2.7014
  180MOL   H19836356   6.460   7.232   2.451 -0.9171 -0.9535  2.5943
  180MOL   H19936357   6.115   7.354   2.513 -1.3632  1.5381 -0.4007
  180MOL   H20036358   6.270   7.331   2.591 -0.7375  2.5843  1.3745
  180MOL   H20136359   6.237   7.476   2.508  0.6601 -0.4783 -2.3102
  180MOL   H20236360   6.315   7.131   2.473  1.7486 -2.3183  0.9567
  181MOL     C136361   0.884   3.805   0.436  0.3612 -0.2592  0.2594
  181MOL     C236362   0.849   3.954   0.419  0.7454  0.5343  0.1187
  181MOL     O336363   0.968   4.009   0.369  0.0831 -0.4091  0.3280
  181MOL     C436364   0.987   4.139   0.426 -0.6331  0.0175 -0.1864
  181MOL     H536365   0.971   3.782   0.498 -0.5736  0.5269  1.8896
  181MOL     H636366   0.795   3.750   0.464 -0.6929  1.3111  0.0757
  181MOL     H736367   0.819   3.996   0.515 -0.6323  0.3980 -0.2458
  181MOL     H836368   0.913   4.213   0.395  0.2983  0.8581 -0.4130
  181MOL     H936369   0.978   4.139   0.535  1.1643 -0.5575 -0.0284
  181MOL    H1036370   1.082   4.187   0.403 -2.1711  1.7555 -3.2752
  181MOL    H1136371   0.909   3.761   0.339 -0.2589 -1.5253  0.6613
  181MOL    C1236372   0.743   3.982   0.313  0.2559  0.2505  1.1136
  181MOL    C1336373   0.606   3.909   0.329  0.9800 -0.4519  0.3553
  181MOL    O1436374   0.491   3.985   0.297  0.1576 -0.4901 -0.3256
  181MOL    C1536375   0.462   4.088   0.397 -0.4377  0.1430  0.1597
  181MOL    H1636376   0.781   3.971   0.212 -0.7530 -1.9278  0.9503
  181MOL    H1736377   0.731   4.091   0.317  0.5508  0.3611 -0.7795
  181MOL    H1836378   0.603   3.876   0.433 -0.7427 -0.1923  0.4114
  181MOL    H1936379   0.524   4.174   0.371 -0.4048 -0.5396 -2.1884
  181MOL    H2036380   0.361   4.122   0.376  0.5185  2.4121 -0.9431
  181MOL    H2136381   0.484   4.059   0.499 -1.1102 -0.5531  0.1119
  181MOL    C2236382   0.604   3.793   0.231 -0.4824  0.3647  0.6322
  181MOL    C2336383   0.478   3.702   0.230  0.1120 -0.4976 -0.6960
  181MOL    O2436384   0.420   3.686   0.106  0.7748  0.3065 -0.1812
  181MOL    C2536385   0.356   3.806   0.063 -1.7857 -0.5478  0.1757
  181MOL    H2636386   0.692   3.735   0.259 -0.9090 -0.8673 -0.5601
  181MOL    H2736387   0.639   3.816   0.131 -2.9711  1.4528 -0.0331
  181MOL    H2836388   0.400   3.752   0.288 -1.3864 -2.3662 -1.0699
  181MOL    H2936389   0.430   3.885   0.073 -1.6321 -0.7929  1.0136
  181MOL    H3036390   0.351   3.793   7.765 -1.9073 -0.5747  0.1841
  181MOL    H3136391   0.255   3.814   0.104 -1.6337 -0.3838  0.5123
  181MOL    C3236392   0.501   3.568   0.290  0.2739  0.9037  0.1953
  181MOL    C3336393   0.382   3.467   0.291 -0.2207 -0.5322 -0.8993
  181MOL    O3436394   0.422   3.353   0.372  0.9838 -0.1646 -0.2993
  181MOL    C3536395   0.337   3.241   0.357 -0.1519  0.4139 -0.4090
  181MOL    H3636396   0.546   3.577   0.389  0.0185 -0.2285  0.4255
  181MOL    H3736397   0.582   3.516   0.238 -1.4596 -0.9798 -0.7162
  181MOL    H3836398   0.378   3.437   0.186 -0.7841 -2.0313 -0.4640
  181MOL    H3936399   0.255   3.242   0.429  0.9524  0.7632  0.8534
  181MOL    H4036400   0.295   3.238   0.256 -0.1363  0.2199 -0.4104
  181MOL    H4136401   0.393   3.150   0.380  0.0037  0.6111  0.0052
  181MOL    C4236402   0.242   3.520   0.334  1.0548  0.0181  0.2128
  181MOL    C4336403   0.235   3.566   0.482  0.5840 -0.2176  0.1709
  181MOL    O4436404   0.323   3.679   0.506  0.4538 -0.2793  0.2192
  181MOL    C4536405   0.401   3.658   0.621 -0.5366  0.0712 -0.1489
  181MOL    H4636406   0.155   3.458   0.314  0.9850  0.1024  0.2542
  181MOL    H4736407   0.220   3.605   0.271 -1.3677 -1.1313 -0.5415
  181MOL    H4836408   0.261   3.476   0.538  0.5699 -0.9409 -0.9785
  181MOL    H4936409   0.328   3.660   0.702 -1.3519  0.9662 -0.8819
  181MOL    H5036410   0.462   3.568   0.622 -1.4801 -0.5700  0.6807
  181MOL    H5136411   0.464   3.747   0.625 -0.3265 -0.0899  0.0896
  181MOL    C5236412   0.094   3.616   0.525  0.3371 -0.0813 -0.3128
  181MOL    C5336413   7.800   3.507   0.530  0.7298 -0.2687 -0.2445
  181MOL    O5436414   0.032   3.416   0.634 -0.3715 -0.3270 -0.6959
  181MOL    C5536415   7.796   3.274   0.612  0.6097 -0.0496 -0.1461
  181MOL    H5636416   0.061   3.688   0.450 -0.6175 -1.5236 -1.2979
  181MOL    H5736417   0.104   3.673   0.618  2.5397  0.8574 -1.0808
  181MOL    H5836418   7.788   3.449   0.438 -0.5794 -0.3826 -0.0101
  181MOL    H5936419   7.688   3.270   0.596  0.7857 -1.8702 -1.0621
  181MOL    H6036420   0.030   3.225   0.526  0.5375  0.8955 -0.7295
  181MOL    H6136421   0.007   3.206   0.694  0.3453  0.2406  0.1626
  181MOL    C6236422   7.676   3.574   0.587 -0.3969 -0.6998 -0.2684
  181MOL    C6336423   7.604   3.685   0.492  0.0313 -0.3202 -0.5884
  181MOL    O6436424   7.464   3.665   0.528 -0.1637 -0.1046 -0.6678
  181MOL    C6536425   7.385   3.630   0.417 -0.2654 -0.0357 -0.6510
  181MOL    H6636426   7.703   3.615   0.684 -3.2744 -0.9494  0.6702
  181MOL    H6736427   7.608   3.489   0.599 -1.3091 -0.1270 -1.2764
  181MOL    H6836428   7.632   3.657   0.390  0.7082 -0.4876 -0.3578
  181MOL    H6936429   7.391   3.710   0.343  2.0805 -0.2043 -0.6779
  181MOL    H7036430   7.413   3.541   0.361  0.2454  0.1002 -0.6212
  181MOL    H7136431   7.280   3.625   0.447  0.1357  1.0839  1.0560
  181MOL    C7236432   7.645   3.829   0.530  0.1023 -0.1850 -0.5512
  181MOL    C7336433   7.629   3.930   0.412  0.0772 -0.4572 -0.0326
  181MOL    O7436434   7.583   4.053   0.469  0.5304  0.3467 -0.3910
  181MOL    C7536435   7.442   4.052   0.455  0.1651 -0.7797 -0.5211
  181MOL    H7636436   7.744   3.827   0.576 -0.1658 -0.6283  0.0164
  181MOL    H7736437   7.583   3.864   0.612  2.1552 -2.0412  1.9081
  181MOL    H7836438   7.565   3.883   0.337  0.7246 -1.6834  0.1663
  181MOL    H7936439   7.405   3.988   0.535  3.1562  0.2229  1.7460
  181MOL    H8036440   7.398   4.143   0.497  0.6057 -0.2724 -1.1297
  181MOL    H8136441   7.405   4.048   0.352  0.3471  1.1706 -0.6877
  181MOL    C8236442   7.767   3.960   0.342 -0.3557  0.0008  0.1026
  181MOL    C8336443   7.752   4.077   0.233  0.5636  0.3934  0.2650
  181MOL    O8436444   0.069   4.100   0.173 -0.3697 -0.3265 -0.0231
  181MOL    C8536445   0.106   4.240   0.155  0.0258  0.5410  0.8465
  181MOL    H8636446   7.795   3.873   0.282 -1.2438 -0.0652 -0.2388
  181MOL    H8736447   0.036   3.965   0.416  0.0328 -0.8879 -0.2518
  181MOL    H8836448   7.725   4.173   0.277 -1.5246 -0.6464  1.3242
  181MOL    H8936449   0.037   4.293   0.090  1.5349 -0.3798 -1.5396
  181MOL    H9036450   0.110   4.295   0.250  2.1676  1.0000  0.5294
  181MOL    H9136451   0.205   4.255   0.111 -0.6738  3.5407  0.2371
  181MOL    C9236452   7.647   4.045   0.122  0.3797 -0.5282  0.6569
  181MOL    C9336453   7.677   3.912   0.050 -0.4591  0.5299  0.0588
  181MOL    O9436454   7.589   3.824   0.118 -0.4993 -0.4621 -0.1690
  181MOL    C9536455   7.626   3.687   0.109  0.5067  0.8528 -0.2191
  181MOL    H9636456   7.633   4.127   0.051  0.4717 -0.7237  0.4152
  181MOL    H9736457   7.545   4.043   0.161  1.0060  0.4474  2.4166
  181MOL    H9836458   7.782   3.887   0.060 -0.5829  0.6903  2.0163
  181MOL    H9936459   7.685   3.644   0.191  0.7498  0.3532 -0.6557
  181MOL   H10036460   7.536   3.625   0.105  0.2127  1.1457  1.4934
  181MOL   H10136461   7.691   3.674   0.023 -0.4224 -0.9190 -0.6614
  181MOL   C10236462   7.649   3.912   7.707  0.4762  0.6748 -0.0902
  181MOL   C10336463   7.770   3.935   7.614  0.5068 -0.0175 -0.6377
  181MOL   O10436464   7.751   3.895   7.480  0.2388 -0.3929 -0.0333
  181MOL   C10536465   0.002   3.770   7.450  0.4656  0.0923 -0.0260
  181MOL   H10636466   7.568   3.982   7.686 -0.9258 -1.0785 -0.5569
  181MOL   H10736467   7.620   3.810   7.683 -0.3574  1.0927 -0.8771
  181MOL   H10836468   0.043   3.878   7.657  0.2255  0.8228  1.0701
  181MOL   H10936469   0.005   3.765   7.341 -0.2001  0.2297 -0.0490
  181MOL   H11036470   0.107   3.758   7.476  1.0767  0.3133 -2.2668
  181MOL   H11136471   7.749   3.692   7.491  0.8324 -0.8897 -1.2942
  181MOL   C11236472   7.809   4.081   7.607 -0.2533  0.5146  0.2967
  181MOL   C11336473   0.136   4.117   7.537 -0.3020 -0.1899 -0.1825
  181MOL   O11436474   0.142   4.260   7.514  0.6183 -0.0519 -0.0285
  181MOL   C11536475   0.118   4.296   7.378  0.1188 -0.6921 -0.0101
  181MOL   H11636476   0.004   4.118   7.709 -0.8053  2.3179 -0.3051
  181MOL   H11736477   7.727   4.136   7.560 -1.2438  0.0063  1.4230
  181MOL   H11836478   0.133   4.072   7.438 -1.2302 -0.4477 -0.0442
  181MOL   H11936479   0.185   4.251   7.305  0.4906 -0.5252  0.2312
  181MOL   H12036480   0.014   4.279   7.350 -0.3759  1.7738  0.1851
  181MOL   H12136481   0.150   4.399   7.360  0.2330 -0.8833 -0.9368
  181MOL   C12236482   0.264   4.060   7.611 -0.5628 -0.3769  0.1420
  181MOL   C12336483   0.406   4.083   7.552  0.1465  0.2807  0.0577
  181MOL   O12436484   0.496   4.012   7.638  0.1311 -0.1109 -0.4009
  181MOL   C12536485   0.538   4.089   7.751 -0.5325 -0.7232  0.2775
  181MOL   H12636486   0.254   3.956   7.641  1.4028 -0.2540  1.3250
  181MOL   H12736487   0.269   4.128   7.696 -1.0196  2.1977 -1.8396
  181MOL   H12836488   0.415   4.191   7.547 -0.2049  0.3817  1.4395
  181MOL   H12936489   0.609   4.164   7.716 -1.8399  0.7893  0.8166
  181MOL   H13036490   0.463   4.137   0.002  0.0785  0.1814  0.3227
  181MOL   H13136491   0.595   4.030   0.013 -1.4247 -0.3171  1.3144
  181MOL   C13236492   0.409   4.034   7.411  0.2607  0.6214  0.7305
  181MOL   C13336493   0.552   4.050   7.342  0.0727 -1.0556 -0.7124
  181MOL   O13436494   0.538   3.972   7.222  0.3695  0.2668 -0.8160
  181MOL   C13536495   0.620   3.861   7.218  0.3188  1.4190  0.0844
  181MOL   H13636496   0.338   4.096   7.357 -0.9301 -0.7681  0.6607
  181MOL   H13736497   0.360   3.936   7.407  0.8656  0.2786  1.5460
  181MOL   H13836498   0.628   4.005   7.406  2.0216  0.2844 -1.9902
  181MOL   H13936499   0.724   3.888   7.238  1.4007 -1.5818 -1.0741
  181MOL   H14036500   0.588   3.794   7.298 -0.7049  0.0587 -1.4444
  181MOL   H14136501   0.611   3.808   7.123  1.1026  2.8256 -0.7858
  181MOL   C14236502   0.593   4.202   7.324  0.0459  0.2803  0.3154
  181MOL   C14336503   0.686   4.263   7.429  0.6086 -0.0142 -0.0053
  181MOL   O14436504   0.798   4.185   7.403  0.0586 -0.0578 -0.0499
  181MOL   C14536505   0.878   4.152   7.518  0.1179  0.2530  0.1275
  181MOL   H14636506   0.510   4.270   7.309  0.6650  1.6516  2.7555
  181MOL   H14736507   0.645   4.212   7.229 -0.1515  2.8307  0.4530
  181MOL   H14836508   0.645   4.239   7.528  0.3121  2.5880  0.5481
  181MOL   H14936509   0.920   4.055   7.494 -0.3249  0.9142 -3.6946
  181MOL   H15036510   0.957   4.226   7.530  0.3072  0.4430 -2.0029
  181MOL   H15136511   0.815   4.144   7.606 -1.4053 -2.2392 -1.1376
  181MOL   C15236512   0.715   4.415   7.405 -0.1082  0.1262 -0.4029
  181MOL   C15336513   0.596   4.503   7.470 -0.1303 -0.3421 -0.0234
  181MOL   O15436514   0.559   4.460   7.604  0.3715  0.1683  0.5459
  181MOL   C15536515   0.433   4.499   7.653 -0.4555  0.5028  0.4539
  181MOL   H15636516   0.733   4.438   7.300  0.1047  0.5348 -0.2795
  181MOL   H15736517   0.806   4.444   7.459 -0.6564  0.3456  0.4039
  181MOL   H15836518   0.505   4.489   7.412  1.1196 -0.5999 -2.0079
  181MOL   H15936519   0.358   4.474   7.578 -0.0483 -0.3247  0.3179
  181MOL   H16036520   0.403   4.433   7.734  0.8936  0.5546  1.0034
  181MOL   H16136521   0.414   4.603   7.679  1.0813  0.7936  0.4568
  181MOL   C16236522   0.625   4.661   7.473  0.5683  0.0982 -0.4608
  181MOL   C16336523   0.724   4.711   7.582 -0.1743 -0.0295 -0.5509
  181MOL   O16436524   0.849   4.677   7.523 -0.0417  0.2671  0.1787
  181MOL   C16536525   0.955   4.659   7.615  0.5407  0.9007  0.0975
  181MOL   H16636526   0.529   4.710   7.487  0.3137 -0.9328  1.6921
  181MOL   H16736527   0.657   4.692   7.374 -0.3929 -0.5906 -0.9981
  181MOL   H16836528   0.701   4.678   7.683 -0.8481 -0.7224 -0.9289
  181MOL   H16936529   1.036   4.605   7.566  0.0289  0.0422  0.1812
  181MOL   H17036530   0.997   4.755   7.644  0.5277  1.5029 -1.8490
  181MOL   H17136531   0.922   4.592   7.695 -1.1728  0.9087 -0.5947
  181MOL   C17236532   0.726   4.865   7.591 -0.3069  0.1075 -0.5342
  181MOL   C17336533   0.617   4.931   7.685  0.3886  0.2793 -0.0906
  181MOL   O17436534   0.489   4.893   7.642 -0.1229 -0.2440 -0.4040
  181MOL   C17536535   0.373   4.970   7.673 -1.0497  0.2791  0.3905
  181MOL   H17636536   0.712   4.918   7.497 -2.6863  0.6685  0.1082
  181MOL   H17736537   0.824   4.892   7.631  0.5681 -1.1780 -1.7819
  181MOL   H17836538   0.611   5.039   7.682 -2.9742  0.2817  3.1643
  181MOL   H17936539   0.380   5.074   7.643 -0.2349 -0.0421 -0.5393
  181MOL   H18036540   0.283   4.925   7.631 -0.7472 -1.3870  1.4600
  181MOL   H18136541   0.377   4.965   7.782 -0.2291 -0.7710  0.3227
  181MOL   C18236542   0.653   4.907   0.027  0.1742  0.1016  0.5814
  181MOL   C18336543   0.772   4.992   0.086 -0.1198  0.0444 -0.1599
  181MOL   O18436544   0.728   5.126   0.094  0.2129 -1.0140 -0.6875
  181MOL   C18536545   0.807   5.216   0.026 -0.0056  0.2812  0.4725
  181MOL   H18636546   0.662   4.801   0.051  1.5926  0.1745  0.3931
  181MOL   H18736547   0.572   4.947   0.088 -0.1695  1.7802 -0.9159
  181MOL   H18836548   0.852   4.980   0.012 -0.4700  1.7075 -0.8176
  181MOL   H18936549   0.893   5.231   0.091 -0.0944  0.3137  0.5841
  181MOL   H19036550   0.832   5.191   7.733  0.0446  0.7525  0.3691
  181MOL   H19136551   0.748   5.308   0.027  0.2291  0.5029 -2.0276
  181MOL   C19236552   0.809   4.943   0.224 -0.0814 -0.2151 -0.4689
  181MOL   C19336553   0.931   5.013   0.277 -0.1710 -0.1668 -0.1191
  181MOL   O19436554   0.975   4.965   0.403  0.2576  0.1889  0.0085
  181MOL   C19536555   1.106   5.004   0.437 -0.0964 -0.0091  0.2597
  181MOL   H19636556   0.831   4.837   0.213 -1.9713 -0.4194 -2.8444
  181MOL   H19736557   0.722   4.946   0.290  0.3084 -0.5224  0.0598
  181MOL   H19836558   0.926   5.122   0.276  1.3584 -0.0849 -0.5362
  181MOL   H19936559   1.113   5.110   0.457 -0.3842  0.1508 -0.4678
  181MOL   H20036560   1.125   4.947   0.528 -1.8802 -1.4034 -0.2058
  181MOL   H20136561   1.181   4.975   0.364  2.1105  1.3738  1.9310
  181MOL   H20236562   1.011   4.997   0.205  0.3017 -0.3062  0.4320
  182MOL     C136563   4.759   1.920   1.218  0.4092 -0.1255  0.4937
  182MOL     C236564   4.857   1.883   1.328  0.7046  0.7051  0.2399
  182MOL     O336565   4.985   1.887   1.263  0.3278  0.7397  0.2431
  182MOL     C436566   5.083   1.790   1.310 -0.1027 -0.1586 -0.5727
  182MOL     H536567   4.656   1.914   1.253 -0.1684  0.4887 -1.0751
  182MOL     H636568   4.762   2.022   1.180  0.4238 -0.9052 -1.6088
  182MOL     H736569   4.831   1.785   1.368 -2.2012  1.4378  0.2338
  182MOL     H836570   5.091   1.796   1.419 -2.2602  3.6166 -0.5210
  182MOL     H936571   5.054   1.688   1.287 -1.1492  0.3531 -1.5551
  182MOL    H1036572   5.182   1.813   1.269 -0.2272  1.5192  0.0475
  182MOL    H1136573   4.770   1.853   1.134 -0.2571 -0.6897  0.8485
  182MOL    C1236574   4.870   1.982   1.446 -0.2784 -0.1526 -0.3934
  182MOL    C1336575   4.743   1.985   1.535 -0.0149  0.0467 -0.4876
  182MOL    O1436576   4.747   1.882   1.633 -0.2963 -0.1636 -0.0286
  182MOL    C1536577   4.625   1.848   1.685 -0.6349 -1.0938  0.5850
  182MOL    H1636578   4.890   2.082   1.407  0.5429  0.0524  0.5497
  182MOL    H1736579   4.958   1.964   1.508 -1.2592  0.5744  1.2459
  182MOL    H1836580   4.656   1.956   1.476 -2.0685 -1.3822  3.0915
  182MOL    H1936581   4.641   1.754   1.738 -1.0088 -1.3588  0.2385
  182MOL    H2036582   4.580   1.920   1.753 -0.1233  0.7767 -1.0051
  182MOL    H2136583   4.552   1.833   1.605  0.2601 -0.4579 -0.3677
  182MOL    C2236584   4.718   2.123   1.598  0.6260  0.1157 -0.3934
  182MOL    C2336585   4.825   2.180   1.684 -0.2979  0.1636 -0.3465
  182MOL    O2436586   4.822   2.325   1.681 -0.2372  0.3468  0.1704
  182MOL    C2536587   4.844   2.387   1.556  0.1112  0.3838  0.0774
  182MOL    H2636588   4.619   2.125   1.644  1.2919 -0.1934  1.0892
  182MOL    H2736589   4.693   2.187   1.513 -0.6741  1.9068  1.2823
  182MOL    H2836590   4.919   2.145   1.641 -0.2449  0.1356 -0.2055
  182MOL    H2936591   4.885   2.327   1.475  1.9792  1.4508  0.2070
  182MOL    H3036592   4.745   2.416   1.522 -0.5021 -1.9856 -0.2216
  182MOL    H3136593   4.896   2.482   1.562  1.5250 -0.3425 -0.5684
  182MOL    C3236594   4.821   2.124   1.828  0.2505  0.4063 -0.1591
  182MOL    C3336595   4.936   2.169   1.927  0.3359 -0.2590  0.6789
  182MOL    O3436596   4.893   2.149   2.064 -0.1966  0.1301  0.1008
  182MOL    C3536597   4.858   2.020   2.116 -1.0872 -0.3800 -0.0676
  182MOL    H3636598   4.819   2.015   1.826 -1.4390  0.4079  0.4235
  182MOL    H3736599   4.728   2.151   1.878  0.2226 -0.5818  0.3480
  182MOL    H3836600   4.942   2.276   1.906 -0.8094 -0.6097 -1.6460
  182MOL    H3936601   4.770   1.986   2.060 -1.1726 -2.4464  1.2532
  182MOL    H4036602   4.931   1.942   2.096 -0.8123 -0.2635  0.5085
  182MOL    H4136603   4.847   2.021   2.224  1.6721 -2.1645  0.2792
  182MOL    C4236604   5.079   2.114   1.896  0.1182 -0.2939 -0.5708
  182MOL    C4336605   5.194   2.178   1.977 -0.2165 -0.1430 -0.0344
  182MOL    O4436606   5.319   2.117   1.948 -0.3945  0.1218  0.3004
  182MOL    C4536607   5.417   2.129   2.046  0.3870  0.4564 -0.2411
  182MOL    H4636608   5.102   2.129   1.791  1.1816  1.9841 -0.0458
  182MOL    H4736609   5.076   2.007   1.916 -0.1884 -0.5971 -2.2081
  182MOL    H4836610   5.170   2.154   2.081 -2.2705 -0.1857 -0.5130
  182MOL    H4936611   5.431   2.235   2.068  0.4449  0.8865 -2.2228
  182MOL    H5036612   5.384   2.079   2.137  1.2504 -0.2228 -0.2947
  182MOL    H5136613   5.515   2.094   2.013  0.5437 -1.2175  1.9126
  182MOL    C5236614   5.196   2.337   1.980 -0.2191 -0.4139  0.2118
  182MOL    C5336615   5.200   2.409   1.843  0.0519 -0.6729 -0.2885
  182MOL    O5436616   5.209   2.549   1.866  0.5074  0.3043 -0.7378
  182MOL    C5536617   5.091   2.621   1.918  0.0021  0.1205 -0.0796
  182MOL    H5636618   5.282   2.384   2.028  1.3267 -3.2887  0.3683
  182MOL    H5736619   5.108   2.370   2.035  0.2770  0.5736  0.4355
  182MOL    H5836620   5.103   2.385   1.800  0.0232 -3.4950  1.1733
  182MOL    H5936621   5.005   2.578   1.868  1.8072 -2.0391 -1.4225
  182MOL    H6036622   5.071   2.602   2.023 -3.1784  0.3908 -0.5854
  182MOL    H6136623   5.090   2.730   1.910  2.5167  0.1832  0.0716
  182MOL    C6236624   5.322   2.359   1.762 -0.9518 -0.2236 -0.1685
  182MOL    C6336625   5.330   2.426   1.625  0.1574 -0.8228  0.6364
  182MOL    O6436626   5.443   2.373   1.559 -0.3456 -0.1106 -0.3294
  182MOL    C6536627   5.555   2.460   1.560  0.2827  0.1059  0.6672
  182MOL    H6636628   5.329   2.250   1.762 -0.5174 -0.2188  1.3220
  182MOL    H6736629   5.406   2.382   1.827 -2.4358 -1.0808  2.1213
  182MOL    H6836630   5.319   2.534   1.620 -0.2822 -0.9286 -1.5294
  182MOL    H6936631   5.602   2.476   1.657  0.6345 -0.7602  0.6452
  182MOL    H7036632   5.634   2.432   1.491 -0.3444 -1.0018  0.3903
  182MOL    H7136633   5.526   2.561   1.531  0.7426  0.1611  0.3948
  182MOL    C7236634   5.217   2.365   1.542 -0.0731 -0.5471 -0.7226
  182MOL    C7336635   5.209   2.401   1.394 -0.4518 -1.3143 -0.7027
  182MOL    O7436636   5.109   2.328   1.329 -0.6643  0.3186  0.6305
  182MOL    C7536637   5.130   2.195   1.289  0.2786  0.3693  0.3913
  182MOL    H7636638   5.122   2.393   1.589  0.7927  0.7235  0.3035
  182MOL    H7736639   5.226   2.257   1.555  0.8287 -0.3444  0.4225
  182MOL    H7836640   5.311   2.381   1.360  0.7593  1.1924  1.2527
  182MOL    H7936641   5.145   2.121   1.368 -0.0871  0.1050  0.2157
  182MOL    H8036642   5.050   2.165   1.221  0.6944  0.1200  0.0011
  182MOL    H8136643   5.214   2.205   1.220 -0.6536  0.4260 -0.7583
  182MOL    C8236644   5.178   2.554   1.378  0.2497  1.0526  0.8615
  182MOL    C8336645   5.201   2.610   1.235 -0.1450 -0.2756  0.6617
  182MOL    O8436646   5.129   2.728   1.208  1.3025  0.2916 -0.0677
  182MOL    C8536647   4.995   2.704   1.163  0.4190  0.0315  0.5105
  182MOL    H8636648   5.221   2.617   1.456 -0.2946  1.2593  0.9968
  182MOL    H8736649   5.073   2.575   1.400  0.3873  0.6008  1.9508
  182MOL    H8836650   5.189   2.533   1.158 -0.0485 -0.8249  1.1897
  182MOL    H8936651   4.997   2.637   1.078 -3.0899 -0.9630  1.1325
  182MOL    H9036652   4.938   2.660   1.245  0.6557  1.5107  1.5029
  182MOL    H9136653   4.939   2.797   1.151 -0.6068 -0.8293 -1.7484
  182MOL    C9236654   5.348   2.662   1.240  0.3010 -0.8128 -0.1485
  182MOL    C9336655   5.412   2.703   1.101  0.6722  0.0849 -0.6012
  182MOL    O9436656   5.498   2.826   1.134 -0.5857 -0.1723  0.3711
  182MOL    C9536657   5.506   2.906   1.026 -0.1407 -0.8636  0.6079
  182MOL    H9636658   5.412   2.587   1.286  0.2649 -0.2966  0.7755
  182MOL    H9736659   5.351   2.751   1.304 -1.2626 -0.3920 -0.6433
  182MOL    H9836660   5.330   2.722   1.032  0.0932 -1.7972 -0.4712
  182MOL    H9936661   5.564   2.871   0.941  1.7621 -0.7737  1.8303
  182MOL   H10036662   5.413   2.942   0.981  0.4257  0.3451  0.3853
  182MOL   H10136663   5.558   2.993   1.066  1.1513 -2.1389  1.7502
  182MOL   C10236664   5.500   2.599   1.039 -0.2796 -0.3415  0.1627
  182MOL   C10336665   5.425   2.490   0.954  0.5447 -0.3745  0.0761
  182MOL   O10436666   5.360   2.549   0.838  0.0123  0.0915 -0.3224
  182MOL   C10536667   5.220   2.538   0.842  0.9836  0.1002  0.5778
  182MOL   H10636668   5.561   2.556   1.118  1.8318  2.8648  0.3931
  182MOL   H10736669   5.572   2.646   0.970  0.0626 -0.7360  0.2471
  182MOL   H10836670   5.353   2.443   1.021  1.1044 -1.5109 -0.0911
  182MOL   H10936671   5.178   2.598   0.922  0.0362 -0.2525  0.3517
  182MOL   H11036672   5.191   2.586   0.748  0.2232 -0.7691  0.3575
  182MOL   H11136673   5.187   2.434   0.839 -2.7343  1.2030  1.1321
  182MOL   C11236674   5.522   2.369   0.911 -0.1248  0.0984 -0.1742
  182MOL   C11336675   5.461   2.249   0.832 -0.1214 -1.0283  1.0223
  182MOL   O11436676   5.570   2.174   0.781 -0.2171  0.4698  0.2920
  182MOL   C11536677   5.554   2.108   0.650  0.0924  0.3543 -0.3812
  182MOL   H11636678   5.592   2.347   0.991 -1.1326 -0.7314  0.4967
  182MOL   H11736679   5.591   2.410   0.838 -1.3622 -2.8132 -3.0858
  182MOL   H11836680   5.415   2.293   0.744 -0.1197  0.5718  1.8054
  182MOL   H11936681   5.469   2.041   0.657  0.7272 -0.6769 -2.2385
  182MOL   H12036682   5.531   2.182   0.574  2.1700  1.9539  0.4771
  182MOL   H12136683   5.644   2.059   0.614  1.1831  1.6432  0.4849
  182MOL   C12236684   5.355   2.167   0.900  0.1897 -0.2588 -0.0505
  182MOL   C12336685   5.421   2.091   1.018 -0.2391 -0.8308 -0.8135
  182MOL   O12436686   5.423   2.186   1.132  1.0853 -0.3052  0.2769
  182MOL   C12536687   5.535   2.166   1.218  0.6778  0.6253 -0.2082
  182MOL   H12636688   5.302   2.095   0.837  2.0338 -1.3800 -0.3630
  182MOL   H12736689   5.275   2.230   0.939 -0.2980 -0.3240 -0.9315
  182MOL   H12836690   5.522   2.060   0.991 -0.0592 -0.0104 -1.0863
  182MOL   H12936691   5.621   2.209   1.166 -0.3109  2.2859 -0.4977
  182MOL   H13036692   5.515   2.238   1.297 -1.4956  0.9201 -1.0105
  182MOL   H13136693   5.550   2.065   1.257 -0.7345  0.3335 -0.4025
  182MOL   C13236694   5.350   1.960   1.050  0.1479  0.5453 -0.6753
  182MOL   C13336695   5.390   1.845   0.956  0.0319  1.0593 -0.3174
  182MOL   O13436696   5.529   1.803   0.978  0.1741  0.1197  0.6925
  182MOL   C13536697   5.598   1.768   0.857 -0.4699  0.6061  0.2690
  182MOL   H13636698   5.242   1.979   1.044 -0.3297 -0.7115  2.7146
  182MOL   H13736699   5.367   1.932   1.154  2.5171 -0.4636 -1.3131
  182MOL   H13836700   5.380   1.867   0.850 -1.7215 -0.9893 -0.6044
  182MOL   H13936701   5.603   1.854   0.790  2.2947 -1.8833 -2.8649
  182MOL   H14036702   5.700   1.736   0.877 -0.7432 -1.3531 -1.3711
  182MOL   H14136703   5.551   1.685   0.805  2.7047 -0.1001 -1.6121
  182MOL   C14236704   5.306   1.723   0.974  0.0003  0.3663 -0.0444
  182MOL   C14336705   5.172   1.723   0.888 -0.4932 -0.3107 -1.0004
  182MOL   O14436706   5.186   1.618   0.791  0.3445 -0.0302 -0.0899
  182MOL   C14536707   5.234   1.672   0.665  0.2350  0.5845 -0.2290
  182MOL   H14636708   5.296   1.704   1.081 -2.4101  0.0141 -0.2854
  182MOL   H14736709   5.359   1.640   0.928 -0.5421  0.3814 -0.7124
  182MOL   H14836710   5.161   1.815   0.831  0.7416  1.4171  1.4679
  182MOL   H14936711   5.332   1.720   0.671 -0.3827  1.9090 -0.4211
  182MOL   H15036712   5.246   1.587   0.598 -1.4792 -0.5656  0.8733
  182MOL   H15136713   5.159   1.742   0.627  0.4368  0.4888 -0.8021
  182MOL   C15236714   5.046   1.701   0.972 -0.1367  0.3601  0.4809
  182MOL   C15336715   4.916   1.693   0.888 -0.3303  0.4532 -0.0849
  182MOL   O15436716   4.813   1.657   0.985 -0.0612  0.0182  0.4086
  182MOL   C15536717   4.754   1.529   0.984 -0.5475  0.4510 -0.4658
  182MOL   H15636718   5.038   1.783   1.044 -0.2405  0.2760  0.5660
  182MOL   H15736719   5.051   1.614   1.037 -0.6574  0.6825  0.9662
  182MOL   H15836720   4.934   1.613   0.816  0.3676 -0.0922  0.6889
  182MOL   H15936721   4.827   1.448   0.984 -0.9202  0.1015 -1.5381
  182MOL   H16036722   4.705   1.523   1.081  0.6192 -0.9999  0.0604
  182MOL   H16136723   4.693   1.513   0.895  0.7683 -0.3014 -1.2591
  182MOL   C16236724   4.857   1.824   0.827 -0.7615 -0.3360 -0.7134
  182MOL   C16336725   4.759   1.797   0.710  0.6170  0.1956  0.4673
  182MOL   O16436726   4.700   1.925   0.681 -0.0877  0.2596  0.4935
  182MOL   C16536727   4.560   1.936   0.705  0.3352 -0.1248 -0.0518
  182MOL   H16636728   4.938   1.892   0.801  1.7419 -3.0930 -0.3766
  182MOL   H16736729   4.795   1.875   0.902 -0.7994 -1.6116  0.1251
  182MOL   H16836730   4.683   1.725   0.738  0.9609 -0.6397 -0.7099
  182MOL   H16936731   4.502   1.852   0.667  0.9166 -1.1223  1.2404
  182MOL   H17036732   4.542   1.945   0.812  1.5423 -0.1731  0.1685
  182MOL   H17136733   4.525   2.032   0.666  1.5789 -0.2337 -1.4997
  182MOL   C17236734   4.814   1.756   0.576 -0.0787 -0.5016  0.5203
  182MOL   C17336735   4.708   1.736   0.460 -0.1183 -0.4746 -0.0860
  182MOL   O17436736   4.771   1.687   0.335 -0.3928  0.5658 -0.3207
  182MOL   C17536737   4.821   1.782   0.253 -0.0173 -0.5841 -0.6131
  182MOL   H17636738   4.860   1.658   0.587 -1.8100 -1.5201 -1.0438
  182MOL   H17736739   4.895   1.824   0.550 -0.6658  0.8884  2.1913
  182MOL   H17836740   4.657   1.831   0.447 -0.0799 -0.4085  0.2518
  182MOL   H17936741   4.892   1.843   0.309 -0.2637 -2.3660  1.7484
  182MOL   H18036742   4.872   1.727   0.174  0.4995 -0.8513 -0.0953
  182MOL   H18136743   4.741   1.851   0.225 -0.3710 -0.7314  0.0169
  182MOL   C18236744   4.594   1.632   0.498  0.1094 -0.2679 -0.1765
  182MOL   C18336745   4.639   1.484   0.505 -0.0492 -0.0695 -0.3245
  182MOL   O18436746   4.703   1.453   0.629 -0.5012  0.6639 -0.2759
  182MOL   C18536747   4.787   1.335   0.621 -0.0395  0.0873 -0.5093
  182MOL   H18636748   4.528   1.656   0.414  0.9710 -0.9552 -1.0698
  182MOL   H18736749   4.537   1.661   0.586  0.4951  0.2071 -0.0852
  182MOL   H18836750   4.703   1.448   0.424 -0.8504 -0.6237 -0.7243
  182MOL   H18936751   4.879   1.365   0.570 -0.6414  0.8509 -1.1663
  182MOL   H19036752   4.830   1.319   0.720  2.2093  1.0036 -1.2991
  182MOL   H19136753   4.742   1.247   0.575  0.6341  0.8687 -2.7233
  182MOL   C19236754   4.521   1.392   0.487 -0.3527  0.0777 -0.0942
  182MOL   C19336755   4.437   1.363   0.619 -0.0328  0.1112  0.0781
  182MOL   O19436756   4.312   1.304   0.587  0.1422 -0.2018 -0.2763
  182MOL   C19536757   4.247   1.238   0.695  0.3210 -0.3965  0.7661
  182MOL   H19636758   4.542   1.290   0.454  1.4136  0.2926  0.3230
  182MOL   H19736759   4.453   1.439   0.416  2.0126  0.9129 -1.8659
  182MOL   H19836760   4.408   1.460   0.661 -1.5714  0.2093 -1.1861
  182MOL   H19936761   4.303   1.154   0.735  1.1445  0.6678  1.8633
  182MOL   H20036762   4.242   1.299   0.785  2.2731  2.5333 -1.0517
  182MOL   H20136763   4.146   1.220   0.658  0.7963 -0.0451 -0.7459
  182MOL   H20236764   4.504   1.313   0.689  1.1016 -1.4894 -2.0876
  183MOL     C136765   1.354   1.059   0.721  0.7118  0.8342  0.2240
  183MOL     C236766   1.293   1.184   0.794 -0.2518  0.1777 -0.1352
  183MOL     O336767   1.395   1.231   0.885 -0.3570 -0.3873  0.1144
  183MOL     C436768   1.415   1.142   0.997  1.0875 -0.1328  0.3970
  183MOL     H536769   1.270   1.004   0.678  0.6316  0.5703  0.7108
  183MOL     H636770   1.427   1.078   0.642  0.0331  1.4745 -0.2552
  183MOL     H736771   1.219   1.148   0.866 -1.0419  0.9247 -0.5701
  183MOL     H836772   1.323   1.141   1.056 -0.1235 -1.9224 -1.4459
  183MOL     H936773   1.438   1.038   0.976  0.4344 -0.3471  0.7268
  183MOL    H1036774   1.497   1.183   1.057  0.0189 -0.0339  1.8133
  183MOL    H1136775   1.405   0.992   0.790  0.9353  1.5770  0.7871
  183MOL    C1236776   1.226   1.283   0.699 -0.0072 -0.3083 -1.0245
  183MOL    C1336777   1.171   1.411   0.773  0.6185  0.3890  0.3693
  183MOL    O1436778   1.153   1.523   0.681 -0.0701 -0.1844  0.4480
  183MOL    C1536779   1.276   1.582   0.651  0.1366 -0.7972 -0.0389
  183MOL    H1636780   1.144   1.239   0.643 -0.2029  1.9023 -2.5605
  183MOL    H1736781   1.297   1.322   0.626 -0.8418  1.1446 -1.0700
  183MOL    H1836782   1.241   1.431   0.854  0.0311  2.6480  0.3773
  183MOL    H1936783   1.240   1.673   0.603  0.8373 -0.4175  0.1492
  183MOL    H2036784   1.323   1.622   0.741 -1.1047  0.8309 -0.0883
  183MOL    H2136785   1.339   1.519   0.589  0.9345  0.2703 -0.3313
  183MOL    C2236786   1.036   1.398   0.843 -0.2649 -0.0801 -0.4285
  183MOL    C2336787   1.039   1.502   0.959 -0.2350 -0.0994 -1.0380
  183MOL    O2436788   0.906   1.535   0.990 -0.9949  0.5264 -0.3283
  183MOL    C2536789   0.843   1.630   0.902 -0.0719 -0.8614  0.0917
  183MOL    H2636790   1.032   1.297   0.884  0.6037  0.4258  0.9405
  183MOL    H2736791   0.954   1.413   0.773  0.3382  1.0351 -0.9051
  183MOL    H2836792   1.087   1.593   0.921  0.7357 -0.6119 -1.0521
  183MOL    H2936793   0.747   1.659   0.945  0.2756 -0.4931  0.6187
  183MOL    H3036794   0.912   1.710   0.874 -0.0308 -0.5160  1.1579
  183MOL    H3136795   0.820   1.574   0.811 -0.7127 -0.5218  0.0418
  183MOL    C3236796   1.113   1.457   1.083 -0.1797 -0.6750 -0.3147
  183MOL    C3336797   1.136   1.567   1.190 -0.0563  0.0748 -0.1658
  183MOL    O3436798   1.145   1.503   1.320 -0.2035 -0.1459 -0.0572
  183MOL    C3536799   1.257   1.420   1.344 -0.5187  0.1126 -0.2163
  183MOL    H3636800   1.212   1.413   1.071  1.1326  1.2992  2.5062
  183MOL    H3736801   1.060   1.378   1.136 -0.1451  0.0013  0.7581
  183MOL    H3836802   1.042   1.622   1.199  0.1897  0.3215  1.0720
  183MOL    H3936803   1.274   1.344   1.268  0.0289 -0.7047  0.7078
  183MOL    H4036804   1.344   1.487   1.351 -1.5417  1.5086 -0.5951
  183MOL    H4136805   1.246   1.365   1.437 -0.6939 -0.0373 -0.3258
  183MOL    C4236806   1.253   1.659   1.182  0.1338  0.1187  0.8494
  183MOL    C4336807   1.266   1.774   1.288 -0.2045 -0.5258 -0.8775
  183MOL    O4436808   1.400   1.817   1.321  0.1809  0.1160  1.4279
  183MOL    C4536809   1.474   1.739   1.419  0.2908 -0.3915 -0.6163
  183MOL    H4636810   1.256   1.714   1.088 -0.3690 -0.2657  0.6051
  183MOL    H4736811   1.337   1.589   1.183  0.9436  1.0384 -0.4598
  183MOL    H4836812   1.226   1.737   1.382 -0.5660  0.0705 -0.7925
  183MOL    H4936813   1.529   1.654   1.378 -0.9163 -1.1008 -0.7853
  183MOL    H5036814   1.534   1.816   1.467  0.2486  0.8775 -2.5436
  183MOL    H5136815   1.399   1.703   1.489  0.2229  1.3426  0.2287
  183MOL    C5236816   1.190   1.901   1.258 -0.1983 -1.3417  0.2540
  183MOL    C5336817   1.230   1.981   1.126  0.1830 -0.3028 -0.0792
  183MOL    O5436818   1.163   1.927   1.010  0.1326 -0.4175 -0.0162
  183MOL    C5536819   1.238   1.916   0.889 -0.0315  0.1796  0.0654
  183MOL    H5636820   1.199   1.954   1.353 -1.6397  0.0553 -0.3576
  183MOL    H5736821   1.082   1.887   1.263 -0.0819 -2.7525 -0.9431
  183MOL    H5836822   1.338   1.976   1.108 -0.0085 -0.1971 -1.3519
  183MOL    H5936823   1.331   1.862   0.905 -0.4296 -0.8239 -0.9367
  183MOL    H6036824   1.180   1.871   0.809 -1.0514  1.1532  0.2488
  183MOL    H6136825   1.262   2.013   0.845 -0.1314 -0.4269 -1.3543
  183MOL    C6236826   1.185   2.127   1.109  0.1788 -0.6338 -0.0793
  183MOL    C6336827   1.226   2.219   1.227  0.5247  0.1483 -0.2732
  183MOL    O6436828   1.355   2.183   1.280 -0.1577  0.7463  0.2809
  183MOL    C6536829   1.467   2.222   1.204  0.6603  0.3655  0.5263
  183MOL    H6636830   1.078   2.130   1.087 -0.0762  0.6653  1.2234
  183MOL    H6736831   1.230   2.178   1.024  1.8302 -1.9042  0.0182
  183MOL    H6836832   1.164   2.183   1.309 -1.6560  0.0112 -1.9337
  183MOL    H6936833   1.439   2.247   1.101 -1.6071 -2.5552  0.3593
  183MOL    H7036834   1.509   2.307   1.257  0.5346  0.8390 -0.1127
  183MOL    H7136835   1.544   2.146   1.193 -1.5512 -1.9916  0.8761
  183MOL    C7236836   1.202   2.372   1.216  0.4265 -0.2184  0.6857
  183MOL    C7336837   1.150   2.434   1.343  1.1115 -0.0632  0.0987
  183MOL    O7436838   1.178   2.583   1.343 -0.1078  0.0620  0.1021
  183MOL    C7536839   1.294   2.612   1.425 -0.3326 -0.2623  0.0634
  183MOL    H7636840   1.137   2.398   1.133  2.6076  1.0871 -0.6467
  183MOL    H7736841   1.290   2.430   1.191  1.4957 -0.7963  2.9896
  183MOL    H7836842   1.192   2.372   1.422 -0.3053 -0.7870  0.3080
  183MOL    H7936843   1.388   2.580   1.382 -0.6530  0.0914 -0.9171
  183MOL    H8036844   1.309   2.720   1.429 -1.0294 -0.0294 -2.5197
  183MOL    H8136845   1.287   2.573   1.526 -1.0941 -1.4605 -0.4395
  183MOL    C8236846   0.994   2.417   1.339 -0.3342 -0.3416 -0.2177
  183MOL    C8336847   0.933   2.478   1.470 -0.7949 -0.0235 -0.2216
  183MOL    O8436848   0.793   2.475   1.460 -0.5977  0.0182 -0.3395
  183MOL    C8536849   0.743   2.585   1.390 -0.0792 -0.2870  0.4760
  183MOL    H8636850   0.975   2.310   1.330  1.4896 -0.7179  0.2291
  183MOL    H8736851   0.946   2.463   1.252 -0.4656  0.2707  0.1755
  183MOL    H8836852   0.961   2.583   1.477 -3.3009  0.6993 -0.5769
  183MOL    H8936853   0.741   2.682   1.440 -0.4207  0.6098 -1.2360
  183MOL    H9036854   0.793   2.602   1.294 -3.1617 -1.3274 -1.3920
  183MOL    H9136855   0.641   2.560   1.363 -0.6812  1.9691  0.5285
  183MOL    C9236856   0.968   2.408   1.597 -0.3421 -0.1115  0.2434
  183MOL    C9336857   0.915   2.481   1.731 -0.2917  0.2322 -0.9962
  183MOL    O9436858   0.925   2.376   1.826 -0.2374  0.4036  0.4329
  183MOL    C9536859   0.804   2.357   1.907  0.0164 -0.1744  0.4703
  183MOL    H9636860   1.072   2.377   1.609 -0.2745  0.2243  0.5117
  183MOL    H9736861   0.920   2.310   1.594 -1.5212  0.5110 -1.9313
  183MOL    H9836862   0.808   2.494   1.716 -0.5963 -2.3983 -1.2716
  183MOL    H9936863   0.819   2.275   1.978  1.7853  0.7356  1.1616
  183MOL   H10036864   0.796   2.442   1.974  0.9908  0.3184 -0.0271
  183MOL   H10136865   0.718   2.346   1.841 -2.0796 -0.3260  3.1244
  183MOL   C10236866   1.002   2.606   1.773 -0.1398  0.0045  0.2061
  183MOL   C10336867   0.957   2.743   1.712  0.2222  0.0711 -0.4215
  183MOL   O10436868   0.850   2.798   1.790 -0.7103  0.4586 -0.1637
  183MOL   C10536869   0.734   2.725   1.829  0.2340 -0.1044  0.3764
  183MOL   H10636870   1.102   2.568   1.752  0.6602  2.8233 -1.3103
  183MOL   H10736871   0.999   2.616   1.881  0.2788  4.6231 -0.1294
  183MOL   H10836872   0.907   2.718   1.618  1.6913  1.1908 -1.5203
  183MOL   H10936873   0.694   2.673   1.741  0.1769  2.4677 -1.1700
  183MOL   H11036874   0.753   2.652   1.907 -1.0974 -0.0103  0.7938
  183MOL   H11136875   0.662   2.801   1.859  0.2421 -0.2664  0.8037
  183MOL   C11236876   1.064   2.842   1.669 -0.1849 -0.6982 -0.6511
  183MOL   C11336877   1.008   2.962   1.578  0.0863  0.1237 -0.3624
  183MOL   O11436878   1.093   3.080   1.584 -0.0085 -0.0643 -0.7557
  183MOL   C11536879   1.095   3.151   1.709  0.2736 -0.0724  0.0595
  183MOL   H11636880   1.137   2.794   1.603 -0.2345 -1.8384  0.1038
  183MOL   H11736881   1.124   2.893   1.744  0.6552  0.4186 -2.0516
  183MOL   H11836882   0.912   2.995   1.617  0.0695  0.2814 -0.5379
  183MOL   H11936883   1.129   3.254   1.694 -0.6073  0.1680 -0.3308
  183MOL   H12036884   1.000   3.160   1.762  0.4108  0.6086  0.2036
  183MOL   H12136885   1.154   3.098   1.784 -1.3399 -1.5729  0.2924
  183MOL   C12236886   0.991   2.921   1.434  0.6187  0.2726  0.6881
  183MOL   C12336887   0.919   3.030   1.351  0.4599  0.8553 -0.0962
  183MOL   O12436888   0.889   2.970   1.225  0.7476 -0.5985  0.2336
  183MOL   C12536889   1.002   2.966   1.140  0.6146 -0.1096  0.2260
  183MOL   H12636890   0.951   2.821   1.421 -1.1582  1.0512 -0.1037
  183MOL   H12736891   1.090   2.930   1.389 -0.2283 -0.2415 -1.3535
  183MOL   H12836892   0.976   3.122   1.352 -2.9064  3.0409 -0.4187
  183MOL   H12936893   1.081   2.899   1.175 -0.6242 -0.0887  3.2094
  183MOL   H13036894   0.977   2.927   1.041  1.9162 -1.1510  0.2875
  183MOL   H13136895   1.055   3.059   1.121  1.4730 -0.9974 -1.9576
  183MOL   C13236896   0.775   3.063   1.407  0.2736  0.0302  0.2813
  183MOL   C13336897   0.680   3.135   1.308 -0.2024  0.0980  0.1458
  183MOL   O13436898   0.547   3.144   1.368  0.1141 -0.2381 -0.4042
  183MOL   C13536899   0.442   3.111   1.280 -0.2303  0.4591 -0.4626
  183MOL   H13636900   0.789   3.125   1.495  0.5930 -0.0508  0.2865
  183MOL   H13736901   0.719   2.972   1.427  0.6068 -0.6992 -1.9299
  183MOL   H13836902   0.668   3.062   1.228  0.6301 -0.4114  0.4728
  183MOL   H13936903   0.343   3.128   1.323 -1.1005 -2.4436 -1.1709
  183MOL   H14036904   0.444   3.172   1.189 -1.7217  2.5049  0.8180
  183MOL   H14136905   0.451   3.011   1.238 -1.3834 -0.1404  0.6831
  183MOL   C14236906   0.730   3.260   1.239 -0.1908 -0.0536  0.1765
  183MOL   C14336907   0.761   3.378   1.330  0.2279  0.5086 -0.1892
  183MOL   O14436908   0.894   3.363   1.381  0.5873  0.8092  0.0529
  183MOL   C14536909   0.917   3.437   1.506  0.3587  0.0196  0.2424
  183MOL   H14636910   0.639   3.286   1.186 -1.0971 -1.7593  0.8642
  183MOL   H14736911   0.811   3.242   1.169 -0.5293 -0.4219 -0.1155
  183MOL   H14836912   0.695   3.389   1.416  1.0904 -0.4073  0.6062
  183MOL   H14936913   0.881   3.539   1.516  1.3724  0.7315 -2.6871
  183MOL   H15036914   0.881   3.378   1.590 -1.1533  0.4268 -0.1098
  183MOL   H15136915   1.026   3.439   1.515  0.2531  0.9722  1.3957
  183MOL   C15236916   0.761   3.507   1.251  0.2962 -0.5383  0.5088
  183MOL   C15336917   0.621   3.552   1.197  0.1618  0.0822  0.3476
  183MOL   O15436918   0.535   3.584   1.307  0.0506 -0.6677 -0.6401
  183MOL   C15536919   0.400   3.558   1.282 -0.0723 -0.1000 -0.0233
  183MOL   H15636920   0.820   3.484   1.163 -0.1962 -3.4487  0.9131
  183MOL   H15736921   0.803   3.588   1.312  0.2182 -0.8743  1.0150
  183MOL   H15836922   0.566   3.469   1.152 -0.5323  0.3862  0.6293
  183MOL   H15936923   0.382   3.455   1.313 -0.9969 -0.2957 -1.2184
  183MOL   H16036924   0.337   3.628   1.336 -0.1044  0.2528 -0.5160
  183MOL   H16136925   0.383   3.570   1.176 -1.5606  2.0859  0.4270
  183MOL   C16236926   0.634   3.666   1.103 -0.1903 -0.1172 -0.1627
  183MOL   C16336927   0.669   3.639   0.955 -0.4493 -0.1182 -0.5463
  183MOL   O16436928   0.555   3.563   0.906 -0.2354  0.0745  0.5870
  183MOL   C16536929   0.593   3.447   0.841  0.2201 -0.3513 -0.7284
  183MOL   H16636930   0.709   3.736   1.141 -1.1852  2.5025 -2.8285
  183MOL   H16736931   0.540   3.721   1.092  0.1391  0.7053  1.0208
  183MOL   H16836932   0.763   3.584   0.949  0.0891  0.8036 -0.5392
  183MOL   H16936933   0.509   3.385   0.809  1.0137 -0.9695 -1.6902
  183MOL   H17036934   0.654   3.474   0.755  0.6003 -2.8525 -1.3096
  183MOL   H17136935   0.646   3.378   0.907 -2.9254 -0.9374  1.2940
  183MOL   C17236936   0.681   3.762   0.872 -1.1521  0.0841 -0.2911
  183MOL   C17336937   0.814   3.840   0.876  0.5407 -0.1628  0.2596
  183MOL   O17436938   0.905   3.780   0.781  0.3801  0.1233  0.6560
  183MOL   C17536939   0.996   3.698   0.848 -0.8077 -0.8418 -0.0014
  183MOL   H17636940   0.608   3.830   0.917  0.0468  0.8262  0.5756
  183MOL   H17736941   0.656   3.745   0.768 -1.8589  2.5007 -0.5497
  183MOL   H17836942   0.847   3.845   0.980 -0.2082 -1.3874  0.5718
  183MOL   H17936943   1.067   3.759   0.903  0.5627 -1.8096 -0.6705
  183MOL   H18036944   0.959   3.631   0.925  1.1005 -0.5937  1.1713
  183MOL   H18136945   1.056   3.626   0.793  1.8826  0.8310  0.6181
  183MOL   C18236946   0.804   3.987   0.828 -0.2589 -0.0205 -0.4955
  183MOL   C18336947   0.745   4.077   0.931  0.2114  0.0962  0.3202
  183MOL   O18436948   0.812   4.077   1.057  0.4475  0.5243 -0.1499
  183MOL   C18536949   0.726   4.115   1.168  0.2807 -0.2725 -0.7912
  183MOL   H18636950   0.756   3.999   0.732  0.6644  2.8190 -0.6563
  183MOL   H18736951   0.907   4.019   0.808 -0.5849  0.3342 -1.6128
  183MOL   H18836952   0.641   4.046   0.946 -0.0813  1.7432  1.8978
  183MOL   H18936953   0.767   4.069   1.258  0.1332 -0.9796 -1.0812
  183MOL   H19036954   0.717   4.222   1.186  1.0749 -0.2491 -0.5101
  183MOL   H19136955   0.626   4.073   1.160 -1.2197  2.9188  0.1741
  183MOL   C19236956   0.725   4.220   0.880 -0.1891 -0.0616 -0.3092
  183MOL   C19336957   0.851   4.310   0.865  0.2630  0.2863  0.0322
  183MOL   O19436958   0.822   4.442   0.820  0.3198  0.0985 -0.1433
  183MOL   C19536959   0.935   4.531   0.826 -0.5421 -0.6342  0.2238
  183MOL   H19636960   0.648   4.276   0.933  0.2189  0.6102 -0.4177
  183MOL   H19736961   0.681   4.213   0.780  0.7064 -0.3238 -0.6864
  183MOL   H19836962   0.932   4.275   0.802 -0.4275 -1.6333  0.1863
  183MOL   H19936963   0.915   4.627   0.778  2.2079  1.2144  2.6121
  183MOL   H20036964   0.967   4.549   0.929  1.3469 -1.2126 -0.2540
  183MOL   H20136965   1.022   4.483   0.782 -0.9857 -0.7802 -0.5074
  183MOL   H20236966   0.903   4.307   0.960 -0.4102 -1.7857  0.3539
  184MOL     C136967   1.766   4.129   0.174  0.4984  0.1186  0.8018
  184MOL     C236968   1.766   4.093   0.322  0.1515  0.6781  0.7190
  184MOL     O336969   1.826   3.964   0.336  0.4768  0.4905  0.0795
  184MOL     C436970   1.749   3.844   0.304 -0.0035  0.0701  0.0518
  184MOL     H536971   1.719   4.055   0.110 -2.9681  2.2218  0.8031
  184MOL     H636972   1.719   4.224   0.150 -1.0185 -1.1478 -1.3799
  184MOL     H736973   1.661   4.088   0.351 -0.1869  0.5164 -0.4926
  184MOL     H836974   1.807   3.760   0.266 -0.2494  0.9143 -2.2943
  184MOL     H936975   1.692   3.827   0.395 -0.8440 -0.5908 -0.5851
  184MOL    H1036976   1.667   3.871   0.238  1.4412  0.5817 -1.5645
  184MOL    H1136977   1.870   4.128   0.141 -1.1514  1.4842 -4.8349
  184MOL    C1236978   1.857   4.183   0.418 -0.2092  0.1612  0.0551
  184MOL    C1336979   1.814   4.326   0.456  0.0878 -0.2438 -0.4645
  184MOL    O1436980   1.711   4.318   0.551  0.6094  0.3928 -0.0195
  184MOL    C1536981   1.615   4.414   0.540  0.5725  0.0294 -0.1237
  184MOL    H1636982   1.960   4.176   0.383 -0.1860 -0.3449  0.2229
  184MOL    H1736983   1.868   4.112   0.500  0.2116 -0.3867 -0.4693
  184MOL    H1836984   1.772   4.374   0.368 -0.6745  1.5779  0.8581
  184MOL    H1936985   1.566   4.422   0.444  1.0535 -1.1625 -0.4698
  184MOL    H2036986   1.540   4.397   0.618  1.5345 -3.4984  0.1162
  184MOL    H2136987   1.658   4.514   0.548 -1.3426  0.7520  1.7154
  184MOL    C2236988   1.924   4.414   0.518  0.0460  1.1538  0.1680
  184MOL    C2336989   1.973   4.512   0.422 -0.3723  0.1797  0.0273
  184MOL    O2436990   1.859   4.597   0.382 -0.2423 -0.0925  0.5306
  184MOL    C2536991   1.859   4.613   0.241 -0.0382  0.5408  0.0226
  184MOL    H2636992   2.004   4.350   0.555  0.6817 -0.0170 -3.0482
  184MOL    H2736993   1.885   4.473   0.600  1.6501  1.0375  1.0253
  184MOL    H2836994   2.009   4.446   0.343  0.6382  0.2343  0.4382
  184MOL    H2936995   1.813   4.530   0.186 -0.0870 -0.1775  1.1285
  184MOL    H3036996   1.803   4.704   0.221  1.7411  2.4180  3.1985
  184MOL    H3136997   1.963   4.628   0.215  0.3537  0.2376  1.3738
  184MOL    C3236998   2.083   4.602   0.481 -0.6846 -0.0262 -0.9856
  184MOL    C3336999   2.221   4.534   0.525  0.3078 -0.0589  0.2264
  184MOL    O3437000   2.257   4.461   0.407 -0.2543 -0.1446 -0.3116
  184MOL    C3537001   2.335   4.346   0.437 -0.8343  1.3746  0.6128
  184MOL    H3637002   2.052   4.650   0.574  3.9145  1.7464 -0.2125
  184MOL    H3737003   2.097   4.689   0.418 -1.7615  0.8758 -0.0028
  184MOL    H3837004   2.204   4.467   0.609 -0.5336  1.9271  1.6933
  184MOL    H3937005   2.389   4.300   0.353  0.7820  2.3272  1.1013
  184MOL    H4037006   2.411   4.375   0.510  0.6944 -2.5413  0.7271
  184MOL    H4137007   2.276   4.274   0.494  1.1021  0.8248  2.0105
  184MOL    C4237008   2.329   4.639   0.573  0.5082  0.8231 -0.1089
  184MOL    C4337009   2.311   4.668   0.723  0.2744 -0.2158  0.0204
  184MOL    O4437010   2.327   4.548   0.797  0.0803 -0.1288  0.3906
  184MOL    C4537011   2.229   4.526   0.890 -0.2766 -0.7770 -1.1172
  184MOL    H4637012   2.332   4.724   0.505 -0.4717  0.3110 -0.8141
  184MOL    H4737013   2.429   4.596   0.571  0.4526  0.7274 -1.6725
  184MOL    H4837014   2.207   4.699   0.738 -0.1711 -1.5956 -0.2144
  184MOL    H4937015   2.256   4.443   0.955  1.3207  1.4849  1.1952
  184MOL    H5037016   2.194   4.614   0.943  0.8646 -1.0172  0.0449
  184MOL    H5137017   2.144   4.497   0.828 -0.8587 -1.0390 -0.2000
  184MOL    C5237018   2.413   4.781   0.767  0.2548 -0.2916 -0.1084
  184MOL    C5337019   2.342   4.915   0.815 -0.0733  0.2506 -0.7106
  184MOL    O5437020   2.438   5.001   0.870 -0.8691 -0.1814 -0.9031
  184MOL    C5537021   2.384   5.100   0.952  0.5790 -0.7592 -0.6916
  184MOL    H5637022   2.465   4.814   0.677 -0.4170  0.3913 -0.2534
  184MOL    H5737023   2.492   4.747   0.834 -0.6564 -1.7583  0.2371
  184MOL    H5837024   2.268   4.894   0.893  0.7036  0.5067  0.1035
  184MOL    H5937025   2.360   5.056   1.049  3.6154 -0.4300  0.2501
  184MOL    H6037026   2.455   5.181   0.972 -0.0229 -0.5335  0.6000
  184MOL    H6137027   2.294   5.149   0.915 -0.5387  0.0550  2.8514
  184MOL    C6237028   2.286   5.000   0.695 -0.0408  0.1273  0.2661
  184MOL    C6337029   2.143   4.990   0.652 -0.6066  0.1892  0.8042
  184MOL    O6437030   2.073   4.992   0.773 -0.4717  0.9911 -0.8396
  184MOL    C6537031   1.955   4.908   0.793  0.3110  0.1781  0.2417
  184MOL    H6637032   2.348   4.981   0.607 -2.5231 -1.1424 -1.2403
  184MOL    H6737033   2.304   5.105   0.715  0.3494  0.0698  0.2236
  184MOL    H6837034   2.135   4.894   0.600 -0.1317 -1.0667  2.9895
  184MOL    H6937035   1.986   4.807   0.823 -0.6419 -0.4066 -0.6895
  184MOL    H7037036   1.891   4.946   0.873  1.6983 -0.4351  1.6619
  184MOL    H7137037   1.899   4.892   0.701  2.5268 -1.7524 -0.8433
  184MOL    C7237038   2.106   5.108   0.561 -0.2809 -0.4278 -0.0793
  184MOL    C7337039   2.158   5.098   0.418 -0.2798  0.4531 -0.0636
  184MOL    O7437040   2.091   4.984   0.363  0.0419  0.0469  0.3959
  184MOL    C7537041   2.153   4.914   0.261 -0.4154  0.4962  0.0374
  184MOL    H7637042   2.131   5.201   0.613 -1.0666  0.7798 -1.7905
  184MOL    H7737043   1.998   5.109   0.551 -0.4725  1.6145  1.8137
  184MOL    H7837044   2.265   5.076   0.423 -0.0703  1.3489 -0.4047
  184MOL    H7937045   2.083   4.837   0.229 -0.5173  0.9686 -0.8812
  184MOL    H8037046   2.182   4.959   0.166  2.8176  0.6086  1.0029
  184MOL    H8137047   2.252   4.880   0.295  0.4552  2.1569 -0.7894
  184MOL    C8237048   2.143   5.223   0.333  0.5820 -0.5075  0.4034
  184MOL    C8337049   2.244   5.341   0.362 -0.7753 -0.8333 -0.1338
  184MOL    O8437050   2.357   5.317   0.281  0.5286  0.0444 -0.2454
  184MOL    C8537051   2.483   5.369   0.316 -0.2579 -0.4261 -0.3820
  184MOL    H8637052   2.036   5.243   0.339  0.6073 -0.6742  1.4267
  184MOL    H8737053   2.154   5.190   0.229  2.2255  0.5335  0.2242
  184MOL    H8837054   2.279   5.336   0.466 -0.5461 -1.2432 -0.2311
  184MOL    H8937055   2.472   5.477   0.323 -0.8708 -0.4579 -0.7543
  184MOL    H9037056   2.516   5.331   0.412 -0.0708  2.0542  0.5748
  184MOL    H9137057   2.559   5.347   0.241  1.9432  2.7777  0.8037
  184MOL    C9237058   2.197   5.476   0.315 -0.0187 -0.6384  0.2192
  184MOL    C9337059   2.224   5.589   0.417  0.5727  0.0307  0.1504
  184MOL    O9437060   2.216   5.711   0.345 -0.0610  0.4389 -0.1475
  184MOL    C9537061   2.312   5.814   0.383  0.0705 -0.0571 -0.2332
  184MOL    H9637062   2.093   5.485   0.283 -0.2356  0.3488  1.1776
  184MOL    H9737063   2.254   5.498   0.225 -1.5350 -1.9243 -1.0929
  184MOL    H9837064   2.325   5.572   0.454  1.3173  1.2245 -1.3089
  184MOL    H9937065   2.293   5.901   0.320 -0.7013  0.2241  0.3766
  184MOL   H10037066   2.306   5.842   0.489 -3.2281  2.6285 -1.0301
  184MOL   H10137067   2.414   5.776   0.374 -0.0293 -0.4250  0.2091
  184MOL   C10237068   2.103   5.588   0.519  0.2732 -0.2050  0.0319
  184MOL   C10337069   2.117   5.517   0.654 -0.3823  0.1008  0.5335
  184MOL   O10437070   2.239   5.573   0.708  0.1487 -0.3462 -0.1404
  184MOL   C10537071   2.298   5.507   0.813  0.4805 -0.0791  0.3066
  184MOL   H10637072   2.018   5.545   0.466  1.4082  1.4943 -3.2727
  184MOL   H10737073   2.081   5.693   0.539 -1.3786 -0.5651  0.1934
  184MOL   H10837074   2.127   5.409   0.641  2.3675 -0.1412  3.7879
  184MOL   H10937075   2.234   5.490   0.900  0.8174  0.3712  0.6490
  184MOL   H11037076   2.332   5.415   0.766  1.2660 -0.4522  1.5729
  184MOL   H11137077   2.389   5.556   0.848  0.7466 -0.3465 -0.0134
  184MOL   C11237078   1.999   5.548   0.747  0.1051 -0.1721 -0.6416
  184MOL   C11337079   1.877   5.455   0.727  0.0246  0.1074  0.0769
  184MOL   O11437080   1.904   5.328   0.783  0.1786 -0.4520 -0.9247
  184MOL   C11537081   1.813   5.224   0.732 -0.9587  0.3790 -0.2143
  184MOL   H11637082   1.968   5.652   0.732  0.7783  0.2620  0.8830
  184MOL   H11737083   2.026   5.548   0.853 -0.6985  0.8511 -0.4262
  184MOL   H11837084   1.869   5.432   0.621  0.9191  0.1796 -0.0085
  184MOL   H11937085   1.870   5.132   0.719 -0.3147  0.6865  0.3704
  184MOL   H12037086   1.725   5.203   0.793  1.0527 -1.5745  2.1396
  184MOL   H12137087   1.767   5.244   0.635  0.8869  3.1059 -0.5880
  184MOL   C12237088   1.739   5.516   0.762  0.9389 -0.1731  0.0947
  184MOL   C12337089   1.692   5.644   0.677 -0.1738  0.5567  0.2541
  184MOL   O12437090   1.775   5.761   0.686  0.3054 -0.3810 -0.2427
  184MOL   C12537091   1.756   5.832   0.813  0.4826 -0.3276 -0.1093
  184MOL   H12637092   1.746   5.543   0.867  0.5164 -1.9790  0.5975
  184MOL   H12737093   1.663   5.438   0.754 -0.6947  1.5172 -1.3779
  184MOL   H12837094   1.592   5.658   0.717 -1.0610 -0.5310 -1.4852
  184MOL   H12937095   1.797   5.768   0.891 -0.3727 -0.6262  0.1008
  184MOL   H13037096   1.819   5.919   0.795  1.9774 -1.3895 -0.1283
  184MOL   H13137097   1.654   5.862   0.836  0.6391  0.1011  0.0351
  184MOL   C13237098   1.679   5.628   0.523  0.1775  0.5383  0.1271
  184MOL   C13337099   1.603   5.506   0.483  0.3581 -0.0204 -0.2530
  184MOL   O13437100   1.477   5.507   0.549 -1.1108  0.2806 -0.3235
  184MOL   C13537101   1.437   5.379   0.596  0.4230 -0.3737  0.4357
  184MOL   H13637102   1.779   5.621   0.480 -1.0007  0.3223 -2.7272
  184MOL   H13737103   1.632   5.719   0.485  1.5642  1.3224  0.2514
  184MOL   H13837104   1.664   5.423   0.518  0.8693 -0.4358 -2.0999
  184MOL   H13937105   1.426   5.305   0.517 -0.9998  0.0719  0.2006
  184MOL   H14037106   1.508   5.341   0.670 -2.4433 -5.1876  0.9463
  184MOL   H14137107   1.342   5.387   0.649  1.3620 -0.6124  2.1875
  184MOL   C14237108   1.575   5.498   0.333 -0.8841 -0.6579  0.5440
  184MOL   C14337109   1.683   5.428   0.257  0.7321 -0.2077  0.4855
  184MOL   O14437110   1.805   5.494   0.290 -0.4248  0.4503 -0.6482
  184MOL   C14537111   1.854   5.601   0.200 -0.0527 -0.4429 -0.5975
  184MOL   H14637112   1.557   5.597   0.291 -2.4846  0.1000  2.9285
  184MOL   H14737113   1.487   5.441   0.307 -0.0539 -3.5130  3.6240
  184MOL   H14837114   1.677   5.440   0.149  0.6792  0.6416  0.5758
  184MOL   H14937115   1.881   5.562   0.102  0.9508 -2.6651  0.5278
  184MOL   H15037116   1.777   5.678   0.195 -0.3024 -0.6038  0.5626
  184MOL   H15137117   1.936   5.651   0.250  1.2305 -1.3523 -1.7752
  184MOL   C15237118   1.699   5.283   0.305 -0.4052 -0.6200 -0.4663
  184MOL   C15337119   1.638   5.172   0.209  0.4056 -0.8386 -0.0109
  184MOL   O15437120   1.701   5.048   0.244  0.0456 -0.5098 -1.1085
  184MOL   C15537121   1.813   5.023   0.163  0.7067  0.1157 -0.0740
  184MOL   H15637122   1.663   5.270   0.407  0.0384 -0.5746 -0.3055
  184MOL   H15737123   1.805   5.262   0.314 -0.7080 -0.6406  3.6498
  184MOL   H15837124   1.658   5.184   0.103 -0.2809 -1.3017 -0.1975
  184MOL   H15937125   1.849   4.930   0.207 -2.7333 -1.4679 -0.3829
  184MOL   H16037126   1.786   5.017   0.058 -1.4118 -1.3461  0.5196
  184MOL   H16137127   1.889   5.100   0.177  0.2618  0.4081  0.8228
  184MOL   C16237128   1.486   5.156   0.231 -0.1232 -0.0353 -0.2920
  184MOL   C16337129   1.399   5.241   0.135 -0.1680  0.3423  0.0451
  184MOL   O16437130   1.395   5.183   0.004 -0.4758 -0.3903 -0.4455
  184MOL   C16537131   1.424   5.271   7.709  0.3561  0.1682 -0.7301
  184MOL   H16637132   1.453   5.176   0.333 -0.3392  4.3709 -1.1294
  184MOL   H16737133   1.459   5.052   0.212 -1.4516  0.2040  0.2602
  184MOL   H16837134   1.437   5.343   0.133  1.1922 -0.0887  2.0303
  184MOL   H16937135   1.530   5.295   7.717  0.1291  0.9620  0.0354
  184MOL   H17037136   1.396   5.228   7.613 -1.3015  0.1299 -0.2454
  184MOL   H17137137   1.365   5.361   7.730 -1.5907 -0.9020 -1.5276
  184MOL   C17237138   1.256   5.260   0.198  0.3831 -0.7140  0.0494
  184MOL   C17337139   1.186   5.388   0.149  0.2922 -0.6144 -0.1904
  184MOL   O17437140   1.115   5.362   0.031 -0.3835  0.3478  0.1710
  184MOL   C17537141   1.085   5.475   7.759 -0.3129  0.6559  0.0512
  184MOL   H17637142   1.265   5.265   0.307  0.3525 -0.4308  0.0381
  184MOL   H17737143   1.206   5.165   0.179  0.9406 -1.2124  0.9904
  184MOL   H17837144   1.255   5.471   0.136  2.8347 -2.4221  1.2254
  184MOL   H17937145   1.055   5.558   0.013 -2.9325  0.3868 -0.7656
  184MOL   H18037146   1.175   5.499   7.704  2.0351 -1.4974  2.8048
  184MOL   H18137147   1.004   5.451   7.689  0.0947 -1.7108  0.3354
  184MOL   C18237148   1.078   5.427   0.254  0.1317 -0.1322  0.0794
  184MOL   C18337149   1.126   5.520   0.373  0.8001  0.5449 -0.3151
  184MOL   O18437150   1.177   5.647   0.324 -0.1394 -0.1823  0.1613
  184MOL   C18537151   1.272   5.706   0.410 -0.2266 -0.4615  0.2762
  184MOL   H18637152   1.034   5.332   0.286  1.1978 -0.9726 -0.8946
  184MOL   H18737153   0.989   5.476   0.214  0.4249 -0.3004 -0.7987
  184MOL   H18837154   1.211   5.470   0.420  0.3249 -0.3593 -0.4070
  184MOL   H18937155   1.369   5.664   0.384  0.3562 -0.5884  2.5444
  184MOL   H19037156   1.268   5.815   0.401 -1.3864 -0.6327 -1.5649
  184MOL   H19137157   1.260   5.675   0.513  0.3590 -0.2679  0.4044
  184MOL   C19237158   1.022   5.540   0.483  0.4933 -0.2789 -0.2726
  184MOL   C19337159   1.075   5.488   0.618 -0.0141 -0.4613 -0.3475
  184MOL   O19437160   1.080   5.347   0.603 -0.2277 -0.1607 -0.3744
  184MOL   C19537161   0.960   5.285   0.636  1.0533 -0.8330  0.3381
  184MOL   H19637162   0.927   5.497   0.451  0.6693  0.6259 -2.0168
  184MOL   H19737163   1.011   5.649   0.490 -1.4487 -0.4960  0.4624
  184MOL   H19837164   1.011   5.509   0.704  2.8746  1.6918  1.3459
  184MOL   H19937165   0.884   5.321   0.565  1.6695 -0.3194 -0.0682
  184MOL   H20037166   0.959   5.179   0.612  0.5490 -1.1301  1.6793
  184MOL   H20137167   0.938   5.294   0.742 -1.6938 -2.3404 -0.0458
  184MOL   H20237168   1.168   5.536   0.647  0.9262 -1.4487 -1.6373
  185MOL     C137169   4.790   4.482   3.345 -0.1925  0.1631 -0.0063
  185MOL     C237170   4.733   4.585   3.446 -0.9591  0.2832 -0.3672
  185MOL     O337171   4.833   4.672   3.501 -0.0409  0.2723 -0.1840
  185MOL     C437172   4.903   4.615   3.608 -0.2162  0.0207  0.1389
  185MOL     H537173   4.707   4.425   3.304  0.8669  0.7413 -3.1562
  185MOL     H637174   4.835   4.546   3.269 -0.3748  0.2850 -0.0103
  185MOL     H737175   4.688   4.528   3.527 -1.8099  0.7840 -0.4798
  185MOL     H837176   4.961   4.689   3.664  1.4374 -1.3067  0.2367
  185MOL     H937177   4.848   4.573   3.693  1.5595 -2.6758  0.0361
  185MOL    H1037178   4.965   4.532   3.575  1.0178  1.0346 -0.1586
  185MOL    H1137179   4.860   4.415   3.395  0.2005 -0.8843 -1.8890
  185MOL    C1237180   4.624   4.667   3.388  0.6751  0.3499 -0.0923
  185MOL    C1337181   4.497   4.604   3.323 -0.2929 -0.0083  0.6601
  185MOL    O1437182   4.431   4.560   3.440  0.0708 -0.4739  0.2896
  185MOL    C1537183   4.329   4.463   3.413  0.1504  0.0111 -0.3368
  185MOL    H1637184   4.668   4.742   3.322  1.2224 -0.4082 -0.5946
  185MOL    H1737185   4.598   4.728   3.474 -0.4416 -1.1080  0.6272
  185MOL    H1837186   4.517   4.518   3.259  2.9775  1.6996 -0.6942
  185MOL    H1937187   4.295   4.414   3.504 -1.0279  0.9766 -0.2380
  185MOL    H2037188   4.236   4.505   3.375 -0.2493  0.5589  1.2264
  185MOL    H2137189   4.362   4.387   3.342  1.8350  1.9225 -1.6660
  185MOL    C2237190   4.411   4.707   3.245 -0.5586  0.3340 -0.3331
  185MOL    C2337191   4.468   4.747   3.108 -0.4398 -0.1243 -0.0084
  185MOL    O2437192   4.446   4.629   3.028  0.0639  0.1305  0.5438
  185MOL    C2537193   4.558   4.602   2.947 -0.3846 -0.6567  0.3009
  185MOL    H2637194   4.421   4.799   3.303  1.3089  0.6079 -1.0764
  185MOL    H2737195   4.303   4.691   3.246 -0.2852 -1.8102 -1.8383
  185MOL    H2837196   4.574   4.760   3.127  0.3210 -1.8907 -2.7782
  185MOL    H2937197   4.539   4.507   2.896 -1.3467  0.5139 -1.5933
  185MOL    H3037198   4.564   4.670   2.862 -0.1998 -1.2068 -0.1357
  185MOL    H3137199   4.650   4.602   3.006 -0.1747 -0.1602 -0.0274
  185MOL    C3237200   4.406   4.874   3.046 -0.3583  0.0346 -0.4286
  185MOL    C3337201   4.417   5.004   3.122  0.3155 -0.4021  0.0962
  185MOL    O3437202   4.553   5.030   3.152  1.1591 -0.1163  0.7326
  185MOL    C3537203   4.570   5.120   3.269 -0.2663  0.4052  0.0997
  185MOL    H3637204   4.302   4.850   3.024 -0.0750 -0.9759 -0.6846
  185MOL    H3737205   4.463   4.876   2.953 -1.5996  2.3328 -1.1642
  185MOL    H3837206   4.362   4.982   3.214  0.7521 -3.6084 -0.3690
  185MOL    H3937207   4.530   5.059   3.350 -0.1109 -0.2616 -0.3246
  185MOL    H4037208   4.671   5.152   3.293 -0.2114 -0.0657  0.5051
  185MOL    H4137209   4.506   5.207   3.254  1.0300  0.9569 -2.4463
  185MOL    C4237210   4.359   5.113   3.024  0.6113 -0.0204 -0.2321
  185MOL    C4337211   4.199   5.126   3.033 -0.3677 -0.3353  0.2414
  185MOL    O4437212   4.150   5.123   3.165 -0.5359  0.2338  0.9344
  185MOL    C4537213   4.053   5.014   3.184  0.0876  1.1094  0.3152
  185MOL    H4637214   4.376   5.091   2.919  3.4930  2.4265 -0.3393
  185MOL    H4737215   4.404   5.211   3.041  1.1415 -0.4179  0.7084
  185MOL    H4837216   4.151   5.043   2.981  0.1796  0.4236 -1.5379
  185MOL    H4937217   3.966   5.012   3.118  1.2038 -1.0873 -1.1808
  185MOL    H5037218   4.104   4.919   3.169  0.9477  1.4380  1.1585
  185MOL    H5137219   4.019   5.004   3.287 -0.4555 -0.5486 -0.0040
  185MOL    C5237220   4.150   5.266   2.973  0.4762 -0.2669 -0.0513
  185MOL    C5337221   3.998   5.273   2.940  0.3089 -0.2058 -0.3127
  185MOL    O5437222   3.958   5.400   2.913  0.1709 -0.4971  0.1385
  185MOL    C5537223   3.941   5.486   3.028  0.5547 -0.3434 -0.0149
  185MOL    H5637224   4.205   5.283   2.880  0.0078  1.5234 -0.0034
  185MOL    H5737225   4.180   5.347   3.039  0.2764 -0.5581  0.3983
  185MOL    H5837226   3.948   5.245   3.033  1.8309 -1.7724  0.0532
  185MOL    H5937227   4.000   5.455   3.114  1.0510  0.9759  0.1237
  185MOL    H6037228   3.960   5.592   3.014 -0.5847  0.0580  1.2790
  185MOL    H6137229   3.837   5.473   3.060  1.1505  3.9591  4.1619
  185MOL    C6237230   3.953   5.180   2.825 -0.5541 -0.1371 -0.0540
  185MOL    C6337231   3.807   5.193   2.784 -0.2502 -0.3153 -0.4389
  185MOL    O6437232   3.779   5.118   2.670  0.3779 -0.8548  0.8858
  185MOL    C6537233   3.757   5.204   2.553 -0.5446  0.2975  0.1207
  185MOL    H6637234   3.970   5.073   2.839 -1.3700 -0.1286  1.0628
  185MOL    H6737235   4.007   5.199   2.733  0.8390 -0.6836  0.6400
  185MOL    H6837236   3.772   5.296   2.781  1.2867  0.2162 -0.3054
  185MOL    H6937237   3.758   5.150   2.459  0.0244  0.9297 -0.2372
  185MOL    H7037238   3.664   5.259   2.562  0.2742  1.3795  2.5025
  185MOL    H7137239   3.827   5.284   2.531 -1.2776  0.8317 -0.2848
  185MOL    C7237240   3.718   5.131   2.894 -0.3418 -0.5821 -0.0098
  185MOL    C7337241   3.569   5.154   2.875  0.5648 -0.1157 -0.5504
  185MOL    O7437242   3.504   5.051   2.945 -0.4743  0.0065  0.3219
  185MOL    C7537243   3.467   4.937   2.862 -0.2719  0.8345 -0.4054
  185MOL    H7637244   3.753   5.162   2.993 -1.1471 -1.9986  0.7313
  185MOL    H7737245   3.736   5.024   2.887  1.5980 -0.2102 -1.2037
  185MOL    H7837246   3.533   5.147   2.772 -0.7831  0.3442 -0.1263
  185MOL    H7937247   3.545   4.910   2.791  0.4565  1.2266  0.2334
  185MOL    H8037248   3.441   4.845   2.914 -0.6000  0.8951 -0.4639
  185MOL    H8137249   3.389   4.953   2.788 -0.2105 -0.5478 -0.7772
  185MOL    C8237250   3.530   5.294   2.937  0.0431  0.1984  0.1953
  185MOL    C8337251   3.380   5.336   2.938 -0.1295 -0.4788 -0.3399
  185MOL    O8437252   3.373   5.464   2.995  0.0674  0.2019 -0.3492
  185MOL    C8537253   3.257   5.539   2.998  0.1047  0.0667 -0.5416
  185MOL    H8637254   3.592   5.368   2.886  1.6609 -1.4872 -0.3411
  185MOL    H8737255   3.575   5.298   3.037  1.9848 -0.4753 -0.6213
  185MOL    H8837256   3.317   5.278   3.005 -1.9244  1.3967 -0.3286
  185MOL    H8937257   3.269   5.641   3.037  0.7551 -0.3694  0.4368
  185MOL    H9037258   3.217   5.554   2.898 -1.1056 -0.0701 -0.0910
  185MOL    H9137259   3.183   5.483   3.055 -0.3191  0.0511 -1.1173
  185MOL    C9237260   3.315   5.325   2.798 -0.1022  0.1007  0.7022
  185MOL    C9337261   3.359   5.442   2.699 -1.0257 -0.1519 -0.4431
  185MOL    O9437262   3.487   5.404   2.648 -0.3347 -0.2759  0.0753
  185MOL    C9537263   3.574   5.513   2.631  0.3350  0.3595  1.1034
  185MOL    H9637264   3.206   5.319   2.801 -0.1722 -0.2394 -1.5416
  185MOL    H9737265   3.341   5.230   2.751 -0.5251 -0.1056  0.8788
  185MOL    H9837266   3.365   5.538   2.751 -1.1267  1.0857 -2.6453
  185MOL    H9937267   3.530   5.595   2.574  1.0156  0.8016  1.2114
  185MOL   H10037268   3.603   5.562   2.725  1.7136  1.0846  0.3118
  185MOL   H10137269   3.670   5.476   2.596 -0.6114 -1.6035  0.5171
  185MOL   C10237270   3.263   5.459   2.576 -0.7699  0.7352  0.3293
  185MOL   C10337271   3.121   5.514   2.611 -0.2209 -0.1422 -0.7898
  185MOL   O10437272   3.130   5.654   2.607  0.7942 -0.7523  0.3510
  185MOL   C10537273   3.038   5.716   2.698  0.1887 -0.4073  0.3147
  185MOL   H10637274   3.263   5.357   2.539 -0.2540  0.9932 -0.3841
  185MOL   H10737275   3.304   5.521   2.497 -1.2201  0.1607 -0.3522
  185MOL   H10837276   3.103   5.472   2.710  1.9754 -0.3305 -0.4252
  185MOL   H10937277   2.938   5.686   2.670 -0.3270  1.6542 -0.1122
  185MOL   H11037278   3.056   5.669   2.795  3.6059  2.4076  1.1518
  185MOL   H11137279   3.045   5.824   2.709  0.2313 -0.5129  1.4389
  185MOL   C11237280   3.011   5.468   2.510 -0.3334 -0.3394 -0.2112
  185MOL   C11337281   2.989   5.317   2.491  0.5494  0.3037 -0.4410
  185MOL   O11437282   2.942   5.271   2.623 -0.2606  0.0174  0.0146
  185MOL   C11537283   2.949   5.135   2.655  0.1304 -0.6438 -0.4414
  185MOL   H11637284   3.052   5.511   2.419 -1.8200  1.7151  0.0422
  185MOL   H11737285   2.910   5.508   2.522 -0.2693  0.0740 -1.0562
  185MOL   H11837286   3.080   5.265   2.460 -0.0526 -0.8410 -0.3295
  185MOL   H11937287   2.877   5.073   2.602 -1.9269  0.4044  1.0473
  185MOL   H12037288   3.047   5.095   2.630 -0.2080 -0.7382 -1.6320
  185MOL   H12137289   2.933   5.118   2.762 -3.0972 -3.6279 -1.3169
  185MOL   C12237290   2.884   5.280   2.384 -0.1266  0.6189 -0.2372
  185MOL   C12337291   2.923   5.303   2.238  0.0655 -0.7649  0.9114
  185MOL   O12437292   2.984   5.177   2.207 -0.4473  0.2174  1.3099
  185MOL   C12537293   3.116   5.209   2.160 -0.4393 -0.3411  0.0618
  185MOL   H12637294   2.798   5.345   2.402 -0.2840  0.5990 -0.9111
  185MOL   H12737295   2.853   5.178   2.407 -1.0379  1.1502  0.9615
  185MOL   H12837296   2.987   5.390   2.222  2.7899 -2.7458  0.5374
  185MOL   H12937297   3.163   5.112   2.142  2.4556  1.2295 -1.2422
  185MOL   H13037298   3.118   5.263   2.066 -0.5230  0.6756  0.6427
  185MOL   H13137299   3.174   5.257   2.238  1.3240  0.0014 -1.4255
  185MOL   C13237300   2.798   5.325   2.153 -0.1026  0.9827  0.7045
  185MOL   C13337301   2.826   5.342   1.997  0.4629 -0.6415 -0.7748
  185MOL   O13437302   2.701   5.331   1.923 -0.8350  0.0489  0.2513
  185MOL   C13537303   2.666   5.203   1.884 -0.0755  0.0078 -1.3261
  185MOL   H13637304   2.748   5.411   2.197 -1.6574  1.1748 -1.4120
  185MOL   H13737305   2.729   5.242   2.169  0.6063  0.2404  0.0056
  185MOL   H13837306   2.885   5.254   1.973  1.2209  0.1976 -2.0279
  185MOL   H13937307   2.565   5.225   1.849 -1.1133 -3.7238 -0.8102
  185MOL   H14037308   2.725   5.156   1.806 -0.0928 -0.1968 -1.2163
  185MOL   H14137309   2.644   5.132   1.963  1.2356  0.7435 -0.2758
  185MOL   C14237310   2.905   5.467   1.968  0.4689  0.1244 -0.1384
  185MOL   C14337311   2.922   5.499   1.812 -0.5945 -0.6288  0.7245
  185MOL   O14437312   3.023   5.596   1.789 -0.0989 -0.4134 -0.0990
  185MOL   C14537313   2.976   5.724   1.816 -0.5487  0.2345  0.4748
  185MOL   H14637314   3.004   5.450   2.009  2.2251  0.7158 -3.8484
  185MOL   H14737315   2.860   5.552   2.020  1.1446  1.3255 -1.4628
  185MOL   H14837316   2.827   5.526   1.768 -0.8038 -0.0359  1.5293
  185MOL   H14937317   2.895   5.739   1.746 -0.1370  2.2052  0.3957
  185MOL   H15037318   2.938   5.738   1.917 -2.6493 -0.8807 -0.1411
  185MOL   H15137319   3.046   5.800   1.781 -0.1675  0.1046  0.9418
  185MOL   C15237320   2.969   5.369   1.726  0.4360  0.3960  0.9562
  185MOL   C15337321   2.959   5.382   1.573  0.3619  0.3723  0.0702
  185MOL   O15437322   2.825   5.430   1.531 -0.1704  0.0088  0.6216
  185MOL   C15537323   2.735   5.324   1.518 -0.1734 -0.0063 -0.4366
  185MOL   H15637324   2.914   5.280   1.757 -0.7666  0.9304  0.4073
  185MOL   H15737325   3.070   5.341   1.756 -0.8156 -3.8596  1.5398
  185MOL   H15837326   2.973   5.282   1.531 -1.5570  0.6306 -1.3124
  185MOL   H15937327   2.649   5.347   1.454 -0.3472 -1.5309 -0.7704
  185MOL   H16037328   2.776   5.229   1.484  0.1775 -1.3471  3.5243
  185MOL   H16137329   2.699   5.299   1.617  0.4364  1.7416  0.2506
  185MOL   C16237330   3.060   5.479   1.512  0.2208 -0.0483  0.5718
  185MOL   C16337331   3.072   5.473   1.358 -0.3215  0.0977 -0.2066
  185MOL   O16437332   3.174   5.562   1.325  0.4776 -0.1446  0.8609
  185MOL   C16537333   3.143   5.696   1.286 -0.1236 -0.1166  0.5142
  185MOL   H16637334   3.157   5.465   1.558 -0.3105  0.4574  1.8512
  185MOL   H16737335   3.033   5.582   1.535  0.2961  0.1399 -0.1725
  185MOL   H16837336   2.974   5.472   1.311  0.3606 -0.6712 -1.6444
  185MOL   H16937337   3.116   5.753   1.375 -1.9251  0.0976 -0.1483
  185MOL   H17037338   3.231   5.745   1.244  0.3265 -0.8437  0.6016
  185MOL   H17137339   3.063   5.712   1.214  3.4645 -3.5705 -4.5405
  185MOL   C17237340   3.145   5.344   1.307 -0.2660 -0.0817 -0.3440
  185MOL   C17337341   3.109   5.324   1.156  0.1687  0.9916 -0.1087
  185MOL   O17437342   3.224   5.268   1.092  0.2077 -0.2466  0.0947
  185MOL   C17537343   3.322   5.359   1.030  0.7521 -0.6925  0.0336
  185MOL   H17637344   3.125   5.247   1.353 -0.5553 -0.6597 -1.6563
  185MOL   H17737345   3.254   5.352   1.312 -0.3398 -0.3164  1.9097
  185MOL   H17837346   3.089   5.416   1.101  0.1671 -0.1960 -2.1608
  185MOL   H17937347   3.351   5.444   1.092 -3.7708  0.2576  1.0222
  185MOL   H18037348   3.409   5.313   0.983 -0.7092 -1.4361 -2.0465
  185MOL   H18137349   3.265   5.394   0.944 -0.4568 -1.0441  0.6809
  185MOL   C18237350   2.999   5.221   1.148  0.2701 -0.2304 -0.3169
  185MOL   C18337351   2.928   5.195   1.005  0.6061  0.2781  0.6162
  185MOL   O18437352   2.865   5.069   1.016 -0.2604 -0.5413  0.0051
  185MOL   C18537353   2.892   4.976   0.912 -0.2161  0.5192  0.3683
  185MOL   H18637354   2.922   5.233   1.224  0.0551 -0.9970 -0.4111
  185MOL   H18737355   3.056   5.132   1.173 -0.0463 -0.1282  0.8160
  185MOL   H18837356   3.011   5.187   0.935  0.8398 -0.9506  1.0275
  185MOL   H18937357   2.990   4.977   0.865 -0.2088 -2.5719  0.2025
  185MOL   H19037358   2.880   4.877   0.958  0.7945  0.8964  1.4599
  185MOL   H19137359   2.827   4.987   0.825 -1.5963 -0.7972  1.2055
  185MOL   C19237360   2.814   5.302   0.977 -0.1488  0.1591 -0.2619
  185MOL   C19337361   2.753   5.289   0.835  0.1481 -0.5114  0.1644
  185MOL   O19437362   2.669   5.407   0.816  0.2922 -0.7503 -0.0463
  185MOL   C19537363   2.618   5.402   0.688  0.4992 -0.4384  0.6158
  185MOL   H19637364   2.852   5.402   0.994  0.2138 -0.3493  2.1105
  185MOL   H19737365   2.737   5.301   1.055  0.2543 -0.1170  0.1346
  185MOL   H19837366   2.691   5.199   0.833  1.5992 -1.5289 -2.2872
  185MOL   H19937367   2.565   5.308   0.684 -0.7440  0.3335 -2.0304
  185MOL   H20037368   2.549   5.480   0.655  1.4927 -0.0865 -0.6844
  185MOL   H20137369   2.697   5.416   0.614  0.4206  1.0515  0.7954
  185MOL   H20237370   2.828   5.276   0.757  1.6693  0.5457  1.4232
  186MOL     C137371   1.895   2.457   3.920  1.0529 -0.3104 -0.2074
  186MOL     C237372   1.766   2.524   3.989 -0.5713  0.0537 -0.3039
  186MOL     O337373   1.768   2.659   3.940  0.4770 -0.5312 -0.0550
  186MOL     C437374   1.795   2.764   4.035  0.0875 -0.2220  0.1981
  186MOL     H537375   1.990   2.504   3.947  1.2730  0.1429 -1.7134
  186MOL     H637376   1.892   2.349   3.933 -4.2487 -0.2584 -0.2417
  186MOL     H737377   1.775   2.522   4.098  2.1106 -0.1778 -0.4814
  186MOL     H837378   1.815   2.859   3.984  0.0126 -0.2130  0.1854
  186MOL     H937379   1.719   2.782   4.110  2.3981  0.4339  2.4555
  186MOL    H1037380   1.871   2.742   4.110  0.4783  1.3498  0.2887
  186MOL    H1137381   1.895   2.474   3.812  0.0340  0.4396 -0.0931
  186MOL    C1237382   1.622   2.484   3.944  0.4309 -0.6818 -0.0510
  186MOL    C1337383   1.582   2.337   3.963  0.5304 -0.2143 -0.2514
  186MOL    O1437384   1.548   2.313   4.104 -1.3197  0.2695 -0.0880
  186MOL    C1537385   1.648   2.239   4.162 -0.6159  0.7038  0.1896
  186MOL    H1637386   1.603   2.505   3.838  0.8334  0.6630  0.1362
  186MOL    H1737387   1.561   2.546   4.009 -0.4139 -0.1991 -1.2699
  186MOL    H1837388   1.662   2.268   3.939 -0.3106 -1.3604  0.1857
  186MOL    H1937389   1.629   2.246   4.270  1.4599 -0.2798  0.6357
  186MOL    H2037390   1.644   2.136   4.129  1.8044  0.5454  0.2865
  186MOL    H2137391   1.747   2.282   4.153 -0.9259  1.4264  0.1830
  186MOL    C2237392   1.457   2.308   3.873 -0.7181  0.5471 -0.1253
  186MOL    C2337393   1.378   2.181   3.890  0.7102 -0.1810 -0.2261
  186MOL    O2437394   1.256   2.183   3.810  0.5352  0.4326 -0.5339
  186MOL    C2537395   1.145   2.241   3.888  0.0155 -0.2538  0.0368
  186MOL    H2637396   1.500   2.316   3.773  0.2212  1.3508  0.3372
  186MOL    H2737397   1.388   2.392   3.882 -1.2504  0.2900 -1.6742
  186MOL    H2837398   1.350   2.163   3.993  3.7497  0.3769  0.7594
  186MOL    H2937399   1.046   2.221   3.846  0.2316  0.2024 -0.6930
  186MOL    H3037400   1.140   2.195   3.987 -1.7470  0.6825  0.4134
  186MOL    H3137401   1.149   2.346   3.917 -0.9685 -0.2812  0.3102
  186MOL    C3237402   1.451   2.055   3.835 -0.2167 -0.3577  1.0055
  186MOL    C3337403   1.385   1.920   3.858 -0.8488  0.5968 -0.0184
  186MOL    O3437404   1.457   1.814   3.790  0.1389 -0.1439 -0.4149
  186MOL    C3537405   1.435   1.824   3.653 -0.1735 -0.2460  0.5017
  186MOL    H3637406   1.558   2.045   3.850 -0.0356  0.3064  0.1825
  186MOL    H3737407   1.453   2.064   3.727  2.1432 -0.6987  0.9983
  186MOL    H3837408   1.284   1.918   3.817 -0.1506 -1.4814 -1.7757
  186MOL    H3937409   1.492   1.902   3.602 -0.3517 -0.4112  0.0507
  186MOL    H4037410   1.452   1.727   3.608  1.6820 -0.3779  1.4624
  186MOL    H4137411   1.329   1.840   3.633 -0.3368 -0.8491  0.8798
  186MOL    C4237412   1.386   1.873   4.001  0.8104 -0.1987  0.5613
  186MOL    C4337413   1.305   1.747   4.022  0.5614  0.3941  0.1428
  186MOL    O4437414   1.341   1.701   4.150  0.0934  0.1111 -0.6055
  186MOL    C4537415   1.441   1.600   4.135 -0.7091  0.2912 -0.2349
  186MOL    H4637416   1.359   1.947   4.076  1.6645  0.2021  0.4883
  186MOL    H4737417   1.486   1.853   4.040  0.9234 -0.7541  0.0004
  186MOL    H4837418   1.314   1.661   3.955 -0.8791 -0.1859  0.6711
  186MOL    H4937419   1.495   1.586   4.229  0.2542 -0.9415 -0.9550
  186MOL    H5037420   1.388   1.507   4.115  1.0309 -1.5360  3.2123
  186MOL    H5137421   1.515   1.616   4.056 -0.7861  0.0912 -0.3466
  186MOL    C5237422   1.154   1.768   4.030 -0.0098 -0.0666 -0.2649
  186MOL    C5337423   1.071   1.779   3.900 -0.2507 -0.3535 -0.0339
  186MOL    O5437424   0.978   1.669   3.899 -0.2502 -0.4068 -0.6364
  186MOL    C5537425   1.028   1.561   3.825  0.0724 -0.3367 -1.0159
  186MOL    H5637426   1.145   1.853   4.097  0.3393  0.3279 -0.7152
  186MOL    H5737427   1.108   1.690   4.090 -2.5525  2.2477  0.8787
  186MOL    H5837428   1.127   1.769   3.808 -1.9831 -0.7555 -1.0576
  186MOL    H5937429   1.099   1.502   3.882  0.0345  0.9240  0.3722
  186MOL    H6037430   0.944   1.498   3.794  0.7815 -1.1744 -1.2428
  186MOL    H6137431   1.075   1.587   3.730  1.5284  2.3928  0.3767
  186MOL    C6237432   0.980   1.904   3.895 -0.2250 -0.7438  0.0134
  186MOL    C6337433   0.906   1.911   3.762 -0.3060 -0.4237 -0.4801
  186MOL    O6437434   0.828   2.028   3.764  0.1335  0.0982 -0.3671
  186MOL    C6537435   0.707   2.003   3.832  0.0297 -0.3805 -0.4999
  186MOL    H6637436   1.041   1.993   3.907  1.4649 -1.8238 -0.4469
  186MOL    H6737437   0.928   1.891   3.990  2.0696 -1.0523  1.2663
  186MOL    H6837438   0.845   1.823   3.741  1.1668 -0.9141 -2.7923
  186MOL    H6937439   0.660   1.907   3.807  2.7377 -1.7794 -0.3858
  186MOL    H7037440   0.716   2.000   3.941 -1.6683 -0.2504 -0.3453
  186MOL    H7137441   0.643   2.083   3.796 -0.2718 -0.9209 -1.1833
  186MOL    C7237442   1.002   1.923   3.648 -0.5280 -0.5098  0.1851
  186MOL    C7337443   0.951   1.970   3.514  0.3398  0.8102 -0.0410
  186MOL    O7437444   1.057   1.960   3.421  0.7963 -0.2334 -0.2111
  186MOL    C7537445   1.119   2.089   3.404 -0.0680 -0.1464 -0.0597
  186MOL    H7637446   1.055   1.829   3.633 -0.4780 -0.5112  0.3683
  186MOL    H7737447   1.078   1.989   3.692 -1.2769  0.4210  0.0893
  186MOL    H7837448   0.920   2.074   3.519  0.1842  0.7206  1.1501
  186MOL    H7937449   1.049   2.158   3.357  0.4217  0.6416  0.3376
  186MOL    H8037450   1.156   2.135   3.496 -1.0122  1.7943 -0.6315
  186MOL    H8137451   1.211   2.087   3.345  0.0463 -1.7570  0.1610
  186MOL    C8237452   0.841   1.867   3.466 -0.4167  0.1557 -0.7772
  186MOL    C8337453   0.779   1.898   3.326 -0.5807 -0.1182  0.3585
  186MOL    O8437454   0.689   1.785   3.302 -0.1608  0.0878  0.4343
  186MOL    C8537455   0.738   1.698   3.196 -0.3991  0.4336 -0.3391
  186MOL    H8637456   0.760   1.854   3.538  1.5236  1.0492  1.6123
  186MOL    H8737457   0.888   1.769   3.462  1.5465  1.0395  0.1748
  186MOL    H8837458   0.860   1.907   3.254 -1.4050  1.4749 -0.3995
  186MOL    H8937459   0.689   1.602   3.206 -0.5409  0.3655 -1.5485
  186MOL    H9037460   0.716   1.739   3.097 -0.9725  0.2905 -0.2750
  186MOL    H9137461   0.844   1.680   3.210 -0.4882 -1.0407 -1.4818
  186MOL    C9237462   0.692   2.030   3.314  0.0101  0.3951 -0.7537
  186MOL    C9337463   0.591   2.049   3.194 -0.3479  1.0208  0.3471
  186MOL    O9437464   0.501   2.152   3.229 -0.2979 -0.4816 -0.3545
  186MOL    C9537465   0.395   2.111   3.312 -0.0591  0.6253 -0.3378
  186MOL    H9637466   0.751   2.121   3.310  1.0749 -0.1256  1.9198
  186MOL    H9737467   0.640   2.036   3.410  1.7449  0.4528  0.2170
  186MOL    H9837468   0.540   1.953   3.182 -3.0399  2.2108  1.7452
  186MOL    H9937469   0.320   2.055   3.257  1.6429 -1.2791 -0.7737
  186MOL   H10037470   0.425   2.070   3.408  0.7234  1.0994 -0.3704
  186MOL   H10137471   0.356   2.209   3.339 -0.9548  0.3298 -0.5394
  186MOL   C10237472   0.661   2.075   3.062  0.7546 -0.2358  0.2739
  186MOL   C10337473   0.575   2.080   2.934  0.1106  0.1722  1.1026
  186MOL   O10437474   0.659   2.126   2.831  0.1712 -0.3184  0.0766
  186MOL   C10537475   0.630   2.273   2.805  0.5782 -0.5486  0.3735
  186MOL   H10637476   0.742   2.004   3.053  1.1877  0.1232  1.3166
  186MOL   H10737477   0.697   2.177   3.074 -1.1848  0.2242  2.5825
  186MOL   H10837478   0.487   2.138   2.962 -0.5112 -0.2494  0.0601
  186MOL   H10937479   0.687   2.313   2.721  0.1667  0.5782  0.6268
  186MOL   H11037480   0.524   2.287   2.787  0.8471 -1.5740 -2.2784
  186MOL   H11137481   0.656   2.335   2.890 -0.4110 -1.8568  1.6541
  186MOL   C11237482   0.525   1.945   2.893 -0.3914 -1.1039 -0.4022
  186MOL   C11337483   0.422   1.951   2.788 -0.0731 -0.1947  0.2657
  186MOL   O11437484   0.394   1.816   2.755 -0.9486 -0.6986  0.3315
  186MOL   C11537485   0.421   1.793   2.621  0.4847  0.3926  0.1179
  186MOL   H11637486   0.486   1.903   2.986 -0.1784 -0.2514  0.0766
  186MOL   H11737487   0.604   1.875   2.866 -0.6081 -1.5055 -0.0035
  186MOL   H11837488   0.474   1.999   2.705  1.5534 -0.1266  1.3138
  186MOL   H11937489   0.408   1.688   2.594 -1.9181  0.3403  1.3623
  186MOL   H12037490   0.352   1.847   2.555 -0.4800 -1.5744 -0.5201
  186MOL   H12137491   0.524   1.810   2.590  0.5265 -0.5732 -0.2979
  186MOL   C12237492   0.288   2.013   2.829 -0.0286  0.2996 -0.2012
  186MOL   C12337493   0.164   1.992   2.739  0.8647  0.3891  0.3402
  186MOL   O12437494   0.049   2.018   2.821  0.3714 -0.2448 -0.1043
  186MOL   C12537495   7.805   1.907   2.894  0.6384  0.3200 -0.1257
  186MOL   H12637496   0.305   2.120   2.837  0.2029  0.2762 -0.3886
  186MOL   H12737497   0.268   1.973   2.929 -0.5604 -1.2866 -0.9395
  186MOL   H12837498   0.157   1.891   2.697 -0.9646  1.3128 -1.6293
  186MOL   H12937499   0.063   1.865   2.968 -0.3831 -2.8784 -0.9381
  186MOL   H13037500   7.716   1.934   2.950  0.7589 -1.0905  0.7574
  186MOL   H13137501   7.772   1.828   2.827  1.7822 -0.2210 -0.0560
  186MOL   C13237502   0.158   2.097   2.621  0.2812  0.2165  0.0131
  186MOL   C13337503   0.026   2.086   2.552 -0.2089 -0.3524  0.4533
  186MOL   O13437504   0.010   2.208   2.478 -0.4379 -0.3643  0.5938
  186MOL   C13537505   7.735   2.306   2.545 -0.5371 -0.2525  0.2930
  186MOL   H13637506   0.244   2.089   2.553  0.4910  2.7216 -0.0764
  186MOL   H13737507   0.153   2.187   2.681 -2.6298  0.9055 -1.2085
  186MOL   H13837508   7.747   2.080   2.615 -2.7475 -0.8623 -3.0546
  186MOL   H13937509   7.746   2.401   2.492  1.7377  0.4255  1.9007
  186MOL   H14037510   7.628   2.287   2.541 -0.4024 -0.7222 -1.0989
  186MOL   H14137511   7.776   2.322   2.645  0.3443 -1.6889  0.1794
  186MOL   C14237512   0.016   1.972   2.442  0.4154  0.1847  0.0964
  186MOL   C14337513   7.681   1.937   2.400  0.0826 -0.0981  0.2025
  186MOL   O14437514   7.691   1.866   2.277  0.7247  0.2195 -0.3437
  186MOL   C14537515   7.610   1.909   2.172  0.4126 -0.0969 -0.4805
  186MOL   H14637516   0.064   1.881   2.478  0.0721 -0.5185 -1.1926
  186MOL   H14737517   0.083   1.998   2.360 -0.7099  2.4230 -0.1615
  186MOL   H14837518   7.629   2.032   2.386  1.9248  0.7543 -1.1574
  186MOL   H14937519   7.505   1.898   2.198  0.6682  0.7508  0.9812
  186MOL   H15037520   7.625   2.014   2.149 -0.0060  0.2854  0.9002
  186MOL   H15137521   7.641   1.841   2.093  0.6692  0.5810 -0.9700
  186MOL   C15237522   7.618   1.847   2.511  0.9426 -0.7007  0.2264
  186MOL   C15337523   7.462   1.820   2.512  0.2821 -0.2354 -0.2422
  186MOL   O15437524   7.438   1.728   2.616 -0.0217 -0.3511  0.1745
  186MOL   C15537525   7.328   1.638   2.603 -0.1383  0.1475 -0.6610
  186MOL   H15637526   7.646   1.876   2.612  3.0809 -0.2674 -0.4583
  186MOL   H15737527   7.658   1.747   2.499 -1.2594 -1.5468 -0.2173
  186MOL   H15837528   7.442   1.783   2.411  0.2024 -1.1705  0.1133
  186MOL   H15937529   7.320   1.590   2.505 -0.5418 -1.0766 -0.0438
  186MOL   H16037530   7.329   1.556   2.675  1.3181 -0.0490 -0.8771
  186MOL   H16137531   7.235   1.691   2.624 -0.7526 -0.3468 -2.0328
  186MOL   C16237532   7.387   1.950   2.538  0.0131  0.0049 -0.0461
  186MOL   C16337533   7.264   1.973   2.447 -0.1815 -0.4546 -0.3870
  186MOL   O16437534   7.173   1.869   2.480 -0.3163 -0.4403 -0.1034
  186MOL   C16537535   7.135   1.781   2.372 -0.1050 -0.4914 -0.1989
  186MOL   H16637536   7.452   2.033   2.511  0.7752 -0.7287 -0.4859
  186MOL   H16737537   7.372   1.965   2.645  1.2272 -1.1294  0.2956
  186MOL   H16837538   7.289   1.958   2.342 -0.4621 -2.6953 -0.1618
  186MOL   H16937539   7.063   1.705   2.401 -2.5699  2.2417  1.1876
  186MOL   H17037540   7.080   1.841   2.300 -0.0173 -0.3400 -0.1416
  186MOL   H17137541   7.231   1.743   2.339  0.4395  0.1524  0.6024
  186MOL   C17237542   7.187   2.106   2.478 -0.8048 -0.5128  0.1842
  186MOL   C17337543   7.046   2.124   2.421 -0.1667  0.7309 -0.0776
  186MOL   O17437544   6.990   2.236   2.486 -0.7112 -0.3995  0.2396
  186MOL   C17537545   6.948   2.216   2.620  0.0153  0.5486 -0.6514
  186MOL   H17637546   7.249   2.179   2.427  0.0550 -1.5849 -0.3322
  186MOL   H17737547   7.208   2.130   2.582 -0.1194  0.4415 -0.1736
  186MOL   H17837548   6.989   2.035   2.446 -2.0614  2.2435  1.1912
  186MOL   H17937549   7.022   2.193   2.697  1.2976  0.0924 -2.0034
  186MOL   H18037550   6.893   2.306   2.647  0.4621 -0.2249  3.1571
  186MOL   H18137551   6.862   2.149   2.625  0.4536  0.1111  2.8900
  186MOL   C18237552   7.036   2.145   2.268 -0.3301 -0.5851  0.1684
  186MOL   C18337553   6.896   2.148   2.215  0.3110  0.0544  0.4596
  186MOL   O18437554   6.887   2.223   2.090  0.7213  0.3600 -0.3343
  186MOL   C18537555   6.828   2.354   2.096 -0.3705 -0.2695  0.0489
  186MOL   H18637556   7.093   2.083   2.199 -0.6428 -0.1407 -0.4910
  186MOL   H18737557   7.066   2.249   2.256 -0.7804 -0.5621 -0.7776
  186MOL   H18837558   6.836   2.212   2.280  0.8472  0.5908  0.4335
  186MOL   H18937559   6.870   2.415   2.175 -0.2591  2.3087 -1.9245
  186MOL   H19037560   6.835   2.400   1.997  3.5905  1.1623  0.9341
  186MOL   H19137561   6.719   2.354   2.105 -0.6903  2.5965 -3.0809
  186MOL   C19237562   6.835   2.009   2.184 -0.0675 -0.5909  0.3090
  186MOL   C19337563   6.689   2.009   2.222 -0.1590  0.5875  1.0775
  186MOL   O19437564   6.676   2.031   2.368 -0.1236 -0.2363 -0.5274
  186MOL   C19537565   6.540   2.033   2.402  0.9967 -0.2914  0.3827
  186MOL   H19637566   6.888   1.925   2.229  0.3001  0.3299  1.6093
  186MOL   H19737567   6.851   2.006   2.076  2.0526  2.2431  0.4686
  186MOL   H19837568   6.647   1.915   2.184  0.8829 -0.7527  3.1050
  186MOL   H19937569   6.488   2.107   2.340 -1.7043 -1.8549  0.6962
  186MOL   H20037570   6.491   1.935   2.400  0.3864  0.0189 -0.3186
  186MOL   H20137571   6.523   2.063   2.505  0.9373  1.5359 -0.1449
  186MOL   H20237572   6.639   2.082   2.159 -0.6198 -2.2717 -1.9857
  187MOL     C137573   4.937   6.723   6.185 -0.4002  1.2235  0.2623
  187MOL     C237574   4.868   6.847   6.242  0.1574 -0.0373  0.0978
  187MOL     O337575   4.974   6.941   6.268 -0.1190  0.2255 -0.2277
  187MOL     C437576   4.955   7.054   6.351  0.0360 -0.4004  0.6260
  187MOL     H537577   4.871   6.636   6.188 -1.4348  1.9078 -1.5714
  187MOL     H637578   4.969   6.747   6.083  0.0423  0.7808  0.2947
  187MOL     H737579   4.837   6.819   6.343 -0.7681  1.5092  0.2567
  187MOL     H837580   4.909   7.019   6.443 -0.0112 -1.9905  0.0162
  187MOL     H937581   5.048   7.108   6.368 -0.8549  1.2131  0.4299
  187MOL    H1037582   4.891   7.127   6.301  0.1484 -0.3987  0.4832
  187MOL    H1137583   5.026   6.697   6.242 -0.0343  1.3867 -0.2292
  187MOL    C1237584   4.747   6.906   6.169  0.0612 -0.0820 -0.2125
  187MOL    C1337585   4.631   6.805   6.137 -0.6424  0.5614 -0.1886
  187MOL    O1437586   4.553   6.781   6.250 -0.0126  0.1800  0.3790
  187MOL    C1537587   4.534   6.647   6.271  0.0870 -0.1603  0.2604
  187MOL    H1637588   4.793   6.940   6.076  2.4091 -2.3360  0.0532
  187MOL    H1737589   4.717   6.996   6.223  1.9580 -0.4067  1.4642
  187MOL    H1837590   4.665   6.709   6.098  0.8874  1.6605 -1.6292
  187MOL    H1937591   4.462   6.614   6.196 -1.0393 -1.2032  1.7709
  187MOL    H2037592   4.631   6.596   6.271  0.0404 -0.2647 -1.5930
  187MOL    H2137593   4.485   6.644   6.368 -2.3744 -0.6246 -0.9730
  187MOL    C2237594   4.551   6.865   6.024  1.0552 -0.8750  0.4476
  187MOL    C2337595   4.607   6.852   5.881 -0.0533 -0.5785  0.1247
  187MOL    O2437596   4.636   6.711   5.860  0.2488  0.3307  1.1444
  187MOL    C2537597   4.770   6.696   5.834 -0.4734  0.3552  0.7383
  187MOL    H2637598   4.515   6.966   6.040 -1.1592 -1.5314 -0.2377
  187MOL    H2737599   4.453   6.817   6.020  0.9329 -0.5131 -1.0608
  187MOL    H2837600   4.694   6.915   5.866 -0.1249 -0.5810 -0.3113
  187MOL    H2937601   4.834   6.733   5.914  0.0281  0.3001  0.3637
  187MOL    H3037602   4.805   6.595   5.815 -2.7220 -0.5214  1.1470
  187MOL    H3137603   4.796   6.761   5.750  0.7511  2.4240  2.6490
  187MOL    C3237604   4.499   6.901   5.768 -0.5971 -0.1115 -0.2447
  187MOL    C3337605   4.531   6.861   5.622 -0.3087  0.2982 -0.4720
  187MOL    O3437606   4.416   6.886   5.533  0.0889  0.2550  0.3005
  187MOL    C3537607   4.319   6.788   5.530 -0.4042  0.8671  0.0002
  187MOL    H3637608   4.490   7.009   5.767 -1.0916 -0.1574 -1.4083
  187MOL    H3737609   4.398   6.872   5.798 -0.4385 -0.4106  0.0066
  187MOL    H3837610   4.556   6.755   5.615 -2.3363 -0.3407  1.4284
  187MOL    H3937611   4.265   6.804   5.436 -1.4642  1.1924  0.6528
  187MOL    H4037612   4.354   6.685   5.534 -0.8795  0.6425 -1.2751
  187MOL    H4137613   4.255   6.806   5.617 -0.5570  1.9851 -0.3316
  187MOL    C4237614   4.652   6.931   5.566  0.6303 -0.6374 -0.3385
  187MOL    C4337615   4.703   6.885   5.435  0.5283  0.6690  0.3344
  187MOL    O4437616   4.791   6.983   5.380  0.1780  0.3242  0.1280
  187MOL    C4537617   4.734   7.062   5.280  0.8982  0.3693  0.3322
  187MOL    H4637618   4.733   6.931   5.639 -1.2426  1.9827  1.8226
  187MOL    H4737619   4.612   7.032   5.558  2.1762  0.0442  0.3011
  187MOL    H4837620   4.622   6.865   5.365  1.3570  0.8737 -0.7038
  187MOL    H4937621   4.698   6.998   5.199 -0.2025 -2.0255  2.6562
  187MOL    H5037622   4.640   7.103   5.317  0.4053  1.7514 -2.3536
  187MOL    H5137623   4.805   7.141   5.256 -0.7347  1.7671  0.0099
  187MOL    C5237624   4.793   6.758   5.447  0.0298  0.0196 -0.9842
  187MOL    C5337625   4.826   6.703   5.304 -0.9782  0.2360 -0.2759
  187MOL    O5437626   4.926   6.602   5.318 -0.9325  0.1971 -0.4070
  187MOL    C5537627   5.060   6.654   5.345  0.2371 -0.5453 -0.4452
  187MOL    H5637628   4.740   6.679   5.499  0.4747  0.4418  0.1339
  187MOL    H5737629   4.878   6.770   5.515  0.9124 -1.8453 -1.7226
  187MOL    H5837630   4.865   6.787   5.246 -0.2073 -1.3856 -2.1342
  187MOL    H5937631   5.125   6.567   5.339  1.1097 -0.1008  1.8979
  187MOL    H6037632   5.096   6.737   5.284 -0.5756  0.7305  0.7655
  187MOL    H6137633   5.064   6.697   5.445 -0.5633 -2.6311  0.5229
  187MOL    C6237634   4.716   6.630   5.225  0.2736  0.0546 -0.2465
  187MOL    C6337635   4.742   6.625   5.075 -0.5057 -0.0391 -0.6855
  187MOL    O6437636   4.859   6.547   5.061  0.5798  0.3615 -0.1980
  187MOL    C6537637   4.954   6.621   4.987  0.2512  0.6825 -0.0230
  187MOL    H6637638   4.631   6.695   5.240 -0.0332 -0.7285  1.5784
  187MOL    H6737639   4.684   6.533   5.264  0.8630 -0.6037 -1.3593
  187MOL    H6837640   4.765   6.730   5.053  0.8025 -0.3535 -0.8208
  187MOL    H6937641   4.983   6.710   5.045 -0.4757  2.2642 -2.0238
  187MOL    H7037642   5.045   6.561   4.984 -1.7693 -2.3735 -1.5060
  187MOL    H7137643   4.921   6.636   4.884  1.4583 -2.8263 -0.9804
  187MOL    C7237644   4.619   6.555   5.005  0.0164  0.3396  0.2423
  187MOL    C7337645   4.586   6.611   4.864 -0.1069  0.7976  0.3004
  187MOL    O7437646   4.511   6.516   4.790 -0.1695  0.4097 -0.4176
  187MOL    C7537647   4.588   6.432   4.701  0.3018  0.8013 -0.6698
  187MOL    H7637648   4.528   6.561   5.065 -1.1587 -1.9256 -1.2572
  187MOL    H7737649   4.637   6.448   4.998 -0.7831 -0.1068  4.0093
  187MOL    H7837650   4.674   6.643   4.807  1.9560 -2.0704  1.7298
  187MOL    H7937651   4.525   6.359   4.651  0.0869 -1.6207  2.9646
  187MOL    H8037652   4.619   6.494   4.617  1.4172 -1.3155 -1.8687
  187MOL    H8137653   4.669   6.377   4.750  1.3444  1.4343 -1.6729
  187MOL    C8237654   4.501   6.737   4.853  0.0090 -0.2708 -0.1773
  187MOL    C8337655   4.563   6.870   4.899  0.2027  0.0090  0.5214
  187MOL    O8437656   4.670   6.911   4.811 -0.1751  0.2290  0.0131
  187MOL    C8537657   4.777   6.992   4.854  0.3376 -0.2097  0.2568
  187MOL    H8637658   4.405   6.706   4.895 -0.4237  0.3101 -0.7347
  187MOL    H8737659   4.462   6.748   4.752  1.2386  0.1915 -0.6064
  187MOL    H8837660   4.595   6.856   5.002 -3.4430  1.1964  1.8933
  187MOL    H8937661   4.736   7.073   4.913 -0.6551 -0.8617  0.4688
  187MOL    H9037662   4.855   6.936   4.907 -0.4773  0.1396  1.8411
  187MOL    H9137663   4.818   7.033   4.762 -0.7637 -2.4481 -1.2608
  187MOL    C9237664   4.459   6.984   4.893 -0.8034 -0.5694  0.3836
  187MOL    C9337665   4.338   6.973   4.990  0.9248  0.5376  0.1943
  187MOL    O9437666   4.382   7.026   5.114  0.8308 -0.7202  0.6216
  187MOL    C9537667   4.331   6.977   5.238  0.1873  0.2533 -0.3240
  187MOL    H9637668   4.420   6.982   4.791 -1.5576 -0.7495  0.6734
  187MOL    H9737669   4.507   7.080   4.910 -2.2504 -0.2462  2.7112
  187MOL    H9837670   4.316   6.867   5.004 -0.8182  0.4836 -2.5819
  187MOL    H9937671   4.222   6.969   5.234  0.0878  0.9495  0.7018
  187MOL   H10037672   4.379   6.880   5.251 -0.2621 -0.1936 -1.9260
  187MOL   H10137673   4.355   7.045   5.320  0.3120 -1.6719  1.2712
  187MOL   C10237674   4.200   7.033   4.948 -0.2527  0.0601  0.5130
  187MOL   C10337675   4.205   7.179   4.893 -0.3336 -0.3730 -0.4540
  187MOL   O10437676   4.067   7.204   4.848  0.0635  0.3308 -0.0980
  187MOL   C10537677   4.041   7.173   4.713 -0.7466  0.3128 -0.1282
  187MOL   H10637678   4.121   7.030   5.023  1.0241 -1.4050  1.8438
  187MOL   H10737679   4.164   6.966   4.869 -0.2490  1.7194 -0.9197
  187MOL   H10837680   4.273   7.183   4.808 -1.0000 -1.6070 -1.0443
  187MOL   H10937681   3.940   7.196   4.678 -0.1708  1.1213 -1.2801
  187MOL   H11037682   4.098   7.247   4.657 -0.2748 -0.2824 -0.4375
  187MOL   H11137683   4.076   7.074   4.684 -0.0202  0.7175 -0.6462
  187MOL   C11237684   4.252   7.281   5.001 -0.2384 -0.4483 -0.1157
  187MOL   C11337685   4.269   7.425   4.944  0.0918  0.1077  0.3686
  187MOL   O11437686   4.246   7.519   5.047  0.5677  0.2859 -0.4265
  187MOL   C11537687   4.170   7.626   5.017 -0.2070  0.7428  0.5496
  187MOL   H11637688   4.335   7.255   5.066 -0.1099 -1.0243 -0.4990
  187MOL   H11737689   4.169   7.281   5.071 -1.7747  1.2233 -1.8526
  187MOL   H11837690   4.199   7.445   4.863  1.7870  1.3831 -0.8089
  187MOL   H11937691   4.158   7.699   5.097 -0.3213  1.8219 -0.4303
  187MOL   H12037692   4.216   7.679   4.934  0.2862 -0.2362  0.1895
  187MOL   H12137693   4.070   7.608   4.976  0.5872  1.8591 -1.9524
  187MOL   C12237694   4.406   7.442   4.887  0.2817  0.4813  0.3122
  187MOL   C12337695   4.411   7.536   4.765 -0.4749 -0.2089  0.2150
  187MOL   O12437696   4.542   7.576   4.733  0.1479 -0.4634  0.3550
  187MOL   C12537697   4.603   7.698   4.780  0.8654  0.7594  0.0407
  187MOL   H12637698   4.453   7.346   4.867 -0.2558  0.0913  0.9254
  187MOL   H12737699   4.466   7.476   4.971  1.5989 -0.7803 -0.0977
  187MOL   H12837700   4.339   7.618   4.770  0.8811  0.9569  1.0141
  187MOL   H12937701   4.704   7.705   4.740  0.5480 -1.2027 -1.2059
  187MOL   H13037702   4.550   7.791   4.761 -0.1160  0.3240  0.5554
  187MOL   H13137703   4.615   7.678   4.887  0.6800 -0.9583 -0.2382
  187MOL   C13237704   4.368   7.457   4.639 -0.2117 -0.5298 -0.4563
  187MOL   C13337705   4.306   7.542   4.528 -0.0500  0.6043 -0.2818
  187MOL   O13437706   4.194   7.612   4.584  0.5073 -0.2107 -0.3017
  187MOL   C13537707   4.065   7.561   4.556 -0.8123 -0.0153 -0.2220
  187MOL   H13637708   4.288   7.386   4.660  2.3025 -2.9921  0.9973
  187MOL   H13737709   4.448   7.403   4.590  0.9809  0.8763 -0.1020
  187MOL   H13837710   4.271   7.473   4.452  1.2586 -1.4417  0.9327
  187MOL   H13937711   4.054   7.459   4.593  0.5735  0.6053  1.9241
  187MOL   H14037712   3.991   7.621   4.609 -0.6083 -0.8682  1.0525
  187MOL   H14137713   4.050   7.556   4.448  0.0577  1.5554 -0.4323
  187MOL   C14237714   4.410   7.621   4.444 -0.3952 -0.0533 -1.0094
  187MOL   C14337715   4.354   7.694   4.317  0.3011  0.0518 -0.2080
  187MOL   O14437716   4.398   0.022   4.327 -0.3143  0.1039  0.1964
  187MOL   C14537717   4.302   0.096   4.400 -0.3999 -0.8218 -0.2857
  187MOL   H14637718   4.498   7.558   4.430  0.4879  0.7684  0.6955
  187MOL   H14737719   4.450   7.694   4.515 -1.2459 -1.8234  1.3551
  187MOL   H14837720   4.246   7.697   4.331  0.6523  0.4315  2.8099
  187MOL   H14937721   4.281   0.049   4.496 -2.1485  0.2912 -0.1216
  187MOL   H15037722   4.345   0.195   4.418  0.1854 -1.0728 -0.2724
  187MOL   H15137723   4.212   0.122   4.345 -0.7250 -1.3721 -0.0211
  187MOL   C15237724   4.401   7.617   4.187  0.4878 -0.1655 -0.3211
  187MOL   C15337725   4.321   7.654   4.058 -0.1373 -0.5388  0.7579
  187MOL   O15437726   4.178   7.652   4.060  0.5003 -0.0448  0.0800
  187MOL   C15537727   4.118   7.537   4.108 -0.3064 -0.7949  0.3605
  187MOL   H15637728   4.387   7.511   4.207  0.0561  0.5892  3.7427
  187MOL   H15737729   4.509   7.633   4.176  0.4220  2.2835  2.1744
  187MOL   H15837730   4.350   7.577   3.987  2.1994  0.1512  0.9027
  187MOL   H15937731   4.011   7.549   4.124 -0.1538 -0.0714  0.8652
  187MOL   H16037732   4.100   7.459   4.034 -0.6294  0.9930 -1.4722
  187MOL   H16137733   4.163   7.494   4.198 -0.1720 -2.9436 -0.7041
  187MOL   C16237734   4.357   7.787   3.991 -0.6106 -0.7245  1.0766
  187MOL   C16337735   4.300   7.799   3.845  0.0260 -0.4055 -0.1861
  187MOL   O16437736   4.334   0.124   3.794  0.3077  0.2372  0.1979
  187MOL   C16537737   4.247   0.224   3.844 -0.1886  0.7218 -0.1245
  187MOL   H16637738   4.464   7.798   3.976 -0.6608 -2.8539 -1.1617
  187MOL   H16737739   4.341   0.066   4.051 -0.7917 -1.1459  1.6636
  187MOL   H16837740   4.191   7.798   3.859  0.0499 -1.8190 -0.0718
  187MOL   H16937741   4.228   0.230   3.951  0.0652  1.9025 -0.1440
  187MOL   H17037742   4.284   0.323   3.815  3.4104 -1.0098 -1.8587
  187MOL   H17137743   4.151   0.227   3.793 -0.2756  1.6220  0.0929
  187MOL   C17237744   4.352   7.700   3.742 -0.2521  0.8093 -0.2738
  187MOL   C17337745   4.295   7.702   3.604 -0.0657  0.6915 -0.1867
  187MOL   O17437746   4.397   7.659   3.513  0.3174 -0.6471  0.1610
  187MOL   C17537747   4.484   7.762   3.468 -0.1323  0.8714 -0.0632
  187MOL   H17637748   4.355   7.596   3.774 -0.0934  0.4112 -1.5556
  187MOL   H17737749   4.456   7.734   3.734 -0.0355 -0.0580 -1.1818
  187MOL   H17837750   4.261   7.802   3.573 -0.3606  0.3131 -1.1129
  187MOL   H17937751   4.429   0.031   3.418 -0.6570  0.5971  0.0682
  187MOL   H18037752   4.532   7.796   3.560 -1.4413  0.4807  0.7858
  187MOL   H18137753   4.548   7.718   3.392 -0.1945 -0.0460  0.4053
  187MOL   C18237754   4.164   7.609   3.599  0.2658  0.0113 -0.5004
  187MOL   C18337755   4.112   7.577   3.455  0.0011 -0.1666  0.2496
  187MOL   O18437756   4.006   7.479   3.466  0.1198 -0.0290  0.7039
  187MOL   C18537757   4.065   7.352   3.427 -0.9039  0.7839 -0.0893
  187MOL   H18637758   4.088   7.645   3.669  1.0315  0.7048 -0.0148
  187MOL   H18737759   4.194   7.510   3.631  0.2380  0.1918  0.1051
  187MOL   H18837760   4.198   7.535   3.402  0.1252  0.0403  0.2876
  187MOL   H18937761   3.992   7.276   3.456  0.1321 -0.1665  0.0510
  187MOL   H19037762   4.074   7.352   3.318 -1.7446  2.4577 -0.1723
  187MOL   H19137763   4.156   7.326   3.480 -0.3644  0.2482 -1.2557
  187MOL   C19237764   4.071   7.703   3.371  0.0424 -0.3281  0.2396
  187MOL   C19337765   3.965   7.793   3.425  0.5484 -0.0713  0.3647
  187MOL   O19437766   3.958   0.096   3.338 -1.0010 -0.3738  1.2716
  187MOL   C19537767   3.876   0.192   3.393 -0.1939  0.1940 -0.3084
  187MOL   H19637768   4.023   7.665   3.280 -0.3656 -0.2602  0.4269
  187MOL   H19737769   4.162   7.753   3.339  1.1071 -2.8774 -0.8426
  187MOL   H19837770   3.985   0.034   3.518 -0.8765 -1.0754  1.2480
  187MOL   H19937771   3.878   0.273   3.321 -0.0524 -0.0312 -0.5600
  187MOL   H20037772   3.774   0.167   3.419 -0.0347  0.4348  0.5877
  187MOL   H20137773   3.928   0.238   3.477  1.1462  0.5231 -1.2963
  187MOL   H20237774   3.870   7.743   3.445  0.0863 -0.0496 -1.6527
  188MOL     C137775   6.530   7.496   6.123  0.2832  0.8925 -0.3281
  188MOL     C237776   6.435   7.373   6.145 -0.1961  0.1635  0.7477
  188MOL     O337777   6.533   7.270   6.150  0.5959 -0.0593 -0.2562
  188MOL     C437778   6.526   7.178   6.043  0.3207 -0.4225 -0.3311
  188MOL     H537779   6.479   7.593   6.127 -1.4434 -0.0596  1.1258
  188MOL     H637780   6.607   7.500   6.200 -0.5354  2.3585  0.4383
  188MOL     H737781   6.372   7.346   6.060 -1.5414  2.0401  1.1203
  188MOL     H837782   6.507   7.223   5.946 -1.5296  3.0911  1.5511
  188MOL     H937783   6.621   7.125   6.032 -0.1868 -1.1567 -1.2761
  188MOL    H1037784   6.447   7.106   6.063  0.6079 -0.5185  0.4752
  188MOL    H1137785   6.585   7.492   6.029  0.5104  0.0366 -0.1574
  188MOL    C1237786   6.340   7.389   6.265 -0.4052  0.1699 -0.0337
  188MOL    C1337787   6.284   7.253   6.310  0.3990  0.1895  0.0866
  188MOL    O1437788   6.224   7.256   6.439 -0.7412 -0.1183 -0.5178
  188MOL    C1537789   6.316   7.227   6.543 -0.2373  0.0150  0.2500
  188MOL    H1637790   6.268   7.469   6.252  1.8418  2.2808  0.0933
  188MOL    H1737791   6.387   7.420   6.358 -1.2516 -0.5432  0.6454
  188MOL    H1837792   6.361   7.177   6.300  0.3633  0.4098 -2.2292
  188MOL    H1937793   6.287   7.265   6.641 -2.9344 -1.2301 -0.0258
  188MOL    H2037794   6.324   7.119   6.560  2.5242  0.3142  1.1229
  188MOL    H2137795   6.417   7.265   6.527 -1.1076  2.3370  0.0760
  188MOL    C2237796   6.170   7.211   6.222  0.5246  0.1706  1.0250
  188MOL    C2337797   6.104   7.070   6.224 -0.4450  0.9877 -0.1787
  188MOL    O2437798   6.010   7.042   6.119 -0.4354  0.2385 -0.6229
  188MOL    C2537799   5.898   7.121   6.114 -0.0269  0.2219  0.1406
  188MOL    H2637800   6.194   7.226   6.117  1.0775  0.2482  1.1624
  188MOL    H2737801   6.097   7.285   6.255  0.1328  0.8573 -1.3101
  188MOL    H2837802   6.059   7.057   6.322  0.1002  0.7943  0.0485
  188MOL    H2937803   5.835   7.079   6.193  0.1696 -1.6234 -0.6574
  188MOL    H3037804   5.910   7.229   6.111  2.3129  0.1170  3.1253
  188MOL    H3137805   5.858   7.097   6.016  0.7182 -0.1399 -0.0796
  188MOL    C3237806   6.203   6.953   6.213 -1.2033  0.0718 -0.4196
  188MOL    C3337807   6.149   6.808   6.211 -0.5959 -0.4798  0.0422
  188MOL    O3437808   6.264   6.734   6.176  0.1330  0.2571  1.0805
  188MOL    C3537809   6.237   6.626   6.091  0.8070 -0.3257  0.3516
  188MOL    H3637810   6.269   6.965   6.299  0.2970  1.5952 -1.7619
  188MOL    H3737811   6.257   6.965   6.120  0.9873 -2.3819  0.4771
  188MOL    H3837812   6.080   6.804   6.127 -0.2011 -1.4638 -0.2423
  188MOL    H3937813   6.319   6.555   6.098  1.0541  0.1227  2.3853
  188MOL    H4037814   6.148   6.569   6.115 -1.9287  4.3685  1.9716
  188MOL    H4137815   6.251   6.655   5.987  0.9147  0.2911  0.5367
  188MOL    C4237816   6.090   6.750   6.341  0.2165  0.2739 -0.2639
  188MOL    C4337817   5.939   6.797   6.375  0.0107  0.8185  0.5531
  188MOL    O4437818   5.853   6.713   6.289  0.3688  0.4304  0.1992
  188MOL    C4537819   5.755   6.787   6.217  0.2658  0.8477 -0.0961
  188MOL    H4637820   6.154   6.799   6.414  1.0014 -1.3868  0.1736
  188MOL    H4737821   6.093   6.641   6.337  2.8194  0.3188 -0.1964
  188MOL    H4837822   5.932   6.902   6.347 -1.9458  0.2612 -1.2013
  188MOL    H4937823   5.683   6.724   6.165 -0.1994  0.2092  1.2709
  188MOL    H5037824   5.700   6.854   6.283 -0.0380  0.5289 -0.0261
  188MOL    H5137825   5.802   6.847   6.140  0.6883  0.0805 -0.4477
  188MOL    C5237826   5.905   6.757   6.518  0.4847  0.2333 -0.0474
  188MOL    C5337827   5.967   6.839   6.639 -0.9728 -0.3700  0.3656
  188MOL    O5437828   6.098   6.793   6.669 -0.7034  0.0463  0.0379
  188MOL    C5537829   6.137   6.800   6.808 -0.0150 -0.2717  0.4854
  188MOL    H5637830   5.924   6.651   6.538 -0.0011 -0.1769 -1.7267
  188MOL    H5737831   5.797   6.765   6.529  0.5785  0.7505  0.5555
  188MOL    H5837832   5.892   6.828   6.718 -1.9305  1.0256 -0.3163
  188MOL    H5937833   6.245   6.782   6.814  0.3124  1.8908  1.7515
  188MOL    H6037834   6.116   6.896   6.854 -2.1299  0.0841 -1.1798
  188MOL    H6137835   6.092   6.717   6.862  2.2890 -0.1782  2.6628
  188MOL    C6237836   5.970   6.991   6.613 -0.1602  0.5933 -0.1173
  188MOL    C6337837   5.831   7.043   6.577  0.3098  0.2461  0.2923
  188MOL    O6437838   5.752   7.046   6.683 -0.1182 -0.5218 -0.2665
  188MOL    C6537839   5.616   6.995   6.660 -0.2509  0.3096 -0.9675
  188MOL    H6637840   6.046   7.029   6.545  1.5160 -2.2358  0.0979
  188MOL    H6737841   5.987   7.043   6.707 -0.4446  1.2991 -0.4545
  188MOL    H6837842   5.792   6.970   6.506 -0.0423  0.2041  0.5297
  188MOL    H6937843   5.558   6.988   6.752 -0.6594  2.9776 -0.9683
  188MOL    H7037844   5.553   7.061   6.602  1.4719  3.9232  1.0718
  188MOL    H7137845   5.623   6.895   6.619  0.2467 -0.5421  1.1090
  188MOL    C7237846   5.828   7.172   6.500 -0.3093 -0.3495  0.1334
  188MOL    C7337847   5.894   7.300   6.555  0.0442 -0.1219  0.1234
  188MOL    O7437848   5.873   7.396   6.452 -0.2964  0.3143  0.5302
  188MOL    C7537849   5.974   7.498   6.441 -0.2569  0.0842 -0.6875
  188MOL    H7637850   5.726   7.188   6.465 -0.7063  1.2289  1.8950
  188MOL    H7737851   5.886   7.156   6.409  0.2927  0.4053  0.3694
  188MOL    H7837852   5.999   7.285   6.579 -0.2040  0.6913  1.7996
  188MOL    H7937853   5.970   7.556   6.350  0.2920  2.3708  0.7002
  188MOL    H8037854   5.975   7.577   6.516  1.2068 -0.7628  0.2236
  188MOL    H8137855   6.065   7.439   6.450 -0.8071 -0.4453  1.9166
  188MOL    C8237856   5.823   7.355   6.685  0.3399 -0.1514 -0.2318
  188MOL    C8337857   5.929   7.425   6.778  0.6603 -0.2386 -0.4474
  188MOL    O8437858   5.843   7.484   6.874  0.4070 -0.1227  0.5068
  188MOL    C8537859   5.830   7.627   6.860  0.3366  0.5093 -0.1228
  188MOL    H8637860   5.778   7.276   6.745  1.3726  0.6517  1.6297
  188MOL    H8737861   5.751   7.430   6.653  0.4609 -0.7794 -2.0325
  188MOL    H8837862   5.982   7.502   6.721 -0.9401  2.7932  1.9908
  188MOL    H8937863   5.921   7.685   6.877 -0.1257  1.2057  0.0189
  188MOL    H9037864   5.785   7.640   6.762  1.0052  5.3569  0.0748
  188MOL    H9137865   5.754   7.661   6.931 -0.4393 -0.3666 -0.5329
  188MOL    C9237866   6.033   7.340   6.857 -0.2037 -0.7697  0.2692
  188MOL    C9337867   6.133   7.419   6.941 -0.2888  0.6189 -0.6693
  188MOL    O9437868   6.160   7.328   7.049  0.5210 -0.2623 -0.2238
  188MOL    C9537869   6.066   7.331   7.150 -0.3959 -0.1076 -0.5338
  188MOL    H9637870   6.089   7.274   6.792 -0.8287  0.9330 -2.0756
  188MOL    H9737871   5.970   7.282   6.924  0.0096 -1.4191 -0.0865
  188MOL    H9837872   6.080   7.506   6.980 -1.3555  0.1087 -0.9898
  188MOL    H9937873   6.107   7.250   7.211  1.1812  1.9448  1.2210
  188MOL   H10037874   6.073   7.423   7.207  0.4374 -0.1875 -0.5022
  188MOL   H10137875   5.963   7.302   7.130 -1.2333  0.6128  2.4568
  188MOL   C10237876   6.274   7.456   6.876 -0.3171  0.1763  0.0554
  188MOL   C10337877   6.276   7.591   6.794 -0.3927 -1.1213  0.0618
  188MOL   O10437878   6.340   7.694   6.867  0.2933  0.0003 -0.0891
  188MOL   C10537879   6.256   7.764   6.959 -0.4432  0.4338 -0.0982
  188MOL   H10637880   6.304   7.373   6.811  0.4760  1.3181 -1.0579
  188MOL   H10737881   6.343   7.447   6.959  0.2742 -1.4581 -0.5784
  188MOL   H10837882   6.178   7.623   6.761  0.0471  0.2860  0.0898
  188MOL   H10937883   6.179   0.011   6.908 -0.9206 -1.1992 -1.3054
  188MOL   H11037884   6.203   7.687   7.017 -1.7719  1.9545  0.7413
  188MOL   H11137885   6.308   0.016   7.031  1.6854  0.9453 -2.0416
  188MOL   C11237886   6.364   7.574   6.665 -0.1977 -0.3476  0.5530
  188MOL   C11337887   6.376   7.702   6.572  0.4399 -0.3165  0.1912
  188MOL   O11437888   6.468   7.673   6.473 -0.0458 -0.3335  0.4433
  188MOL   C11537889   6.605   7.671   6.496 -0.0510  0.8475 -0.3000
  188MOL   H11637890   6.322   7.494   6.605 -1.3612  0.0304  0.8512
  188MOL   H11737891   6.466   7.547   6.694 -0.1568  1.3528  2.0485
  188MOL   H11837892   6.407   7.786   6.633 -1.7989  0.4629  0.2899
  188MOL   H11937893   6.638   7.760   6.549 -2.0566  0.3625  1.9296
  188MOL   H12037894   6.632   7.583   6.555 -0.3806  1.2220  0.4225
  188MOL   H12137895   6.670   7.654   6.411 -1.1839 -0.0653 -1.0090
  188MOL   C12237896   6.243   7.746   6.503 -0.1046  0.1192 -0.1774
  188MOL   C12337897   6.247   0.079   6.440  0.5462  0.0520  0.4085
  188MOL   O12437898   6.118   0.108   6.378  0.3448 -0.2962  0.8052
  188MOL   C12537899   6.130   0.195   6.260 -0.5174  0.8224  0.1135
  188MOL   H12637900   6.158   7.731   6.569  0.9469  0.9906  1.4047
  188MOL   H12737901   6.229   7.671   6.425 -0.2976 -0.5393  0.4798
  188MOL   H12837902   6.321   0.078   6.360 -1.0210  1.1934 -1.0788
  188MOL   H12937903   6.208   0.156   6.196 -0.5011  0.8869  0.0931
  188MOL   H13037904   6.033   0.195   6.211 -0.2312  0.6739 -0.4561
  188MOL   H13137905   6.147   0.300   6.284  0.8064  0.5564  0.4071
  188MOL   C13237906   6.296   0.182   6.542  0.4562 -0.5208  0.0604
  188MOL   C13337907   6.447   0.233   6.541 -0.8149  0.1049  0.2374
  188MOL   O13437908   6.490   0.262   6.414  0.3413  0.2770  0.2277
  188MOL   C13537909   6.608   0.201   6.378 -0.7204  0.7988  0.0844
  188MOL   H13637910   6.249   0.158   6.637  1.1473 -2.0698  0.0250
  188MOL   H13737911   6.233   0.263   6.506  1.0941  0.0525  0.2280
  188MOL   H13837912   6.519   0.163   6.584 -2.2558 -1.4867  0.0867
  188MOL   H13937913   6.623   0.264   6.290 -0.8708  0.6159 -0.0724
  188MOL   H14037914   6.694   0.221   6.442  0.3016 -1.8006 -0.4199
  188MOL   H14137915   6.598   0.099   6.342 -1.0440  1.3398 -1.4010
  188MOL   C14237916   6.464   0.368   6.616 -0.5295  0.3324  0.6148
  188MOL   C14337917   6.449   0.355   6.770  0.3245 -0.4291  0.9123
  188MOL   O14437918   6.560   0.274   6.814  0.1595  0.1661  0.7364
  188MOL   C14537919   6.520   0.152   6.879  0.2285 -0.6755 -0.5721
  188MOL   H14637920   6.396   0.445   6.578 -1.0730 -0.0700  0.7697
  188MOL   H14737921   6.561   0.418   6.612 -0.5260  0.2342 -0.5139
  188MOL   H14837922   6.354   0.310   6.796 -0.1747  0.4925  0.7259
  188MOL   H14937923   6.464   0.078   6.821 -1.6390  1.3729 -1.4535
  188MOL   H15037924   6.593   0.095   6.936 -1.6165 -0.7215  1.8591
  188MOL   H15137925   6.457   0.196   6.957  1.5520 -1.6162  1.0678
  188MOL   C15237926   6.461   0.483   6.858 -0.6455 -0.2416  0.2629
  188MOL   C15337927   6.380   0.603   6.800 -0.2311  0.4128 -0.0365
  188MOL   O15437928   6.439   0.668   6.684 -0.3369  0.6252 -0.5608
  188MOL   C15537929   6.561   0.733   6.719 -0.5449 -0.2594  0.2418
  188MOL   H15637930   6.567   0.507   6.870 -0.8294  0.6174  0.2114
  188MOL   H15737931   6.432   0.474   6.962  0.5188  1.7576  0.7968
  188MOL   H15837932   6.373   0.684   6.873  4.5633 -1.6023  2.8758
  188MOL   H15937933   6.555   0.811   6.794 -1.3004  0.0935 -0.1780
  188MOL   H16037934   6.643   0.668   6.750 -0.5699 -1.1002 -1.3950
  188MOL   H16137935   6.600   0.778   6.628  1.4724 -1.2920  0.5580
  188MOL   C16237936   6.231   0.560   6.784 -0.2318 -0.1914  0.1615
  188MOL   C16337937   6.139   0.686   6.807  0.2031 -0.8790 -0.0143
  188MOL   O16437938   6.010   0.642   6.767 -0.3927  0.0098  0.4748
  188MOL   C16537939   5.964   0.685   6.646 -0.5661 -0.2506 -0.2889
  188MOL   H16637940   6.199   0.480   6.852 -1.1081 -1.4675 -1.7149
  188MOL   H16737941   6.224   0.518   6.684  0.8209  0.0349 -0.0136
  188MOL   H16837942   6.172   0.767   6.742 -0.6308  0.7136  1.5193
  188MOL   H16937943   5.962   0.793   6.633  0.4753 -0.5069 -2.9415
  188MOL   H17037944   6.007   0.630   6.562  0.5343 -0.2667  0.2749
  188MOL   H17137945   5.859   0.656   6.640 -0.3632 -0.7571 -1.6230
  188MOL   C17237946   6.131   0.739   6.950  0.2621 -0.1076  0.7126
  188MOL   C17337947   6.037   0.856   6.969 -0.1522  0.5822  0.3015
  188MOL   O17437948   6.051   0.880   7.107  0.1402  0.1225 -0.5964
  188MOL   C17537949   5.932   0.923   7.173 -0.2099 -0.6504 -0.0340
  188MOL   H17637950   6.231   0.750   6.993  1.0121 -1.3541 -0.6698
  188MOL   H17737951   6.094   0.658   7.012  0.7314 -0.3829  0.6315
  188MOL   H17837952   5.938   0.834   6.930  0.6454 -1.3307 -0.6897
  188MOL   H17937953   5.950   0.948   7.277  1.2659 -1.9015  0.0240
  188MOL   H18037954   5.897   1.013   7.122  2.0131  1.4964  2.1332
  188MOL   H18137955   5.857   0.845   7.159  0.0628 -1.1393  1.1577
  188MOL   C18237956   6.089   0.987   6.895 -0.3434  0.3072 -0.1125
  188MOL   C18337957   6.235   1.030   6.916 -0.5582 -0.2439  0.6316
  188MOL   O18437958   6.275   1.119   6.810 -0.1203 -0.0154  0.5873
  188MOL   C18537959   6.288   1.071   6.681 -0.3492 -0.3453  0.7461
  188MOL   H18637960   6.028   1.070   6.928  0.5461  0.8331  0.2326
  188MOL   H18737961   6.066   0.968   6.791  1.3054 -0.8820 -0.3001
  188MOL   H18837962   6.303   0.946   6.926 -1.1955 -0.8652 -0.1436
  188MOL   H18937963   6.391   1.045   6.657 -0.9629  0.3035 -2.9246
  188MOL   H19037964   6.229   0.980   6.669 -0.8975 -0.1856  2.1489
  188MOL   H19137965   6.253   1.144   6.608 -0.2393  0.0740  1.1082
  188MOL   C19237966   6.247   1.120   7.043 -0.3630 -0.6858 -0.0263
  188MOL   C19337967   6.389   1.169   7.086  0.2102 -0.3853  0.5618
  188MOL   O19437968   6.362   1.238   7.207  0.1852 -0.5435 -0.5564
  188MOL   C19537969   6.488   1.291   7.252  0.7554 -0.4250  0.0113
  188MOL   H19637970   6.200   1.074   7.130 -2.7528  2.5193  0.4410
  188MOL   H19737971   6.184   1.207   7.026 -0.9612 -1.2160 -0.5637
  188MOL   H19837972   6.429   1.231   7.006  0.7871 -0.1636  1.0164
  188MOL   H19937973   6.563   1.212   7.248 -1.0211 -2.0516 -1.9841
  188MOL   H20037974   6.526   1.378   7.197 -1.2515  0.5283  0.0859
  188MOL   H20137975   6.473   1.321   7.356 -1.2082 -0.1543 -0.3338
  188MOL   H20237976   6.462   1.091   7.111  0.1403 -1.4055 -2.2693
  189MOL     C137977   4.570   7.469   0.988 -0.5519  0.4340 -0.6983
  189MOL     C237978   4.672   7.543   0.903  0.4361 -0.2432 -1.5079
  189MOL     O337979   4.695   7.677   0.950 -0.3792 -0.8510  0.5386
  189MOL     C437980   4.590   7.762   0.922 -0.4588  0.6795  0.0839
  189MOL     H537981   4.593   7.476   1.094 -0.0524  1.5483 -0.8811
  189MOL     H637982   4.474   7.518   0.973 -0.5807  0.2749 -1.0365
  189MOL     H737983   4.644   7.555   0.798  0.5081 -1.6717 -1.6953
  189MOL     H837984   4.604   0.051   0.963  1.5057 -0.2921  1.8319
  189MOL     H937985   4.585   7.778   0.814  0.1840 -4.0904 -0.7779
  189MOL    H1037986   4.494   7.724   0.958  0.1069  0.6185  1.5680
  189MOL    H1137987   4.563   7.361   0.974 -1.8126  0.4369 -0.1815
  189MOL    C1237988   4.803   7.466   0.883  0.9844  0.1014 -0.1103
  189MOL    C1337989   4.784   7.330   0.816 -0.3765  0.1434  0.3244
  189MOL    O1437990   4.721   7.351   0.691  0.4284 -0.1221  0.1981
  189MOL    C1537991   4.657   7.230   0.648  0.0215 -0.1678  0.0580
  189MOL    H1637992   4.846   7.453   0.982 -1.5719  0.6075  1.1188
  189MOL    H1737993   4.872   7.532   0.831 -1.5189  1.3563 -1.9438
  189MOL    H1837994   4.717   7.265   0.872 -2.2000 -0.8735 -2.9614
  189MOL    H1937995   4.616   7.247   0.548 -3.2684 -3.4543  0.7117
  189MOL    H2037996   4.731   7.156   0.622  0.1254 -0.2046  0.4518
  189MOL    H2137997   4.582   7.194   0.719 -0.9457 -0.2190 -0.9834
  189MOL    C2237998   4.918   7.252   0.795 -0.5707 -0.5086 -0.3280
  189MOL    C2337999   4.979   7.191   0.922  0.0478  0.1656 -0.3275
  189MOL    O2438000   4.897   7.072   0.923  0.9298 -0.3231 -0.1076
  189MOL    C2538001   4.919   6.987   1.042 -0.7915  0.1583 -0.1231
  189MOL    H2638002   4.981   7.330   0.752 -0.1627 -1.0800 -0.7768
  189MOL    H2738003   4.924   7.176   0.718 -2.0673  0.0395 -1.0036
  189MOL    H2838004   4.955   7.249   1.011 -0.2367  1.3820 -1.1831
  189MOL    H2938005   5.006   6.921   1.042  0.4555  1.7515 -2.5433
  189MOL    H3038006   4.939   7.050   1.128 -3.0587 -2.4742  2.4394
  189MOL    H3138007   4.832   6.924   1.063  0.0625 -1.3560 -1.0377
  189MOL    C3238008   5.128   7.167   0.912  0.2348  0.1440 -0.1829
  189MOL    C3338009   5.217   7.296   0.912 -0.9873 -0.7604  0.1405
  189MOL    O3438010   5.181   7.363   1.030 -0.7206  0.0400 -0.5291
  189MOL    C3538011   5.197   7.503   1.020  0.3126 -0.1412  0.4625
  189MOL    H3638012   5.143   7.114   0.818  2.7790  0.8761 -0.2453
  189MOL    H3738013   5.160   7.100   0.993 -1.7321  1.6158  1.8440
  189MOL    H3838014   5.188   7.362   0.829  0.0360 -0.4020  0.0605
  189MOL    H3938015   5.174   7.547   1.117  0.2837  3.0777 -0.9426
  189MOL    H4038016   5.298   7.537   0.993  1.1221 -2.2757  0.7143
  189MOL    H4138017   5.131   7.539   0.941  2.5715 -1.3473 -2.0462
  189MOL    C4238018   5.366   7.264   0.905 -0.5672  0.4998  0.7286
  189MOL    C4338019   5.407   7.190   0.775  0.1557 -0.2843 -0.3108
  189MOL    O4438020   5.328   7.236   0.663  0.4305 -0.3104  0.3937
  189MOL    C4538021   5.288   7.141   0.571  0.2040 -0.0649  0.3841
  189MOL    H4638022   5.395   7.207   0.994  0.6722 -1.2103 -0.7154
  189MOL    H4738023   5.419   7.359   0.915 -0.6197  0.4845  1.1910
  189MOL    H4838024   5.385   7.084   0.774 -1.3616  0.0265 -0.9475
  189MOL    H4938025   5.220   7.198   0.508 -0.0247  0.3848  1.0293
  189MOL    H5038026   5.369   7.095   0.515  0.0663 -4.0060  3.2333
  189MOL    H5138027   5.228   7.063   0.617  0.7777 -0.8082 -0.1210
  189MOL    C5238028   5.558   7.212   0.736  0.1091  0.8892 -0.4875
  189MOL    C5338029   5.667   7.127   0.805 -0.2487  0.3136 -0.4179
  189MOL    O5438030   5.677   7.200   0.928  0.5388  0.1357 -0.0217
  189MOL    C5538031   5.782   7.169   1.008  0.3124 -0.3243 -0.2740
  189MOL    H5638032   5.579   7.319   0.741  0.5217  0.8190 -0.6796
  189MOL    H5738033   5.568   7.184   0.631  0.3957  2.4852 -0.9155
  189MOL    H5838034   5.757   7.131   0.744 -0.4721 -0.4376 -0.8110
  189MOL    H5938035   5.804   7.239   1.088 -0.2722  0.7633 -1.0575
  189MOL    H6038036   5.776   7.064   1.035 -0.8990  0.4352  2.5990
  189MOL    H6138037   5.863   7.183   0.937  1.0570 -2.0702  0.2076
  189MOL    C6238038   5.640   6.976   0.829 -0.1650  0.1548  0.2094
  189MOL    C6338039   5.600   6.897   0.697  0.3518 -0.3691 -0.3194
  189MOL    O6438040   5.721   6.909   0.624 -0.4735 -0.3071 -0.1447
  189MOL    C6538041   5.707   6.929   0.484  0.0407  0.1947  0.1861
  189MOL    H6638042   5.568   6.968   0.911 -0.1991  3.8977  0.6245
  189MOL    H6738043   5.730   6.926   0.864  1.1720  0.6491 -2.4376
  189MOL    H6838044   5.513   6.947   0.655 -0.1949 -0.1747  1.0437
  189MOL    H6938045   5.808   6.939   0.444 -0.2447 -3.3456 -1.6249
  189MOL    H7038046   5.647   6.849   0.442 -1.0385 -0.7161  3.3493
  189MOL    H7138047   5.653   7.023   0.473 -2.1908 -1.0806 -0.0574
  189MOL    C7238048   5.568   6.751   0.717  0.1860  0.5917  0.1319
  189MOL    C7338049   5.424   6.704   0.708  0.0080  0.5825  0.0716
  189MOL    O7438050   5.336   6.800   0.769  0.4903  0.0271  0.3007
  189MOL    C7538051   5.323   6.782   0.916  0.2387  0.3567  0.5744
  189MOL    H7638052   5.615   6.717   0.809  0.1552 -0.1462 -0.1251
  189MOL    H7738053   5.622   6.698   0.639 -0.8789 -2.8312  1.6373
  189MOL    H7838054   5.419   6.602   0.748 -0.5423  1.1895  1.5955
  189MOL    H7938055   5.271   6.868   0.958 -1.8388 -0.1056 -0.9818
  189MOL    H8038056   5.275   6.686   0.935 -0.1654  0.6674  1.1364
  189MOL    H8138057   5.422   6.778   0.961 -0.2222 -1.5335  1.4673
  189MOL    C8238058   5.373   6.697   0.565  0.1140 -0.7270 -0.4213
  189MOL    C8338059   5.226   6.652   0.547  0.6156 -0.2837 -1.1115
  189MOL    O8438060   5.194   6.639   0.414 -0.4956 -0.0671  0.3000
  189MOL    C8538061   5.183   6.759   0.341  0.1946 -0.4269  0.1080
  189MOL    H8638062   5.441   6.635   0.506  0.3879 -0.6050 -0.2356
  189MOL    H8738063   5.379   6.797   0.521 -1.0070  0.2573  1.6127
  189MOL    H8838064   5.158   6.727   0.588 -0.9998 -2.3316  0.0631
  189MOL    H8938065   5.111   6.828   0.384 -0.1517 -0.1095 -0.9643
  189MOL    H9038066   5.284   6.798   0.331  0.1751 -0.6611 -1.1872
  189MOL    H9138067   5.163   6.743   0.235 -0.9026  3.5771 -0.3566
  189MOL    C9238068   5.195   6.512   0.605 -0.1936 -0.0201  0.2117
  189MOL    C9338069   5.295   6.393   0.566  0.1381  0.3209  0.5807
  189MOL    O9438070   5.400   6.388   0.664  0.3057  0.9924 -0.4248
  189MOL    C9538071   5.532   6.377   0.599 -0.4828  0.1133 -0.1540
  189MOL    H9638072   5.091   6.499   0.575 -0.4678  0.2705  1.0235
  189MOL    H9738073   5.201   6.528   0.713  2.7908 -0.1879  0.1114
  189MOL    H9838074   5.323   6.398   0.461  0.3535  1.4682  0.6836
  189MOL    H9938075   5.548   6.272   0.572 -2.1903 -0.4862  1.0310
  189MOL   H10038076   5.554   6.446   0.519 -0.6702  0.7688  0.3568
  189MOL   H10138077   5.607   6.408   0.672  1.1299 -2.5538 -0.6032
  189MOL   C10238078   5.219   6.261   0.584 -0.3983 -0.2158  0.4563
  189MOL   C10338079   5.303   6.136   0.535 -0.7256 -0.1826  0.0732
  189MOL   O10438080   5.228   6.023   0.574 -0.1342 -0.1272 -0.2596
  189MOL   C10538081   5.263   5.978   0.707  0.6316 -0.0677 -0.0193
  189MOL   H10638082   5.127   6.257   0.525 -0.4716 -0.3340  0.5783
  189MOL   H10738083   5.199   6.252   0.691 -0.9352 -2.9541  0.1775
  189MOL   H10838084   5.400   6.124   0.584 -0.4908  1.3446  0.0002
  189MOL   H10938085   5.351   5.915   0.697 -0.4103 -1.3671 -1.3019
  189MOL   H11038086   5.293   6.057   0.776  1.5156 -0.7571  0.4020
  189MOL   H11138087   5.181   5.922   0.754 -0.5158 -0.6277 -2.6236
  189MOL   C11238088   5.323   6.135   0.380  0.4095 -0.1203 -0.9217
  189MOL   C11338089   5.375   6.005   0.310 -0.4479  0.1593  0.2830
  189MOL   O11438090   5.315   6.013   0.178  0.0338 -0.2489 -0.1563
  189MOL   C11538091   5.223   5.915   0.156 -0.7689  0.7351  0.6783
  189MOL   H11638092   5.382   6.219   0.346 -0.7577  1.0720 -0.0696
  189MOL   H11738093   5.223   6.141   0.335  1.0156  1.1055 -2.1320
  189MOL   H11838094   5.348   5.912   0.361  0.5429  0.5627  1.5778
  189MOL   H11938095   5.146   5.910   0.232 -0.3868 -0.1283  1.0096
  189MOL   H12038096   5.178   5.929   0.057  0.1279 -3.4200 -0.3825
  189MOL   H12138097   5.271   5.817   0.157 -1.2346  0.4635 -1.0981
  189MOL   C12238098   5.522   6.007   0.264 -0.3230 -0.6820 -0.1500
  189MOL   C12338099   5.624   6.001   0.381  0.7861 -0.3973  0.4025
  189MOL   O12438100   5.604   5.873   0.448 -0.4299 -0.4973 -0.1130
  189MOL   C12538101   5.613   5.880   0.583 -0.3894 -0.0429 -0.2062
  189MOL   H12638102   5.527   6.095   0.200  0.9479  0.5245  1.5724
  189MOL   H12738103   5.542   5.919   0.204 -1.0564 -1.2453  0.4114
  189MOL   H12838104   5.602   6.090   0.441 -0.1765 -0.6043  0.3622
  189MOL   H12938105   5.718   5.865   0.609 -1.0567 -2.4718  1.2581
  189MOL   H13038106   5.572   5.974   0.620 -0.2478  1.6122 -4.0731
  189MOL   H13138107   5.564   5.798   0.635 -2.0650  1.0117 -0.0606
  189MOL   C13238108   5.772   6.007   0.335  0.4679  0.3566 -0.1939
  189MOL   C13338109   5.790   6.126   0.241 -0.9486  0.5501  0.2368
  189MOL   O13438110   5.755   6.239   0.316 -0.6632 -0.4094  0.6825
  189MOL   C13538111   5.682   6.342   0.244  0.0984  0.2743 -0.5101
  189MOL   H13638112   5.801   5.915   0.283 -0.2540 -0.4502  0.8199
  189MOL   H13738113   5.847   6.005   0.414  1.6354  0.5049 -1.2892
  189MOL   H13838114   5.731   6.124   0.149  0.6025  1.9010 -0.8132
  189MOL   H13938115   5.727   6.373   0.149 -1.2954  0.8576 -0.9951
  189MOL   H14038116   5.581   6.307   0.225  0.7074 -1.3251 -0.8651
  189MOL   H14138117   5.674   6.434   0.301 -0.4572  0.3619 -0.7218
  189MOL   C14238118   5.935   6.145   0.182 -0.1535  0.8088 -0.0497
  189MOL   C14338119   5.975   6.035   0.078  0.0091  0.3400  0.3476
  189MOL   O14438120   5.889   6.060   7.776 -0.4604 -0.1467  0.0878
  189MOL   C14538121   5.800   5.953   7.745 -0.0165 -0.2588 -0.3826
  189MOL   H14638122   6.012   6.136   0.259 -1.0752 -1.3742  0.6382
  189MOL   H14738123   5.947   6.248   0.149 -1.8053  1.7528  2.1663
  189MOL   H14838124   5.961   5.937   0.125 -1.5481  0.2368 -0.3014
  189MOL   H14938125   5.715   5.963   0.001  1.8392  0.2495  1.9964
  189MOL   H15038126   5.770   5.953   7.640 -0.9004  0.7092 -0.1363
  189MOL   H15138127   5.847   5.855   7.750  0.9182  0.2179  0.5121
  189MOL   C15238128   6.124   6.067   0.031 -0.7307 -0.1117 -0.1840
  189MOL   C15338129   6.177   5.971   7.727  0.8296  0.4696  0.4052
  189MOL   O15438130   6.260   6.046   7.642 -0.4263  0.0549  0.1031
  189MOL   C15538131   6.184   6.119   7.545  0.0181 -0.4428 -0.4843
  189MOL   H15638132   6.189   6.071   0.118 -0.1182 -0.9888 -0.5857
  189MOL   H15738133   6.112   6.167   7.800 -1.3931  0.1081  0.5356
  189MOL   H15838134   6.097   5.917   7.677  2.1781 -1.0412 -0.1851
  189MOL   H15938135   6.251   6.146   7.464 -0.1557  3.3922  0.5675
  189MOL   H16038136   6.115   6.049   7.497 -1.0473 -2.0091  3.1226
  189MOL   H16138137   6.127   6.205   7.581  1.7061 -0.1639  1.6702
  189MOL   C16238138   6.267   5.861   7.780  0.5553  0.3291  0.5615
  189MOL   C16338139   6.316   5.755   7.679 -0.2576  0.2291 -1.2096
  189MOL   O16438140   6.443   5.712   7.724 -0.5301  0.0755 -0.3217
  189MOL   C16538141   6.561   5.772   7.667  0.2336 -0.4844  0.1227
  189MOL   H16638142   6.214   5.816   0.054  0.9437 -0.3537  0.4451
  189MOL   H16738143   6.355   5.905   0.017 -1.6310  3.6179  1.7813
  189MOL   H16838144   6.326   5.797   7.579  1.0331  0.4886 -0.9850
  189MOL   H16938145   6.546   5.785   7.559  1.2914  0.3497  0.0723
  189MOL   H17038146   6.567   5.876   7.697 -2.3049  0.6731 -3.0806
  189MOL   H17138147   6.653   5.721   7.694 -0.1306 -1.2552 -0.0434
  189MOL   C17238148   6.233   5.628   7.692  0.4496  0.0572  0.3887
  189MOL   C17338149   6.097   5.637   7.616 -0.1445 -0.2283 -0.7634
  189MOL   O17438150   6.141   5.648   7.482  0.0017 -0.4429 -0.9713
  189MOL   C17538151   6.050   5.693   7.383 -0.2108 -0.4389 -0.8919
  189MOL   H17638152   6.216   5.623   7.800  1.3051  1.8498  0.6230
  189MOL   H17738153   6.297   5.542   7.672 -1.6218 -1.9492  2.1182
  189MOL   H17838154   6.035   5.724   7.639 -1.7115 -0.7569 -2.7509
  189MOL   H17938155   6.010   5.605   7.333  0.0887  0.8297 -3.4589
  189MOL   H18038156   5.968   5.750   7.425  1.1894  0.2909  0.9653
  189MOL   H18138157   6.107   5.749   7.309  0.1515  2.3126  1.3571
  189MOL   C18238158   6.016   5.503   7.634 -0.0245  0.4552  0.0567
  189MOL   C18338159   5.971   5.478   7.783 -0.5456 -0.8156  0.5235
  189MOL   O18438160   5.906   5.597   0.014  0.1294  0.2150 -0.0240
  189MOL   C18538161   5.899   5.610   0.160  0.1623  0.7351  0.7017
  189MOL   H18638162   6.078   5.421   7.599 -0.5546 -0.5989  1.5042
  189MOL   H18738163   5.931   5.490   7.567 -1.7832 -0.5644  2.4020
  189MOL   H18838164   6.061   5.448   0.026 -0.6419 -0.2167  1.0247
  189MOL   H18938165   5.815   5.555   0.200  0.0973  1.0149  0.9496
  189MOL   H19038166   5.997   5.590   0.204  1.0678  2.6724 -0.3559
  189MOL   H19138167   5.873   5.715   0.174 -0.1171  0.6642  0.7059
  189MOL   C19238168   5.873   5.359   7.807 -0.1502 -0.5712 -0.7928
  189MOL   C19338169   5.955   5.231   7.783 -0.5009  0.2057 -1.1466
  189MOL   O19438170   6.048   5.214   0.075 -0.4981 -0.2011  0.2814
  189MOL   C19538171   6.134   5.104   0.059 -0.2574  0.7766 -0.1479
  189MOL   H19638172   5.792   5.374   7.737 -1.7542 -1.3423  0.8587
  189MOL   H19738173   5.846   5.362   0.102  0.5206 -4.3819 -0.4278
  189MOL   H19838174   6.012   5.241   7.690 -0.8729 -2.1736 -1.6841
  189MOL   H19938175   6.083   5.011   0.087  1.0827  0.3994  1.0831
  189MOL   H20038176   6.176   5.093   7.769 -2.6409  1.1873 -1.2286
  189MOL   H20138177   6.211   5.114   0.136  1.0064  0.7930 -1.3947
  189MOL   H20238178   5.891   5.144   7.796 -2.0287  1.4468 -0.2333
  190MOL     C138179   0.869   6.869   1.255  0.6944 -0.5230  0.0959
  190MOL     C238180   0.924   6.727   1.289 -0.1591  0.3010 -0.4224
  190MOL     O338181   0.938   6.711   1.434  0.3768 -0.4929  0.1615
  190MOL     C438182   1.018   6.808   1.496  0.2250 -0.0627 -0.6279
  190MOL     H538183   0.911   6.958   1.302  0.7846 -1.3231  1.5425
  190MOL     H638184   0.867   6.884   1.147  0.5428 -0.2748  0.1335
  190MOL     H738185   1.026   6.715   1.253 -0.2895  0.7580 -0.9508
  190MOL     H838186   1.125   6.808   1.478 -0.0573 -2.0187 -2.5385
  190MOL     H938187   0.976   6.905   1.524 -2.0304 -1.2864  0.3660
  190MOL    H1038188   1.007   6.762   1.594  0.8826  0.9436 -0.0672
  190MOL    H1138189   0.764   6.896   1.266  1.0539  1.2507 -0.6445
  190MOL    C1238190   0.829   6.623   1.237 -0.0803  0.4152  0.5041
  190MOL    C1338191   0.865   6.475   1.271  0.2606  0.1231  0.2368
  190MOL    O1438192   0.763   6.392   1.205  0.3902 -0.9437 -0.3793
  190MOL    C1538193   0.672   6.337   1.290  0.4623  0.2046 -0.3112
  190MOL    H1638194   0.830   6.628   1.129  2.3960  0.6156  0.4904
  190MOL    H1738195   0.729   6.640   1.277 -0.1051 -0.1391  0.6869
  190MOL    H1838196   0.876   6.477   1.379 -0.1833  1.2257  0.2690
  190MOL    H1938197   0.724   6.281   1.367 -1.1338 -0.9824 -0.0781
  190MOL    H2038198   0.610   6.412   1.341 -1.2484 -0.6559 -1.0687
  190MOL    H2138199   0.596   6.287   1.230  1.1300  0.6475 -1.5376
  190MOL    C2238200   1.004   6.420   1.219 -1.5663  0.0026 -0.4871
  190MOL    C2338201   1.046   6.290   1.292  0.1237  0.8197  0.8703
  190MOL    O2438202   1.152   6.237   1.205 -0.3085 -0.5942  0.7359
  190MOL    C2538203   1.122   6.154   1.088 -0.2950 -0.3929 -0.6852
  190MOL    H2638204   1.073   6.503   1.235 -0.2798 -0.9360 -1.1072
  190MOL    H2738205   0.995   6.397   1.113  0.1120  0.8838 -0.8545
  190MOL    H2838206   0.960   6.224   1.290  0.6158  0.1412  1.5927
  190MOL    H2938207   1.077   6.195   0.998  1.3879 -0.4602 -1.5830
  190MOL    H3038208   1.219   6.121   1.050  0.9694  0.5072  1.6197
  190MOL    H3138209   1.060   6.071   1.120 -0.2925 -0.2467 -0.2989
  190MOL    C3238210   1.097   6.329   1.434  0.3499 -0.2956  0.3311
  190MOL    C3338211   1.128   6.206   1.521  0.8429 -0.7343  0.3339
  190MOL    O3438212   1.003   6.145   1.557 -0.7120 -0.0975 -0.0598
  190MOL    C3538213   0.933   6.196   1.669  0.9187  0.2846  0.1737
  190MOL    H3638214   1.022   6.394   1.479  0.4363  0.3531 -0.4515
  190MOL    H3738215   1.191   6.384   1.432  0.7437 -1.0152 -2.4217
  190MOL    H3838216   1.179   6.248   1.608  2.3578  0.0159 -0.8952
  190MOL    H3938217   0.968   6.296   1.692 -1.4607  1.2045 -0.1244
  190MOL    H4038218   0.827   6.198   1.645  0.6179  1.3373  1.5169
  190MOL    H4138219   0.947   6.137   1.760  0.1165 -2.8198 -1.6533
  190MOL    C4238220   1.247   6.113   1.469  0.4603 -0.0351 -0.1998
  190MOL    C4338221   1.389   6.184   1.465  0.9827 -0.3990  0.3808
  190MOL    O4438222   1.416   6.199   1.601 -0.2093  0.1133  0.2479
  190MOL    C4538223   1.508   6.307   1.622 -0.3647  0.3688 -0.1012
  190MOL    H4638224   1.219   6.066   1.374  0.0245  3.0517 -1.6851
  190MOL    H4738225   1.241   6.031   1.540  1.3645  1.5646  1.7510
  190MOL    H4838226   1.384   6.283   1.420  2.1197  0.9972  3.2397
  190MOL    H4938227   1.458   6.404   1.623  0.3901  0.7640  1.5305
  190MOL    H5038228   1.557   6.296   1.719 -0.6499 -3.1435 -0.3141
  190MOL    H5138229   1.589   6.310   1.549 -0.5152  1.1634 -0.2455
  190MOL    C5238230   1.501   6.098   1.405  0.4131 -0.0044 -0.3401
  190MOL    C5338231   1.522   6.132   1.255  0.3224  0.0664  0.6068
  190MOL    O5438232   1.567   6.270   1.244  0.4121 -0.1892 -0.6174
  190MOL    C5538233   1.568   6.319   1.112  0.2882  0.1276 -0.1434
  190MOL    H5638234   1.477   5.992   1.412  2.7808 -0.6374 -1.1549
  190MOL    H5738235   1.594   6.122   1.456  0.0541  1.3773 -0.3227
  190MOL    H5838236   1.429   6.117   1.201  1.3764 -1.6967 -0.7749
  190MOL    H5938237   1.575   6.427   1.116 -2.7171  0.3097  2.0214
  190MOL    H6038238   1.668   6.293   1.078  0.4569 -1.7155  1.6357
  190MOL    H6138239   1.486   6.286   1.048  1.0614 -2.3488  0.0781
  190MOL    C6238240   1.631   6.037   1.209  0.1188  0.6044 -0.2359
  190MOL    C6338241   1.594   5.895   1.169  0.4744  0.6786  0.6962
  190MOL    O6438242   1.539   5.907   1.038  0.3950 -0.5724 -0.0809
  190MOL    C6538243   1.416   5.857   1.014  0.1966  0.1899  0.4449
  190MOL    H6638244   1.710   6.038   1.284  0.6020 -3.8822 -0.5333
  190MOL    H6738245   1.692   6.078   1.128  0.8184 -0.0159 -0.0317
  190MOL    H6838246   1.509   5.855   1.226  0.4916  0.1233  0.3435
  190MOL    H6938247   1.343   5.911   1.074 -1.0164  2.4652 -2.9586
  190MOL    H7038248   1.391   5.860   0.908 -0.4475  0.3674  0.6003
  190MOL    H7138249   1.427   5.753   1.046 -0.3197 -0.2362 -0.7167
  190MOL    C7238250   1.713   5.794   1.158 -0.0236  0.1028 -0.8211
  190MOL    C7338251   1.758   5.756   1.303  0.0240 -0.4941 -0.2880
  190MOL    O7438252   1.640   5.685   1.363 -0.2500 -0.3075  0.3484
  190MOL    C7538253   1.640   5.651   1.498  0.4892  0.4932  0.0964
  190MOL    H7638254   1.796   5.842   1.105  1.1060 -0.6378  0.2378
  190MOL    H7738255   1.679   5.705   1.107 -2.2258  0.1066  0.5941
  190MOL    H7838256   1.770   5.849   1.358 -0.6188 -1.1732  1.0233
  190MOL    H7938257   1.677   5.727   1.566 -0.0270  0.0207  0.9113
  190MOL    H8038258   1.549   5.613   1.543  1.1081 -0.1471  0.8225
  190MOL    H8138259   1.698   5.558   1.501 -0.5685 -0.1769  0.1528
  190MOL    C8238260   1.883   5.664   1.322 -0.0205  0.1733  0.8109
  190MOL    C8338261   2.005   5.673   1.229  0.7590 -0.2191  0.2901
  190MOL    O8438262   2.031   5.810   1.198 -0.0978 -0.2981 -0.0281
  190MOL    C8538263   2.103   5.831   1.081  0.4135 -0.6636  0.3678
  190MOL    H8638264   1.844   5.562   1.322 -1.3209  0.6482  2.0131
  190MOL    H8738265   1.928   5.682   1.420 -1.0267 -0.0224  1.3126
  190MOL    H8838266   1.980   5.634   1.131  1.8713 -1.1313  0.3495
  190MOL    H8938267   2.047   5.807   0.990  0.6572 -2.7032  0.7367
  190MOL    H9038268   2.126   5.937   1.084  0.2459 -0.6408  1.1670
  190MOL    H9138269   2.203   5.789   1.086  0.2466 -1.2683 -1.0570
  190MOL    C9238270   2.129   5.607   1.293 -0.8090 -1.0910  0.2623
  190MOL    C9338271   2.113   5.462   1.318 -0.7473 -0.2977 -0.3007
  190MOL    O9438272   2.129   5.396   1.188  0.2279  0.5420  0.1351
  190MOL    C9538273   2.011   5.326   1.149  0.5630  0.8621  1.0564
  190MOL    H9638274   2.169   5.661   1.379 -1.2233 -1.8038  0.9127
  190MOL    H9738275   2.219   5.624   1.234 -0.3318 -1.9686  0.7229
  190MOL    H9838276   2.019   5.435   1.366  0.7126 -2.5872  1.3462
  190MOL    H9938277   2.023   5.283   1.049 -1.4268 -0.2332  1.2688
  190MOL   H10038278   1.974   5.251   1.220 -2.3066  0.6098 -0.6241
  190MOL   H10138279   1.930   5.398   1.148 -0.4393 -0.2539 -1.4088
  190MOL   C10238280   2.234   5.416   1.407  0.0935  0.0840  0.2435
  190MOL   C10338281   2.239   5.271   1.446  0.4190  0.1777  0.3525
  190MOL   O10438282   2.352   5.258   1.536  0.2202  0.3541  0.0259
  190MOL   C10538283   2.423   5.136   1.530 -0.6612  0.1987 -0.8580
  190MOL   H10638284   2.224   5.470   1.501  1.1555  3.0819 -1.2902
  190MOL   H10738285   2.328   5.455   1.367 -1.4561  1.7084 -1.9917
  190MOL   H10838286   2.257   5.215   1.355  1.6286  1.4024 -0.1794
  190MOL   H10938287   2.493   5.124   1.447 -0.8949 -0.1138 -1.0100
  190MOL   H11038288   2.473   5.136   1.627 -0.8673  1.1592 -0.7417
  190MOL   H11138289   2.354   5.052   1.524  1.1838 -1.4611  0.5051
  190MOL   C11238290   2.107   5.220   1.519 -0.4219  0.5887 -0.1705
  190MOL   C11338291   2.061   5.279   1.653  0.7135  1.0235  1.0074
  190MOL   O11438292   2.000   5.404   1.621  0.4300  0.4986 -0.2191
  190MOL   C11538293   1.999   5.498   1.726  1.0798 -0.0225 -0.2543
  190MOL   H11638294   2.130   5.116   1.542  0.7292  0.7494 -0.5781
  190MOL   H11738295   2.026   5.213   1.446 -1.9322  1.7610  1.3479
  190MOL   H11838296   2.147   5.283   1.719  1.7979  0.4948 -0.3504
  190MOL   H11938297   1.982   5.433   1.812  2.5408 -1.1050 -0.7544
  190MOL   H12038298   2.097   5.545   1.723  0.5505  1.2208  1.2095
  190MOL   H12138299   1.921   5.573   1.714 -1.6488 -2.4157  1.6902
  190MOL   C12238300   1.964   5.179   1.730 -0.5335 -0.1933 -0.5380
  190MOL   C12338301   1.871   5.080   1.652 -0.3201  0.4495 -0.1988
  190MOL   O12438302   1.825   4.987   1.750 -0.4616 -0.2461 -0.0749
  190MOL   C12538303   1.735   4.885   1.706 -0.5821  0.3554  0.2688
  190MOL   H12638304   1.902   5.234   1.800 -1.7513  0.9400 -2.4820
  190MOL   H12738305   2.018   5.116   1.800 -0.1372 -1.4353 -1.9233
  190MOL   H12838306   1.925   5.014   1.584 -2.8239 -0.8388 -0.9965
  190MOL   H12938307   1.686   4.846   1.795  0.3379 -1.9907 -0.1963
  190MOL   H13038308   1.653   4.926   1.647 -0.5355 -1.5863 -1.2346
  190MOL   H13138309   1.793   4.809   1.653  0.3322 -0.3477  2.2153
  190MOL   C13238310   1.763   5.147   1.562 -0.6067  0.1457 -0.7299
  190MOL   C13338311   1.635   5.220   1.617 -0.3940 -0.7071 -0.5589
  190MOL   O13438312   1.699   5.338   1.661  0.3853  0.1069  0.2910
  190MOL   C13538313   1.650   5.398   1.783 -0.3215  0.0943 -0.3605
  190MOL   H13638314   1.736   5.065   1.496  1.4335 -1.0203 -0.1825
  190MOL   H13738315   1.820   5.211   1.495  3.6443 -3.2796 -0.6415
  190MOL   H13838316   1.578   5.165   1.692 -0.4682  0.2082  0.0657
  190MOL   H13938317   1.713   5.487   1.778  2.0275 -1.5205 -0.5360
  190MOL   H14038318   1.544   5.423   1.777  0.0582  1.7144 -0.5617
  190MOL   H14138319   1.669   5.351   1.880 -1.0857 -0.6135 -0.5488
  190MOL   C14238320   1.549   5.254   1.493  0.6481  0.0542  0.1781
  190MOL   C14338321   1.467   5.150   1.423  0.5436 -0.2116  0.2784
  190MOL   O14438322   1.357   5.128   1.515  0.0788  0.0442 -0.7166
  190MOL   C14538323   1.358   4.992   1.563 -0.2358 -0.5053  0.5333
  190MOL   H14638324   1.613   5.307   1.422  1.3317 -2.1991 -0.9341
  190MOL   H14738325   1.468   5.317   1.530  0.0571 -1.3910  1.3512
  190MOL   H14838326   1.535   5.066   1.409  0.0449 -0.7047  0.7558
  190MOL   H14938327   1.272   4.982   1.629 -0.2720 -0.5052  0.4868
  190MOL   H15038328   1.359   4.923   1.479 -0.1869  0.8863 -0.6436
  190MOL   H15138329   1.448   4.964   1.617  0.0838 -3.6640 -1.5071
  190MOL   C15238330   1.432   5.183   1.278  0.3483 -0.3044  0.2588
  190MOL   C15338331   1.340   5.302   1.248 -0.3679 -0.0269 -0.0340
  190MOL   O15438332   1.416   5.417   1.243  0.5062 -0.0094 -0.0348
  190MOL   C15538333   1.337   5.541   1.272 -1.0312 -0.0091  0.4577
  190MOL   H15638334   1.384   5.096   1.234 -2.8904  2.4897 -2.0458
  190MOL   H15738335   1.524   5.190   1.220  0.2673  1.4366  0.3176
  190MOL   H15838336   1.265   5.320   1.325 -0.4108 -2.2169  0.4702
  190MOL   H15938337   1.396   5.623   1.313 -0.7624 -0.4139  0.8860
  190MOL   H16038338   1.302   5.586   1.180  1.1684  3.9401  1.4305
  190MOL   H16138339   1.255   5.528   1.343  1.0566 -1.5790  2.6853
  190MOL   C16238340   1.262   5.283   1.117 -0.2560  0.3166 -0.0272
  190MOL   C16338341   1.164   5.169   1.115  0.2094 -0.5432 -0.1750
  190MOL   O16438342   1.045   5.202   1.184  0.4180  0.0187  0.3644
  190MOL   C16538343   1.045   5.146   1.310  0.0871 -0.1462 -0.6567
  190MOL   H16638344   1.344   5.288   1.045 -0.8051 -2.5335 -0.9423
  190MOL   H16738345   1.200   5.368   1.092  0.7219  0.3623 -2.4124
  190MOL   H16838346   1.201   5.072   1.150  2.4983  0.5328  0.5150
  190MOL   H16938347   1.141   5.135   1.359 -1.1346 -0.9708  1.6722
  190MOL   H17038348   0.983   5.207   1.376  0.8336  0.0292 -0.1233
  190MOL   H17138349   1.010   5.044   1.297 -2.0448  0.1568  2.0773
  190MOL   C17238350   1.124   5.145   0.969  0.9079  0.1949 -0.0008
  190MOL   C17338351   1.193   5.029   0.893  1.0437  0.1503  0.3860
  190MOL   O17438352   1.121   5.005   0.775 -0.1233  0.3289 -0.1609
  190MOL   C17538353   1.002   4.921   0.792  0.0413 -0.8842 -0.5116
  190MOL   H17638354   1.113   5.236   0.909  0.1045  1.3486  1.8518
  190MOL   H17738355   1.020   5.120   0.988  0.7084  1.7292  0.9856
  190MOL   H17838356   1.179   4.937   0.949 -1.3347  1.8783  2.7868
  190MOL   H17938357   0.947   4.922   0.886 -2.4267 -1.0957 -1.9201
  190MOL   H18038358   0.939   4.941   0.706  2.4644 -0.7234 -2.3184
  190MOL   H18138359   1.037   4.818   0.785  3.9980  0.3709 -0.7067
  190MOL   C18238360   1.349   5.064   0.852  1.1621  0.0769 -1.0348
  190MOL   C18338361   1.416   4.952   0.775  0.6979  0.3916  0.6167
  190MOL   O18438362   1.529   5.016   0.719  0.6064  0.5575 -0.1270
  190MOL   C18538363   1.566   4.960   0.593  0.4068 -0.4425  0.1406
  190MOL   H18638364   1.387   5.075   0.954  0.3299  1.0819 -0.8143
  190MOL   H18738365   1.363   5.157   0.798 -1.8755  0.4696 -1.2340
  190MOL   H18838366   1.348   4.912   0.700 -1.2416  0.7791  2.1225
  190MOL   H18938367   1.487   4.941   0.521 -0.6590  0.1583  1.1329
  190MOL   H19038368   1.637   5.034   0.556 -1.0173  1.0189  0.2490
  190MOL   H19138369   1.631   4.874   0.611  0.1244 -0.1627  2.7657
  190MOL   C19238370   1.467   4.848   0.874 -0.1081  0.6001 -0.1105
  190MOL   C19338371   1.546   4.725   0.818  0.1155 -0.1471 -0.2675
  190MOL   O19438372   1.555   4.640   0.931  0.0335  0.1605 -0.2728
  190MOL   C19538373   1.643   4.527   0.899 -0.3083 -0.0090  0.4272
  190MOL   H19638374   1.393   4.807   0.942  2.0986  0.1113  2.0754
  190MOL   H19738375   1.535   4.898   0.943 -0.0822  1.0532 -0.4594
  190MOL   H19838376   1.642   4.754   0.775 -0.3275 -1.6674 -2.3301
  190MOL   H19938377   1.682   4.465   0.979  0.3031 -0.3602 -0.1430
  190MOL   H20038378   1.577   4.464   0.839  0.7703 -0.2285 -0.5554
  190MOL   H20138379   1.726   4.571   0.843 -0.5181  0.0827  0.1844
  190MOL   H20238380   1.482   4.684   0.740 -0.2214  1.8164 -1.0665
  191MOL     C138381   2.132   0.221   7.058  0.1069 -1.1877  0.6446
  191MOL     C238382   2.038   0.248   7.172  0.2729 -0.8361 -0.0307
  191MOL     O338383   2.074   0.141   7.260  0.0329  1.1832 -0.1706
  191MOL     C438384   2.000   0.152   7.383 -0.0949  0.2255  0.1784
  191MOL     H538385   2.139   0.114   7.037  1.4479 -0.6232 -1.9674
  191MOL     H638386   2.104   0.270   6.965  0.4440  0.1064  1.2224
  191MOL     H738387   1.933   0.232   7.150  0.1368 -1.5783  1.0890
  191MOL     H838388   2.035   0.238   7.440 -0.2424  0.3248  0.1190
  191MOL     H938389   1.892   0.150   7.372 -0.1365  0.6843  0.4772
  191MOL    H1038390   2.015   0.063   7.444 -0.1737  1.3694  1.8903
  191MOL    H1138391   2.227   0.267   7.082 -1.7074  3.3053 -0.3595
  191MOL    C1238392   2.069   0.389   7.234 -0.5005 -0.2866 -0.2539
  191MOL    C1338393   1.939   0.476   7.228  0.4241  0.4346 -0.3615
  191MOL    O1438394   1.958   0.596   7.302 -0.2134  0.6364  0.1594
  191MOL    C1538395   1.925   0.574   7.437  0.2920 -0.5116  0.5686
  191MOL    H1638396   2.145   0.439   7.173 -1.4735  0.3464 -0.9641
  191MOL    H1738397   2.123   0.382   7.328  0.6441  0.0991 -0.8663
  191MOL    H1838398   1.854   0.425   7.272 -0.3793  0.6391 -1.6549
  191MOL    H1938399   1.821   0.592   7.463  0.1978  0.1486 -0.2714
  191MOL    H2038400   1.941   0.472   7.473 -0.2500 -0.0362  2.2147
  191MOL    H2138401   1.986   0.643   7.495 -0.0035  0.3766 -0.1815
  191MOL    C2238402   1.898   0.517   7.090 -0.5108  0.4425  0.9317
  191MOL    C2338403   1.996   0.603   6.999 -0.6424 -0.4723  0.1785
  191MOL    O2438404   2.075   0.510   6.924  0.0831 -0.2387  0.7351
  191MOL    C2538405   2.211   0.545   6.907 -0.0124 -0.6472 -0.2288
  191MOL    H2638406   1.809   0.577   7.111 -1.4450 -1.1555  1.6479
  191MOL    H2738407   1.862   0.434   7.029 -0.2331 -0.1086  1.5171
  191MOL    H2838408   2.064   0.661   7.061 -1.0571 -0.9451  1.0817
  191MOL    H2938409   2.251   0.465   6.845  0.4239 -0.4808 -0.1660
  191MOL    H3038410   2.215   0.644   6.860  1.5997 -0.8842 -0.6267
  191MOL    H3138411   2.269   0.557   6.999  2.0774  1.4562 -1.7412
  191MOL    C3238412   1.919   0.691   6.891  0.4544  0.2175 -0.2696
  191MOL    C3338413   1.856   0.823   6.939  0.1353  0.6856 -0.7192
  191MOL    O3438414   1.741   0.788   7.011  0.5689  0.3541 -0.9826
  191MOL    C3538415   1.621   0.787   6.952  0.1403  0.4316 -0.0129
  191MOL    H3638416   1.841   0.624   6.856  1.5143 -1.9984  1.4165
  191MOL    H3738417   1.991   0.718   6.814  0.5682  0.9667  0.0993
  191MOL    H3838418   1.822   0.881   6.853 -1.1577 -1.7676 -1.9267
  191MOL    H3938419   1.541   0.764   7.023  0.0193 -0.2580 -0.3728
  191MOL    H4038420   1.593   0.881   6.903  2.5259  1.7564  1.0967
  191MOL    H4138421   1.620   0.698   6.889  0.9198  1.5671 -1.6521
  191MOL    C4238422   1.943   0.913   7.028 -0.0922  0.2707  0.3731
  191MOL    C4338423   2.074   0.963   6.966  0.3353 -0.5133 -0.3155
  191MOL    O4438424   2.057   0.998   6.828 -0.5500  0.4910  0.2800
  191MOL    C4538425   1.990   1.115   6.790 -0.0319 -0.2834 -0.1751
  191MOL    H4638426   1.975   0.866   7.122  0.1298  1.1578  0.7439
  191MOL    H4738427   1.877   0.995   7.057 -1.5521 -0.9002  0.3954
  191MOL    H4838428   2.138   0.875   6.968  0.7301 -0.2142  0.1079
  191MOL    H4938429   2.031   1.209   6.826 -0.4108 -0.6446  1.2141
  191MOL    H5038430   2.002   1.134   6.683 -0.9175  4.1779  0.4110
  191MOL    H5138431   1.884   1.104   6.811 -0.1319  0.3673 -0.3370
  191MOL    C5238432   2.138   1.072   7.055  0.3434 -0.7913  0.3746
  191MOL    C5338433   2.279   1.122   7.013 -0.2234 -0.2506 -0.0786
  191MOL    O5438434   2.326   1.235   7.087  0.0721 -0.4013 -0.4920
  191MOL    C5538435   2.264   1.354   7.052 -0.2911  0.0680  0.5344
  191MOL    H5638436   2.143   1.041   7.159  1.1712 -0.2651  0.5010
  191MOL    H5738437   2.067   1.155   7.052  1.2359  0.0691  2.0302
  191MOL    H5838438   2.276   1.149   6.908  0.6585 -0.3187 -0.1185
  191MOL    H5938439   2.339   1.432   7.062 -2.5090  2.0931  1.7018
  191MOL    H6038440   2.220   1.349   6.952 -1.4181 -3.1552  1.1212
  191MOL    H6138441   2.194   1.384   7.129  0.7733 -0.9398  1.9252
  191MOL    C6238442   2.387   1.012   7.040 -0.3092 -0.3819  0.2481
  191MOL    C6338443   2.537   1.062   7.032  0.6448  0.4642  0.5316
  191MOL    O6438444   2.622   0.947   7.064  0.5037 -0.6577  0.9112
  191MOL    C6538445   2.622   0.898   7.199 -0.0643  0.6707 -1.0009
  191MOL    H6638446   2.370   0.920   6.984  0.0557  0.1969 -0.8364
  191MOL    H6738447   2.379   0.989   7.146  0.8263  1.9257  0.8605
  191MOL    H6838448   2.551   1.137   7.109  3.0075 -0.2179  0.7951
  191MOL    H6938449   2.537   0.833   7.215  0.1237  0.8877  0.9961
  191MOL    H7038450   2.713   0.839   7.210  0.3251  1.8391  2.7620
  191MOL    H7138451   2.605   0.973   7.276  1.0251  0.7674 -0.8461
  191MOL    C7238452   2.582   1.129   6.904  0.5041  0.0066  0.1422
  191MOL    C7338453   2.730   1.186   6.905  0.0860  0.8257  1.0830
  191MOL    O7438454   2.780   1.209   6.772 -0.2374  0.0243 -0.2777
  191MOL    C7538455   2.779   1.097   6.685  0.0196  0.1808 -0.3277
  191MOL    H7638456   2.522   1.212   6.867 -1.0114 -1.3984 -0.6210
  191MOL    H7738457   2.566   1.048   6.833  1.0337  0.4136 -0.4444
  191MOL    H7838458   2.791   1.109   6.952 -0.2415 -0.0644  0.0863
  191MOL    H7938459   2.848   1.108   6.602 -0.2047 -1.0608 -0.7033
  191MOL    H8038460   2.792   1.002   6.737  0.9015  0.9360  0.8430
  191MOL    H8138461   2.678   1.094   6.642 -0.3537  0.4086  0.5275
  191MOL    C8238462   2.744   1.319   6.980 -0.4691  0.2552 -0.4435
  191MOL    C8338463   2.888   1.358   7.023  0.1712  0.1158 -0.3365
  191MOL    O8438464   2.888   1.475   7.111 -0.5607 -0.3645 -0.2750
  191MOL    C8538465   3.003   1.546   7.093  0.0694 -0.4051  0.0542
  191MOL    H8638466   2.686   1.314   7.072  0.6712 -0.3179  0.2643
  191MOL    H8738467   2.696   1.399   6.923 -1.1976  0.3248  0.2522
  191MOL    H8838468   2.945   1.376   6.932  0.6059 -0.3994 -0.1663
  191MOL    H8938469   2.998   1.584   6.991  0.0114 -0.0617  0.1834
  191MOL    H9038470   3.005   1.630   7.163  1.2570 -0.5493  0.2052
  191MOL    H9138471   3.090   1.481   7.095  0.5037  0.1762  0.1931
  191MOL    C9238472   2.954   1.245   7.110  0.4972 -0.3465  0.1163
  191MOL    C9338473   3.046   1.142   7.033 -0.3259 -0.1141 -0.3066
  191MOL    O9438474   3.161   1.216   7.003 -0.4801  0.0585 -0.1831
  191MOL    C9538475   3.205   1.213   6.873  0.3620  0.2379  1.0541
  191MOL    H9638476   2.876   1.185   7.157 -1.4891  2.0225 -0.0608
  191MOL    H9738477   3.005   1.296   7.191  2.2211 -2.3654  0.3484
  191MOL    H9838478   3.001   1.125   6.935  0.3306 -1.0314 -0.4583
  191MOL    H9938479   3.296   1.271   6.864 -0.0908  0.6020 -1.4492
  191MOL   H10038480   3.231   1.115   6.833  0.7925  2.3767 -4.3405
  191MOL   H10138481   3.129   1.259   6.810 -0.5974 -4.2436 -1.2691
  191MOL   C10238482   3.067   1.015   7.111 -0.5210  0.2929 -0.1404
  191MOL   C10338483   3.148   1.034   7.242  0.0875  0.2475 -0.1823
  191MOL   O10438484   3.074   1.102   7.338 -0.3932  0.5373 -0.5434
  191MOL   C10538485   3.149   1.177   7.431 -0.3030 -0.5873  0.1341
  191MOL   H10638486   3.122   0.955   7.038  1.2357  0.6160  0.8903
  191MOL   H10738487   2.977   0.956   7.132 -0.1776 -0.5058 -0.8735
  191MOL   H10838488   3.245   1.083   7.231  0.5998 -0.2092  1.9993
  191MOL   H10938489   3.166   1.280   7.399  0.0160 -0.5025  0.5744
  191MOL   H11038490   3.090   1.196   7.520 -0.3173  0.3193 -0.0571
  191MOL   H11138491   3.249   1.138   7.449  0.0461 -0.5909 -1.6774
  191MOL   C11238492   3.168   0.889   7.294  0.0064 -0.2195 -0.3472
  191MOL   C11338493   3.268   0.797   7.220  0.3147 -0.8182 -0.0446
  191MOL   O11438494   3.392   0.858   7.230 -0.5392 -0.9568 -0.3173
  191MOL   C11538495   3.478   0.851   7.114  0.3423  0.4317  0.4996
  191MOL   H11638496   3.073   0.835   7.298 -0.1204 -0.0177 -0.6245
  191MOL   H11738497   3.200   0.902   7.397 -1.0412  0.4360 -0.0968
  191MOL   H11838498   3.242   0.796   7.114 -0.6060 -0.7653  0.1755
  191MOL   H11938499   3.496   0.751   7.074 -1.4243  0.6072 -0.7564
  191MOL   H12038500   3.453   0.921   7.035 -0.4750  0.1434  0.5048
  191MOL   H12138501   3.576   0.886   7.149 -0.8983  2.3200  2.2027
  191MOL   C12238502   3.271   0.651   7.274 -0.3181  0.0591 -0.6954
  191MOL   C12338503   3.285   0.641   7.421 -0.0681  0.1801  0.0601
  191MOL   O12438504   3.281   0.512   7.469 -0.5578  0.1124 -0.1155
  191MOL   C12538505   3.150   0.462   7.505  0.0166 -0.3323  0.1227
  191MOL   H12638506   3.345   0.594   7.219  0.1094  0.1430 -0.2120
  191MOL   H12738507   3.174   0.610   7.246 -1.6768  0.8954  2.4709
  191MOL   H12838508   3.196   0.692   7.459 -0.1677  0.7564 -0.9341
  191MOL   H12938509   3.101   0.529   7.577  0.9916  1.0735 -0.4918
  191MOL   H13038510   3.090   0.451   7.415 -0.7324  2.4710  0.2144
  191MOL   H13138511   3.156   0.367   7.558  0.2187 -0.9757 -1.0484
  191MOL   C13238512   3.424   0.675   7.479 -0.4004  1.5656  0.8645
  191MOL   C13338513   3.550   0.605   7.417  1.0570 -0.1862 -0.4791
  191MOL   O13438514   3.658   0.684   7.458 -0.1644  0.2507  1.1708
  191MOL   C13538515   3.758   0.717   7.354  0.0432 -0.7003 -0.3004
  191MOL   H13638516   3.428   0.651   7.585 -0.6792  2.1447  1.0078
  191MOL   H13738517   3.427   0.783   7.477 -0.1195  1.5428 -0.2313
  191MOL   H13838518   3.531   0.615   7.310 -0.6619  1.2686 -0.0678
  191MOL   H13938519   3.807   0.629   7.311  1.5788 -0.1129  0.1956
  191MOL   H14038520   3.704   0.768   7.275  0.7111  1.3504  0.5167
  191MOL   H14138521   3.837   0.783   7.391 -0.1120 -0.6766 -0.0079
  191MOL   C14238522   3.578   0.457   7.440 -0.1859 -0.2601 -0.0692
  191MOL   C14338523   3.539   0.374   7.317  0.6493 -0.1258  0.0911
  191MOL   O14438524   3.627   0.410   7.205 -0.5769  0.0979 -0.0023
  191MOL   C14538525   3.597   0.354   7.078  0.1723  0.3741 -0.0941
  191MOL   H14638526   3.526   0.420   7.529 -1.6148  1.4292 -0.1718
  191MOL   H14738527   3.684   0.444   7.462  0.1833 -0.3066 -1.8498
  191MOL   H14838528   3.437   0.405   7.294  2.3470  3.9807 -2.4730
  191MOL   H14938529   3.594   0.245   7.079 -0.7043  0.3919  2.3804
  191MOL   H15038530   3.495   0.364   7.042 -0.3691  0.1509  1.3372
  191MOL   H15138531   3.663   0.391   7.000  0.7445  0.7797  0.5740
  191MOL   C15238532   3.544   0.223   7.353  0.6216 -0.4794  0.0855
  191MOL   C15338533   3.417   0.183   7.427  0.4748  0.0265  0.3469
  191MOL   O15438534   3.325   0.125   7.333  0.1425  0.0242 -0.1232
  191MOL   C15538535   3.271   0.203   7.231 -0.1632 -0.6083  0.0029
  191MOL   H15638536   3.631   0.209   7.418 -0.2535 -2.1041  0.9280
  191MOL   H15738537   3.561   0.155   7.269 -0.9402 -0.7359 -0.0379
  191MOL   H15838538   3.377   0.271   7.478  0.4072  0.5827 -0.6380
  191MOL   H15938539   3.339   0.259   7.166  1.7617 -0.6737  1.9307
  191MOL   H16038540   3.221   0.142   7.156  0.2247 -0.4774 -0.3655
  191MOL   H16138541   3.200   0.281   7.261  0.7732 -0.1466  1.0568
  191MOL   C16238542   3.443   0.081   7.525  0.1501  0.2625  0.6835
  191MOL   C16338543   3.328   0.045   7.614  0.3612  0.1002  1.2527
  191MOL   O16438544   3.354   7.729   7.676 -0.1911  0.2500 -0.4701
  191MOL   C16538545   3.315   7.616   7.603  0.4423  0.0020  0.1485
  191MOL   H16638546   3.523   0.112   7.592  1.1146  2.2705 -1.3225
  191MOL   H16738547   3.483   7.808   7.469  0.7466 -0.2671  1.8809
  191MOL   H16838548   3.236   0.028   7.558  1.3093  0.6992 -0.5235
  191MOL   H16938549   3.373   7.530   7.637 -0.1076 -0.1049  0.8386
  191MOL   H17038550   3.207   7.598   7.602  0.2678  0.9423  1.4119
  191MOL   H17138551   3.349   7.631   7.500 -0.8908 -0.0909 -0.3149
  191MOL   C17238552   3.300   0.153   7.723  0.1034  0.2217  0.1706
  191MOL   C17338553   3.177   0.122   7.810 -0.1463 -0.6111  0.1694
  191MOL   O17438554   3.194   0.170   0.141 -0.2210 -0.1290 -0.1287
  191MOL   C17538555   3.254   0.079   0.231 -0.1885  0.3051  0.0646
  191MOL   H17638556   3.282   0.245   7.668 -0.2832 -0.1169 -0.2821
  191MOL   H17738557   3.388   0.163   7.787 -1.2760  0.7159  1.9992
  191MOL   H17838558   3.170   0.013   0.004 -1.7773 -0.4951  0.9690
  191MOL   H17938559   3.269   0.126   0.329  0.2269 -0.1110  0.2038
  191MOL   H18038560   3.192   7.800   0.237 -0.0360  0.1762 -0.2991
  191MOL   H18138561   3.355   0.052   0.201 -0.0096  0.4375  0.5372
  191MOL   C18238562   3.042   0.174   7.747 -0.1616 -0.0937 -0.6199
  191MOL   C18338563   2.910   0.147   0.012  0.0911  0.4777  0.1461
  191MOL   O18438564   2.805   0.230   7.762  0.8674 -0.2550 -0.4101
  191MOL   C18538565   2.807   0.363   7.801 -0.0526  0.5779  0.2177
  191MOL   H18638566   3.025   0.131   7.648 -1.4956  2.7515 -1.6835
  191MOL   H18738567   3.057   0.280   7.729 -2.4369  0.2176 -0.8576
  191MOL   H18838568   2.924   0.183   0.114  0.7268  2.8436 -0.7273
  191MOL   H18938569   2.826   0.376   0.097  3.3525  1.1599 -0.4005
  191MOL   H19038570   2.891   0.411   7.751  0.9407 -0.0361  1.2770
  191MOL   H19138571   2.710   0.408   7.781 -0.5818 -0.5486  0.2270
  191MOL   C19238572   2.858   0.002   0.014 -0.5300  0.0349  0.1940
  191MOL   C19338573   2.719   7.803   0.080  0.2340 -0.7990  0.5176
  191MOL   O19438574   2.707   7.683   0.150  0.1049  0.4102  0.5310
  191MOL   C19538575   2.602   7.672   0.239  0.1440  0.5376  1.0018
  191MOL   H19638576   2.928   7.759   0.079 -1.3692 -0.9377  0.3103
  191MOL   H19738577   2.853   7.773   7.723  1.4860 -0.3729  0.2262
  191MOL   H19838578   2.640   7.804   0.005  0.3430 -0.7881  0.4032
  191MOL   H19938579   2.503   7.676   0.194  0.1059 -1.0206  0.9435
  191MOL   H20038580   2.614   7.568   0.270 -0.2623  0.5033  1.0413
  191MOL   H20138581   2.615   7.741   0.322  5.1810  0.5099  0.3794
  191MOL   H20238582   2.685   0.078   0.139 -1.7851  0.3449 -2.1741
  192MOL     C138583   6.478   7.722   7.227 -0.4757  0.0850 -0.6713
  192MOL     C238584   6.355   7.664   7.307  0.4399  0.4018  0.5419
  192MOL     O338585   6.390   7.545   7.387  0.1641  0.5251 -0.1484
  192MOL     C438586   6.423   7.433   7.309 -0.2202  0.0558 -0.3282
  192MOL     H538587   6.510   7.670   7.136  1.1175  1.4571 -0.9258
  192MOL     H638588   6.453   0.012   7.193 -2.3724 -0.3019 -0.4429
  192MOL     H738589   6.279   7.634   7.235  0.1775 -0.6256  1.2403
  192MOL     H838590   6.524   7.443   7.269  0.0615 -1.1017  0.0566
  192MOL     H938591   6.455   7.353   7.376  1.5721  0.0650 -1.1591
  192MOL    H1038592   6.348   7.400   7.237  0.5937  0.5221 -1.4028
  192MOL    H1138593   6.567   7.728   7.289 -1.2659  0.7542  0.4065
  192MOL    C1238594   6.297   7.766   7.406  0.7439 -0.0326 -0.0844
  192MOL    C1338595   6.159   7.736   7.460 -0.0192 -0.2296  0.6258
  192MOL    O1438596   6.121   0.036   7.545 -0.0186  0.6428 -0.1634
  192MOL    C1538597   6.190   0.034   7.666 -0.1126 -0.1296  0.2847
  192MOL    H1638598   6.296   0.046   7.346  0.2178 -1.3929 -2.1784
  192MOL    H1738599   6.371   7.791   7.482  0.5260  0.0890  0.0878
  192MOL    H1838600   6.168   7.644   7.518 -2.5125  0.5708  2.3482
  192MOL    H1938601   6.297   0.057   7.664 -0.3091  0.7825 -0.9099
  192MOL    H2038602   6.150   0.116   7.726  0.2630  0.2021  0.0886
  192MOL    H2138603   6.174   7.760   7.732  2.4969 -0.1303  0.9689
  192MOL    C2238604   6.045   7.717   7.354  0.0546  0.0469  0.3609
  192MOL    C2338605   5.994   0.035   7.290  0.2047  0.0302 -0.1604
  192MOL    O2438606   6.095   0.072   7.197 -0.5524  0.0354 -0.1365
  192MOL    C2538607   6.142   0.200   7.220  0.1706  0.2003 -0.1346
  192MOL    H2638608   5.968   7.667   7.412  2.2592 -1.6076  1.9878
  192MOL    H2738609   6.078   7.651   7.274  0.0226 -1.1057  1.2801
  192MOL    H2838610   5.977   0.108   7.369  0.7533 -0.9267  0.8556
  192MOL    H2938611   6.229   0.218   7.157  0.3720  2.6329  0.7873
  192MOL    H3038612   6.061   0.271   7.203  0.3086  0.6622  1.1139
  192MOL    H3138613   6.174   0.216   7.323 -3.1754  0.0438  0.9827
  192MOL    C3238614   5.853   0.020   7.214 -0.9891  0.2461  0.4522
  192MOL    C3338615   5.814   0.154   7.146 -0.1257 -0.0854  0.6922
  192MOL    O3438616   5.708   0.111   7.061  0.3225  0.0784 -0.0872
  192MOL    C3538617   5.668   0.183   6.950  0.1874  0.0554 -0.0077
  192MOL    H3638618   5.781   7.797   7.289 -0.4619 -2.2786 -0.1282
  192MOL    H3738619   5.864   7.752   7.140 -0.9862  0.4393  0.2485
  192MOL    H3838620   5.897   0.194   7.088 -2.0705  2.0098 -0.7464
  192MOL    H3938621   5.749   0.174   6.878 -0.6049  0.1700 -0.9263
  192MOL    H4038622   5.573   0.141   6.915  1.1955 -1.2179 -1.2836
  192MOL    H4138623   5.657   0.287   6.981 -0.1952  0.4610 -1.4545
  192MOL    C4238624   5.757   0.253   7.248  0.2871  0.1104 -0.2390
  192MOL    C4338625   5.784   0.404   7.243 -0.6543 -0.0527  0.1239
  192MOL    O4438626   5.725   0.450   7.119 -0.5480  0.3361  0.3820
  192MOL    C4538627   5.801   0.517   7.026  0.6008  0.2979 -0.4047
  192MOL    H4638628   5.779   0.212   7.347 -1.4193 -3.2017 -1.1545
  192MOL    H4738629   5.649   0.237   7.238  0.1708  0.2462  0.6910
  192MOL    H4838630   5.891   0.424   7.247 -0.4629 -0.4400 -2.3589
  192MOL    H4938631   5.872   0.452   6.974 -3.2876 -2.4638 -2.5507
  192MOL    H5038632   5.730   0.550   6.950 -0.5283 -0.5845  0.2528
  192MOL    H5138633   5.859   0.595   7.075  0.9857 -0.9927  1.2688
  192MOL    C5238634   5.723   0.496   7.357 -0.4500  0.0588  0.3692
  192MOL    C5338635   5.792   0.483   7.495  0.2099  0.0395 -0.0262
  192MOL    O5438636   5.933   0.484   7.477  1.0014 -0.3041  0.1356
  192MOL    C5538637   6.016   0.416   7.572  0.6387  0.2809 -0.4799
  192MOL    H5638638   5.614   0.488   7.353 -0.5380  1.8180 -2.6798
  192MOL    H5738639   5.741   0.598   7.325  0.5949 -0.6087 -1.2128
  192MOL    H5838640   5.763   0.383   7.529  1.1869 -0.1841  0.1707
  192MOL    H5938641   6.063   0.487   7.640  1.1863 -1.8495  1.4523
  192MOL    H6038642   5.978   0.328   7.622  1.7779  0.7198  1.2034
  192MOL    H6138643   6.094   0.372   7.509  0.1559  1.1685 -1.7101
  192MOL    C6238644   5.753   0.590   7.598  0.2897  0.0351 -0.4644
  192MOL    C6338645   5.603   0.622   7.606 -0.3947  0.0558  0.1167
  192MOL    O6438646   5.544   0.492   7.627  0.1086 -1.0910  0.3738
  192MOL    C6538647   5.405   0.509   7.631  0.4477  0.2168  0.2771
  192MOL    H6638648   5.815   0.678   7.583  0.6591  0.3164  2.3637
  192MOL    H6738649   5.778   0.551   7.696 -0.8934 -0.4124 -0.3331
  192MOL    H6838650   5.576   0.672   7.513  3.8386  0.8301 -0.8044
  192MOL    H6938651   5.367   0.576   7.554  1.8914  1.5333  0.6874
  192MOL    H7038652   5.366   0.408   7.619 -0.6432  0.3519  2.3994
  192MOL    H7138653   5.368   0.539   7.730 -0.6599 -0.4168  0.0686
  192MOL    C7238654   5.571   0.721   7.727  0.4805  0.0363  0.6469
  192MOL    C7338655   5.663   0.843   7.732  0.2414  0.8437  0.2684
  192MOL    O7438656   5.607   0.937   7.640 -0.9987  0.3270  0.2294
  192MOL    C7538657   5.687   0.949   7.525  1.0838  0.6204 -0.0482
  192MOL    H7638658   5.567   0.663   0.009 -1.9416 -1.2975 -0.2482
  192MOL    H7738659   5.464   0.741   7.732  0.2829 -0.2795 -1.7431
  192MOL    H7838660   5.767   0.816   7.717  0.2222  0.4052  0.8924
  192MOL    H7938661   5.637   1.009   7.450 -0.1164 -2.7366 -2.0225
  192MOL    H8038662   5.780   0.996   7.559  1.0708  1.0700 -0.6216
  192MOL    H8138663   5.715   0.856   7.475  0.9680  0.2101  0.6430
  192MOL    C8238664   5.660   0.913   0.055  0.1872 -0.6661  0.5342
  192MOL    C8338665   5.724   0.846   0.179 -1.2050  0.1983  0.1404
  192MOL    O8438666   5.864   0.850   0.173 -0.2639 -0.2001  0.0826
  192MOL    C8538667   5.932   0.733   0.133  0.3374 -0.6143  0.0485
  192MOL    H8638668   5.553   0.934   0.067  0.4722  0.5345  1.0491
  192MOL    H8738669   5.714   1.006   0.044  0.8198 -1.0846  0.0986
  192MOL    H8838670   5.695   0.742   0.195  1.1556 -0.3158  1.3800
  192MOL    H8938671   6.038   0.755   0.120  0.3325  0.9940  2.5216
  192MOL    H9038672   5.932   0.649   0.203 -0.3287  0.1912  1.0159
  192MOL    H9138673   5.885   0.705   0.038 -0.2808 -1.2592  0.5400
  192MOL    C9238674   5.679   0.924   0.300  0.1413  0.6044 -0.4023
  192MOL    C9338675   5.720   0.870   0.437  0.4467 -0.0039  0.0435
  192MOL    O9438676   5.667   0.972   0.523  0.1027  0.0405 -0.2623
  192MOL    C9538677   5.756   1.020   0.627  0.1761  0.1388  0.0661
  192MOL    H9638678   5.573   0.948   0.290  0.1636  1.3596  0.9687
  192MOL    H9738679   5.719   1.025   0.292 -1.1735  1.2809  1.3739
  192MOL    H9838680   5.828   0.860   0.446  0.4249 -2.1869 -1.8477
  192MOL    H9938681   5.702   1.030   0.721  1.6481  0.1837  0.9130
  192MOL   H10038682   5.842   0.954   0.635 -0.6532 -1.2465 -1.8794
  192MOL   H10138683   5.798   1.114   0.593 -0.1574  0.1316 -0.3788
  192MOL   C10238684   5.655   0.738   0.483 -0.3860  0.2870 -0.1868
  192MOL   C10338685   5.727   0.604   0.441  0.5440 -0.2616 -0.3059
  192MOL   O10438686   5.833   0.593   0.532 -0.1319 -0.1958  0.0808
  192MOL   C10538687   5.936   0.494   0.511  0.0443  0.3826  0.3707
  192MOL   H10638688   5.553   0.738   0.446 -0.5669 -0.4957  0.3013
  192MOL   H10738689   5.653   0.735   0.592  2.5611 -1.2015 -0.1140
  192MOL   H10838690   5.772   0.614   0.343  0.3524  0.1405 -0.3525
  192MOL   H10938691   5.899   0.392   0.527  3.3777 -0.6667  1.7684
  192MOL   H11038692   5.987   0.505   0.416 -0.3452 -0.8021  0.0115
  192MOL   H11138693   6.008   0.501   0.593  1.0640 -0.6053 -0.4291
  192MOL   C11238694   5.631   0.483   0.429 -0.2002 -0.0892 -0.3412
  192MOL   C11338695   5.543   0.434   0.552 -0.3765 -0.8201 -0.1647
  192MOL   O11438696   5.451   0.542   0.582  0.2837  0.6456 -0.1565
  192MOL   C11538697   5.420   0.554   0.721  1.3427 -0.0305  0.5323
  192MOL   H11638698   5.672   0.395   0.379 -0.7258  0.5394 -1.9290
  192MOL   H11738699   5.553   0.503   0.356  0.2047 -0.8764 -0.9962
  192MOL   H11838700   5.618   0.430   0.630 -0.7996  1.1750  0.3641
  192MOL   H11938701   5.492   0.632   0.746 -0.1486  2.3287 -2.2198
  192MOL   H12038702   5.320   0.594   0.727  0.4845 -1.6070 -2.1773
  192MOL   H12138703   5.410   0.462   0.779 -0.8681 -0.5433 -0.6244
  192MOL   C12238704   5.476   0.298   0.533 -0.1194 -0.0497 -0.4562
  192MOL   C12338705   5.358   0.289   0.436 -0.4390  1.1198 -0.5710
  192MOL   O12438706   5.414   0.304   0.296  0.0776  0.6498  0.3883
  192MOL   C12538707   5.312   0.337   0.204 -0.1720 -0.1118 -0.0692
  192MOL   H12638708   5.442   0.277   0.635 -0.8761 -3.0214 -1.2619
  192MOL   H12738709   5.541   0.212   0.521  1.2282  0.8315  0.4088
  192MOL   H12838710   5.287   0.368   0.460  1.5034  1.7908  3.4259
  192MOL   H12938711   5.360   0.333   0.106  1.1407  1.0825  0.5058
  192MOL   H13038712   5.226   0.270   0.203 -0.3871  0.1635 -0.0674
  192MOL   H13138713   5.286   0.442   0.216  2.4628  0.7466 -1.4401
  192MOL   C13238714   5.287   0.158   0.449  0.1705 -0.0687  0.9737
  192MOL   C13338715   5.223   0.127   0.585  0.4126 -0.2086  0.5442
  192MOL   O13438716   5.179   0.248   0.637 -0.7410 -0.0016 -0.7928
  192MOL   C13538717   5.176   0.255   0.778  0.0910 -0.4667  0.1606
  192MOL   H13638718   5.359   0.080   0.425 -1.0417 -1.2885  1.2534
  192MOL   H13738719   5.210   0.140   0.374  1.0957  1.0691 -0.2723
  192MOL   H13838720   5.293   0.079   0.653  0.3199 -0.4201  0.4899
  192MOL   H13938721   5.154   0.359   0.804 -1.1180 -0.6793  0.0249
  192MOL   H14038722   5.113   0.185   0.833 -0.4517  1.2693  1.8279
  192MOL   H14138723   5.279   0.251   0.811 -0.4643  0.2721  2.0388
  192MOL   C14238724   5.104   0.029   0.573  0.5128  0.2164  0.0981
  192MOL   C14338725   5.131   7.691   0.543  0.0491 -0.6264  0.6076
  192MOL   O14438726   5.210   7.644   0.652  0.1942  0.0670 -0.6926
  192MOL   C14538727   5.318   7.550   0.622 -0.2036 -0.6377  0.0170
  192MOL   H14638728   5.030   0.069   0.504 -0.3580 -1.3491  0.0924
  192MOL   H14738729   5.039   0.019   0.660 -0.8657 -0.8628 -1.0175
  192MOL   H14838730   5.193   7.684   0.454  0.4134 -1.3767  0.9084
  192MOL   H14938731   5.356   7.517   0.718 -1.6430  0.5564  1.0063
  192MOL   H15038732   5.286   7.458   0.572 -1.6200  0.1992 -0.6429
  192MOL   H15138733   5.394   7.596   0.558  0.8723  0.9642  2.4116
  192MOL   C15238734   5.009   7.595   0.531 -0.4338 -0.3821  0.0796
  192MOL   C15338735   4.926   7.613   0.402 -0.6532 -0.1794  0.0631
  192MOL   O15438736   4.872   7.734   0.371  0.5966 -0.4444  0.1237
  192MOL   C15538737   4.781   7.776   0.477 -0.4013  0.0449 -0.2853
  192MOL   H15638738   4.958   7.615   0.626  1.4220  2.8416  0.4509
  192MOL   H15738739   5.035   7.489   0.541  0.2199 -0.3082 -0.7758
  192MOL   H15838740   4.840   7.545   0.399 -0.4048 -0.4339 -1.4750
  192MOL   H15938741   4.719   0.049   0.444  0.5406  1.2455  0.9011
  192MOL   H16038742   4.711   7.697   0.504  0.4595  0.3715  3.1505
  192MOL   H16138743   4.823   7.801   0.575  1.1264 -0.8922 -0.6929
  192MOL   C16238744   5.004   7.579   0.275 -0.4159 -0.3361  0.7553
  192MOL   C16338745   5.049   7.430   0.253  0.0286 -0.2930 -1.2860
  192MOL   O16438746   4.940   7.337   0.240  0.0592 -0.5626  0.1202
  192MOL   C16538747   4.913   7.265   0.360 -0.3575 -1.5593 -0.0899
  192MOL   H16638748   5.095   7.639   0.265 -1.4338  0.8962 -1.4743
  192MOL   H16738749   4.942   7.602   0.188 -0.6585  0.7884  1.2239
  192MOL   H16838750   5.121   7.410   0.333 -1.5401  3.1551  1.1576
  192MOL   H16938751   4.863   7.321   0.439  1.3940 -2.5001  1.7543
  192MOL   H17038752   4.844   7.188   0.325 -2.3330  0.0898  0.0783
  192MOL   H17138753   5.004   7.221   0.402 -0.1567 -2.3994 -1.3988
  192MOL   C17238754   5.129   7.422   0.126  0.1135  0.4592  0.1504
  192MOL   C17338755   5.227   7.306   0.103  0.3885 -0.4175  0.6525
  192MOL   O17438756   5.314   7.337   7.801 -0.1936 -0.8624  0.3823
  192MOL   C17538757   5.247   7.312   7.678 -0.3432 -0.1880  0.1020
  192MOL   H17638758   5.179   7.518   0.109 -2.2530  2.2008  2.5255
  192MOL   H17738759   5.059   7.420   0.042 -1.1377  1.8026  1.1238
  192MOL   H17838760   5.180   7.209   0.089  0.9893 -0.3157 -2.3844
  192MOL   H17938761   5.224   7.208   7.656 -0.9333  0.0169 -0.2626
  192MOL   H18038762   5.165   7.380   7.655  1.1904  2.0213  1.0186
  192MOL   H18138763   5.330   7.322   7.607  0.5279 -1.3548  0.9354
  192MOL   C18238764   5.330   7.291   0.216  0.5067 -0.5136  0.0480
  192MOL   C18338765   5.436   7.183   0.192  0.2229  0.9275  0.0756
  192MOL   O18438766   5.518   7.186   0.311  0.0849  0.1979 -0.3019
  192MOL   C18538767   5.621   7.281   0.308 -0.4356  0.0075 -0.4333
  192MOL   H18638768   5.281   7.275   0.312 -0.5977 -0.3072 -0.4727
  192MOL   H18738769   5.370   7.392   0.229  0.1995 -0.3327 -0.3804
  192MOL   H18838770   5.494   7.206   0.103  1.2256 -0.3628  0.3769
  192MOL   H18938771   5.687   7.266   0.393 -0.1805 -1.6728 -0.9042
  192MOL   H19038772   5.682   7.284   0.218 -1.7473 -0.4568 -1.3443
  192MOL   H19138773   5.585   7.379   0.337  1.8716  0.3298  1.4758
  192MOL   C19238774   5.385   7.036   0.180  0.0922 -0.1354  0.0882
  192MOL   C19338775   5.499   6.934   0.163  0.2606 -0.4270 -1.1128
  192MOL   O19438776   5.438   6.809   0.139 -0.2290 -0.2440 -0.4647
  192MOL   C19538777   5.538   6.697   0.125 -0.7328  0.0468  0.5235
  192MOL   H19638778   5.322   7.024   0.092 -0.0686  0.0408  0.1782
  192MOL   H19738779   5.334   7.017   0.274 -1.9966  1.4776 -0.6629
  192MOL   H19838780   5.565   6.938   0.249  0.1606  0.9483 -1.0892
  192MOL   H19938781   5.592   6.720   0.033 -0.8605  2.5914  1.0265
  192MOL   H20038782   5.607   6.701   0.209  2.1916  1.6897 -1.8601
  192MOL   H20138783   5.479   6.607   0.111 -2.7641  1.5647 -0.9640
  192MOL   H20238784   5.553   6.960   0.071 -0.0840  2.1989 -0.5837
  193MOL     C138785   5.237   1.641   7.802  0.0767  0.5094  0.3047
  193MOL     C238786   5.119   1.671   7.713  0.1168 -0.3887 -0.6307
  193MOL     O338787   5.169   1.653   7.576  0.4877 -0.5150 -0.1957
  193MOL     C438788   5.194   1.777   7.518  0.3817  0.0578 -0.1654
  193MOL     H538789   5.216   1.675   0.093 -0.7736 -1.1189  0.6927
  193MOL     H638790   5.248   1.532   7.798 -0.8591  0.4946 -3.5742
  193MOL     H738791   5.088   1.773   7.738  4.8221  0.8918  0.4236
  193MOL     H838792   5.240   1.755   7.422 -2.6579 -2.5414 -1.1037
  193MOL     H938793   5.101   1.834   7.519  1.6951  2.2824  2.2440
  193MOL    H1038794   5.254   1.839   7.584 -0.4758 -0.3979  1.0657
  193MOL    H1138795   5.329   1.688   7.769 -0.3221 -0.2133 -1.9030
  193MOL    C1238796   4.996   1.579   7.731 -0.5411  0.3415 -0.2283
  193MOL    C1338797   4.871   1.601   7.638 -0.3303 -0.8417  0.0465
  193MOL    O1438798   4.759   1.509   7.660 -0.3821  0.3336 -0.6905
  193MOL    C1538799   4.734   1.436   7.546  0.6725  0.2888  0.8003
  193MOL    H1638800   4.969   1.580   0.026  1.5365 -0.7134  0.3569
  193MOL    H1738801   5.023   1.474   7.715  1.2004  0.5781  0.9141
  193MOL    H1838802   4.902   1.602   7.533  0.0527 -0.3445  0.1628
  193MOL    H1938803   4.688   1.490   7.464 -0.4476 -0.3160  1.0228
  193MOL    H2038804   4.822   1.384   7.508 -0.5669 -0.6624 -0.8437
  193MOL    H2138805   4.654   1.363   7.565 -0.7790  1.9234  1.0581
  193MOL    C2238806   4.807   1.738   7.679 -1.0319  0.4926  0.0111
  193MOL    C2338807   4.701   1.788   7.573  0.6283  0.2627  0.5763
  193MOL    O2438808   4.624   1.887   7.630 -0.7406 -0.1040  0.2389
  193MOL    C2538809   4.525   1.838   7.721 -0.4079 -0.0487 -0.1706
  193MOL    H2638810   4.881   1.818   7.686  0.3960 -0.6697 -1.3167
  193MOL    H2738811   4.763   1.724   7.777 -0.2364 -1.2170  0.1430
  193MOL    H2838812   4.628   1.711   7.548 -1.6058  2.3042  0.6276
  193MOL    H2938813   4.474   1.747   7.689  1.2196 -0.7219 -0.9078
  193MOL    H3038814   4.571   1.823   0.008 -0.4268 -1.1850 -0.3289
  193MOL    H3138815   4.445   1.911   7.733 -1.0681 -0.8266  0.2660
  193MOL    C3238816   4.776   1.849   7.459  0.6428  0.0691 -0.2594
  193MOL    C3338817   4.719   1.853   7.319  0.7418  0.6118  0.1953
  193MOL    O3438818   4.605   1.944   7.311  0.3512  0.0011  0.4918
  193MOL    C3538819   4.481   1.890   7.334 -0.3563  0.3256 -0.4413
  193MOL    H3638820   4.866   1.788   7.453  0.2568 -0.5367 -0.0615
  193MOL    H3738821   4.809   1.949   7.484 -2.3871  0.7702  1.2019
  193MOL    H3838822   4.682   1.750   7.317  1.6501  0.2719  0.5277
  193MOL    H3938823   4.398   1.953   7.303 -0.3160  0.7371  0.2850
  193MOL    H4038824   4.472   1.805   7.266  2.0004 -1.0865  0.9268
  193MOL    H4138825   4.461   1.846   7.432 -0.8098  2.2307  0.3327
  193MOL    C4238826   4.832   1.893   7.225 -0.1929 -0.1739 -0.4361
  193MOL    C4338827   4.825   1.881   7.072  0.1541  0.7619  0.4743
  193MOL    O4438828   4.945   1.924   7.013 -0.4209  0.8949  0.0212
  193MOL    C4538829   4.979   2.059   7.006  0.4059 -0.0888  0.1731
  193MOL    H4638830   4.922   1.846   7.265 -0.1507 -1.2314 -1.7494
  193MOL    H4738831   4.837   2.001   7.242 -0.0502  0.2673 -3.0643
  193MOL    H4838832   4.742   1.931   7.023 -1.3003 -0.5893  1.5188
  193MOL    H4938833   4.897   2.115   6.963  0.5654  0.8212  1.0310
  193MOL    H5038834   4.986   2.116   7.099  0.0852  1.1239 -0.5403
  193MOL    H5138835   5.071   2.089   6.956  1.2685 -2.4293  0.2717
  193MOL    C5238836   4.806   1.735   7.043 -0.8886 -0.2468 -0.4961
  193MOL    C5338837   4.929   1.644   7.082  0.4201 -0.0143 -0.0123
  193MOL    O5438838   4.932   1.595   7.211  0.2255 -0.5733 -0.6332
  193MOL    C5538839   5.053   1.550   7.271 -0.0484  0.5456  0.1766
  193MOL    H5638840   4.786   1.735   6.936 -1.7088  1.0637 -0.3549
  193MOL    H5738841   4.714   1.698   7.088 -0.7293 -0.9295 -0.7233
  193MOL    H5838842   5.014   1.706   7.054  0.0945 -0.9246 -3.2228
  193MOL    H5938843   5.042   1.538   7.379  1.7836 -0.4175  0.2721
  193MOL    H6038844   5.102   1.461   7.231  1.2879  0.9830  0.8098
  193MOL    H6138845   5.135   1.622   7.265 -0.0926  0.6310  0.5673
  193MOL    C6238846   4.936   1.517   6.994  0.3519 -0.1964  0.2330
  193MOL    C6338847   5.029   1.545   6.870 -0.0714  0.3498  1.0091
  193MOL    O6438848   5.169   1.531   6.906  0.0526  0.7938 -0.3778
  193MOL    C6538849   5.253   1.590   6.806 -0.3995  0.4945  0.1724
  193MOL    H6638850   4.836   1.499   6.954 -0.4836  1.8312  1.3202
  193MOL    H6738851   4.965   1.423   7.042 -1.7271 -0.6762  0.6355
  193MOL    H6838852   5.002   1.646   6.840 -0.2005  0.1563  0.4793
  193MOL    H6938853   5.264   1.524   6.720  0.9478  0.0289  0.6903
  193MOL    H7038854   5.215   1.687   6.774 -0.0170  0.7184  0.3989
  193MOL    H7138855   5.348   1.594   6.859 -0.7533  1.0423  0.7814
  193MOL    C7238856   5.002   1.432   6.761  0.4438 -0.4911  0.2175
  193MOL    C7338857   4.971   1.486   6.624  0.4638  0.2450 -0.0207
  193MOL    O7438858   4.974   1.376   6.533  0.2465 -0.3005  0.2765
  193MOL    C7538859   5.099   1.356   6.475 -0.4381  0.8527  0.0729
  193MOL    H7638860   4.923   1.361   6.786 -1.1921  1.1707 -0.1977
  193MOL    H7738861   5.088   1.364   6.755  0.6753 -0.1180 -0.7976
  193MOL    H7838862   5.045   1.562   6.597  1.1157 -1.0269 -1.9633
  193MOL    H7938863   5.184   1.346   6.542 -1.5724 -0.4062  1.3615
  193MOL    H8038864   5.096   1.266   6.412  0.8807  1.4108 -0.8140
  193MOL    H8138865   5.118   1.435   6.402  0.8953  2.4019  2.0622
  193MOL    C8238866   4.824   1.551   6.634  0.1681 -0.3942 -0.4318
  193MOL    C8338867   4.770   1.602   6.491 -0.3092  0.3340 -0.4559
  193MOL    O8438868   4.640   1.665   6.504 -0.0645 -0.4956  0.7864
  193MOL    C8538869   4.539   1.573   6.464  0.3649  0.9662 -0.4473
  193MOL    H8638870   4.823   1.627   6.712  2.4927 -1.1996  0.4257
  193MOL    H8738871   4.752   1.482   6.677 -0.8901  1.7867  1.3596
  193MOL    H8838872   4.781   1.520   6.420 -0.5387  0.5774 -0.7675
  193MOL    H8938873   4.561   1.482   6.520 -3.4463  1.0085  1.2995
  193MOL    H9038874   4.445   1.619   6.495 -0.1488 -0.8523  0.7845
  193MOL    H9138875   4.542   1.546   6.359 -1.0123 -1.8293  0.1729
  193MOL    C9238876   4.866   1.704   6.433 -0.3185  0.2679 -0.3033
  193MOL    C9338877   4.832   1.777   6.299  0.3155  0.4710  1.3334
  193MOL    O9438878   4.821   1.696   6.181  0.0461  0.6646  0.2559
  193MOL    C9538879   4.921   1.595   6.174  0.2079 -0.5063 -0.2977
  193MOL    H9638880   4.967   1.665   6.421 -1.2687 -2.8335  0.9996
  193MOL    H9738881   4.872   1.782   6.509 -2.2976  1.3613 -1.2358
  193MOL    H9838882   4.916   1.842   6.272 -0.2149  1.2224  1.4795
  193MOL    H9938883   5.022   1.625   6.203  0.5817 -2.8207  0.8846
  193MOL   H10038884   4.886   1.504   6.223  2.8457 -1.2135  0.3638
  193MOL   H10138885   4.932   1.595   6.066  0.8680  1.5684 -0.2527
  193MOL   C10238886   4.716   1.879   6.298 -0.1208 -0.8482  0.0890
  193MOL   C10338887   4.721   1.987   6.410 -0.5019 -0.5813  0.3137
  193MOL   O10438888   4.837   2.064   6.386  0.2131 -0.2195  0.0855
  193MOL   C10538889   4.886   2.118   6.502 -0.0723  0.6683 -0.1623
  193MOL   H10638890   4.627   1.815   6.298  1.4383 -3.0912 -1.6251
  193MOL   H10738891   4.703   1.929   6.202 -4.0259  1.9119  1.9275
  193MOL   H10838892   4.729   1.936   6.506  1.7485 -1.3248 -0.2599
  193MOL   H10938893   4.912   2.034   6.566 -2.6730  0.4879  0.7055
  193MOL   H11038894   4.978   2.168   6.471  0.0246 -0.4489 -1.7105
  193MOL   H11138895   4.820   2.184   6.558 -1.6283  0.7863 -2.0671
  193MOL   C11238896   4.599   2.075   6.410  0.2473 -0.2594 -0.4049
  193MOL   C11338897   4.488   2.010   6.503 -0.0788 -0.8206 -0.1653
  193MOL   O11438898   4.532   2.030   6.634 -0.1335  0.1433  0.1768
  193MOL   C11538899   4.543   1.911   6.706 -0.0208 -0.2110 -0.1422
  193MOL   H11638900   4.570   2.090   6.306 -2.3466  0.4963  0.4178
  193MOL   H11738901   4.616   2.173   6.454  0.4631 -0.5828  0.2267
  193MOL   H11838902   4.477   1.904   6.477  2.5101 -1.7582  2.2655
  193MOL   H11938903   4.535   1.920   6.815 -2.2732 -0.7116 -0.2392
  193MOL   H12038904   4.459   1.843   6.686  0.6855 -2.0994  2.8268
  193MOL   H12138905   4.635   1.856   6.685  0.3095 -1.1107  3.3370
  193MOL   C12238906   4.347   2.071   6.480  0.3697 -0.3771 -0.6693
  193MOL   C12338907   4.330   2.226   6.500 -0.2128 -0.4225 -0.0905
  193MOL   O12438908   4.221   2.278   6.420 -0.2046 -0.3694  0.1633
  193MOL   C12538909   4.256   2.305   6.286  0.6320  0.4288 -0.1265
  193MOL   H12638910   4.269   2.016   6.532  1.4845 -1.9362 -0.6032
  193MOL   H12738911   4.314   2.045   6.379 -0.3489 -1.0435 -0.2646
  193MOL   H12838912   4.417   2.285   6.472 -1.1453  0.7948 -0.4582
  193MOL   H12938913   4.170   2.348   6.235  1.3902  1.5128 -0.5353
  193MOL   H13038914   4.327   2.388   6.295 -2.1490  2.8714  0.1097
  193MOL   H13138915   4.307   2.223   6.236  0.6266  0.8191 -0.7825
  193MOL   C13238916   4.284   2.253   6.644  0.2374 -0.0916 -0.1014
  193MOL   C13338917   4.272   2.403   6.685  0.1885 -0.4339 -0.6541
  193MOL   O13438918   4.174   2.423   6.793  0.9603  0.8437  0.1843
  193MOL   C13538919   4.050   2.499   6.770 -0.8716  0.5201 -0.2772
  193MOL   H13638920   4.348   2.201   6.716 -0.6872 -0.3091  0.5617
  193MOL   H13738921   4.192   2.202   6.671  1.1126 -1.5625  0.1637
  193MOL   H13838922   4.237   2.457   6.597 -0.0429 -0.7702 -0.7710
  193MOL   H13938923   3.981   2.508   6.854  0.8247 -1.1717  1.3383
  193MOL   H14038924   4.060   2.599   6.729 -1.4202  0.1252 -1.3929
  193MOL   H14138925   3.998   2.442   6.693 -0.5451 -0.7836  0.4508
  193MOL   C14238926   4.402   2.463   6.728  0.1890 -0.9898  0.4471
  193MOL   C14338927   4.394   2.613   6.716 -0.5955  0.2524 -0.3884
  193MOL   O14438928   4.498   2.668   6.802  0.1644 -0.3709  0.2150
  193MOL   C14538929   4.454   2.724   6.920  0.0479  0.0181 -0.5281
  193MOL   H14638930   4.492   2.430   6.676 -0.2630 -0.1440 -0.8938
  193MOL   H14738931   4.418   2.441   6.834  0.4000 -1.1717  0.3790
  193MOL   H14838932   4.293   2.648   6.741 -0.6412  0.2833 -0.6148
  193MOL   H14938933   4.443   2.644   6.993 -1.0541  0.3856 -0.2781
  193MOL   H15038934   4.524   2.788   6.973  0.8474 -0.8105 -0.5734
  193MOL   H15138935   4.360   2.779   6.911  0.0835  0.7885  3.0154
  193MOL   C15238936   4.401   2.676   6.573  0.0370 -0.1986 -0.2804
  193MOL   C15338937   4.361   2.823   6.581  0.3962 -0.3083  0.1649
  193MOL   O15438938   4.446   2.897   6.487 -0.0967  0.6057  0.3688
  193MOL   C15538939   4.565   2.947   6.549  0.2293  0.1657 -0.1787
  193MOL   H15638940   4.348   2.622   6.494 -0.5949  1.2881 -0.9016
  193MOL   H15738941   4.503   2.653   6.545  1.0023  1.4917  1.7082
  193MOL   H15838942   4.368   2.869   6.680 -1.4912  0.2942  0.0447
  193MOL   H15938943   4.629   2.872   6.595  0.8969  0.8127 -0.0315
  193MOL   H16038944   4.613   3.015   6.478  2.0568 -0.4142  0.4685
  193MOL   H16138945   4.530   3.016   6.626 -1.0319 -0.1982 -0.4128
  193MOL   C16238946   4.217   2.840   6.537 -0.0016 -0.5082 -0.1655
  193MOL   C16338947   4.159   2.985   6.568 -0.0398  0.6389 -0.3694
  193MOL   O16438948   4.053   3.006   6.476 -0.3300 -0.3707 -0.2369
  193MOL   C16538949   4.080   3.072   6.354  0.4602  0.0794  0.1963
  193MOL   H16638950   4.159   2.766   6.594 -1.0989  0.9197  0.6019
  193MOL   H16738951   4.206   2.818   6.431  1.2742 -1.9958 -0.0066
  193MOL   H16838952   4.241   3.056   6.557  0.0035  0.6166 -0.1899
  193MOL   H16938953   4.093   3.179   6.370 -1.4187  0.3656 -0.0392
  193MOL   H17038954   4.167   3.031   6.304 -2.0848 -3.2139 -1.7316
  193MOL   H17138955   4.002   3.051   6.281 -0.2029  2.1969  0.2584
  193MOL   C17238956   4.114   3.015   6.712  0.0380 -0.1738 -0.2546
  193MOL   C17338957   4.105   3.166   6.748  0.0473  0.3134  0.3886
  193MOL   O17438958   3.980   3.192   6.813 -0.1747 -0.2009  0.2627
  193MOL   C17538959   3.877   3.210   6.717 -0.6170  0.7433 -0.0943
  193MOL   H17638960   4.175   2.970   6.789  1.2159  1.2315 -0.3362
  193MOL   H17738961   4.017   2.967   6.725 -0.5431  1.1362  0.3943
  193MOL   H17838962   4.122   3.224   6.657 -1.0613 -0.8292 -0.5678
  193MOL   H17938963   3.832   3.113   6.698 -0.6222  0.1574  2.6510
  193MOL   H18038964   3.802   3.288   6.734 -1.1973  0.3308 -0.7743
  193MOL   H18138965   3.917   3.243   6.621 -0.7726 -1.6950 -1.0298
  193MOL   C18238966   4.220   3.203   6.842 -0.0768  0.9564  0.6882
  193MOL   C18338967   4.353   3.235   6.767 -0.3541  0.1099  0.1213
  193MOL   O18438968   4.343   3.354   6.696  0.7534  0.3413  0.4520
  193MOL   C18538969   4.442   3.385   6.602 -0.4120 -0.5522 -0.0493
  193MOL   H18638970   4.238   3.128   6.919  2.3288  0.1375 -0.6340
  193MOL   H18738971   4.184   3.294   6.891  1.4920  2.5031 -0.9954
  193MOL   H18838972   4.376   3.147   6.706  0.8116  2.0730 -2.3723
  193MOL   H18938973   4.394   3.460   6.539 -1.0779 -1.0815 -0.1735
  193MOL   H19038974   4.530   3.438   6.640 -0.8139  0.6520 -0.7776
  193MOL   H19138975   4.467   3.295   6.547 -1.9514 -1.7249  1.1428
  193MOL   C19238976   4.457   3.265   6.877  0.0176  0.5008  0.5894
  193MOL   C19338977   4.493   3.139   6.945 -0.0014  0.5344  0.6113
  193MOL   O19438978   4.611   3.145   7.016 -0.3150 -0.4007  0.2360
  193MOL   C19538979   4.645   3.026   7.082  0.3253  0.1173  0.1796
  193MOL   H19638980   4.419   3.349   6.934  0.9335  1.2212  0.1701
  193MOL   H19738981   4.548   3.303   6.829 -0.6504  3.4129  1.5054
  193MOL   H19838982   4.488   3.057   6.874 -3.0176  0.9574  0.2856
  193MOL   H19938983   4.680   2.944   7.019  0.0528 -0.4770  0.7869
  193MOL   H20038984   4.725   3.055   7.150  1.0607 -1.0869 -0.1650
  193MOL   H20138985   4.570   2.988   7.152  1.1076 -0.2737  0.8157
  193MOL   H20238986   4.416   3.125   7.021  0.7819 -0.0012  1.3176
  194MOL     C138987   6.123   6.449   4.082 -0.5381 -0.5885  0.4899
  194MOL     C238988   6.053   6.552   4.173 -0.2493  0.4990  0.1338
  194MOL     O338989   6.074   6.661   4.087 -0.4764  0.2242  0.4221
  194MOL     C438990   6.153   6.763   4.159  0.1617  0.7706  0.5505
  194MOL     H538991   6.115   6.352   4.130  0.4608 -0.4797  0.8741
  194MOL     H638992   6.073   6.444   3.985  1.1523 -2.4548 -0.3004
  194MOL     H738993   6.108   6.539   4.266  1.5268  1.4818 -0.7445
  194MOL     H838994   6.242   6.714   4.200 -0.3272  1.4357  2.4627
  194MOL     H938995   6.179   6.842   4.088 -0.9913  1.4704  0.8943
  194MOL    H1038996   6.090   6.804   4.238 -2.7632  0.2657 -1.4390
  194MOL    H1138997   6.227   6.480   4.073 -0.0058 -1.3583  3.3703
  194MOL    C1238998   5.900   6.534   4.178  0.3898 -0.4796 -0.2391
  194MOL    C1338999   5.829   6.454   4.293  0.3431 -0.0001  0.3595
  194MOL    O1439000   5.868   6.520   4.412 -0.0739  0.4352  0.1568
  194MOL    C1539001   5.862   6.437   4.530 -0.4160 -0.5346 -0.4034
  194MOL    H1639002   5.866   6.494   4.082  0.4975  0.3492 -0.6204
  194MOL    H1739003   5.867   6.637   4.175  3.2168  0.4401 -1.3736
  194MOL    H1839004   5.854   6.348   4.288 -3.5321 -0.8753 -2.2664
  194MOL    H1939005   5.902   6.508   4.602  2.7107 -0.1988 -2.4124
  194MOL    H2039006   5.757   6.417   4.553 -0.2995  0.1283  0.7673
  194MOL    H2139007   5.929   6.351   4.522  1.4940  0.8547  0.3198
  194MOL    C2239008   5.672   6.458   4.277  0.4882 -0.3709  0.3244
  194MOL    C2339009   5.624   6.376   4.151  0.0241 -0.1416  0.9499
  194MOL    O2439010   5.686   6.252   4.148 -0.4199  0.3353 -0.3539
  194MOL    C2539011   5.722   6.201   4.020  0.8281 -0.3245 -0.1833
  194MOL    H2639012   5.657   6.566   4.278  0.0904 -0.4124 -0.9312
  194MOL    H2739013   5.625   6.416   4.366 -0.0012  0.7204  0.5888
  194MOL    H2839014   5.653   6.436   4.065 -0.4019  0.1527  1.0135
  194MOL    H2939015   5.632   6.190   3.958  0.4816  2.1303 -0.1722
  194MOL    H3039016   5.785   6.268   3.961  1.5454 -1.4131 -0.6691
  194MOL    H3139017   5.761   6.099   4.017  1.5345 -0.0253 -3.2023
  194MOL    C3239018   5.473   6.356   4.142  1.0522 -0.0024  0.1108
  194MOL    C3339019   5.394   6.281   4.254 -0.0024 -0.6081 -0.7650
  194MOL    O3439020   5.296   6.377   4.287  0.0141 -0.2198 -0.2137
  194MOL    C3539021   5.227   6.354   4.410  0.0980 -0.0989 -0.3292
  194MOL    H3639022   5.437   6.333   4.041  1.9436  0.7967 -0.3902
  194MOL    H3739023   5.436   6.458   4.140 -2.9766 -1.3899 -0.1352
  194MOL    H3839024   5.454   6.265   4.343 -3.0383  1.1276  1.6863
  194MOL    H3939025   5.303   6.340   4.487 -0.2253  0.8570  0.1759
  194MOL    H4039026   5.163   6.436   4.443  1.7362  1.8783 -1.8953
  194MOL    H4139027   5.161   6.270   4.392  1.5634 -1.5732  0.9775
  194MOL    C4239028   5.326   6.147   4.213  0.2013 -0.1170 -0.0195
  194MOL    C4339029   5.424   6.034   4.175 -0.0968 -0.5481  0.4434
  194MOL    O4439030   5.482   5.982   4.294  0.8548  0.0038  0.0485
  194MOL    C4539031   5.619   5.946   4.276  0.0764 -0.0985 -0.6476
  194MOL    H4639032   5.251   6.168   4.137  1.0454  2.1042 -0.2886
  194MOL    H4739033   5.257   6.115   4.291 -1.0354  0.9344 -0.6515
  194MOL    H4839034   5.493   6.087   4.109 -1.7665 -0.4987 -1.2978
  194MOL    H4939035   5.684   6.028   4.245 -0.1520 -0.1121 -1.1706
  194MOL    H5039036   5.658   5.897   4.365 -1.4348 -1.1298 -0.5378
  194MOL    H5139037   5.626   5.872   4.196  1.5872  0.0413 -0.6730
  194MOL    C5239038   5.351   5.919   4.099 -0.0859 -0.1217  0.4671
  194MOL    C5339039   5.240   5.838   4.168  0.1239 -0.2075  0.9211
  194MOL    O5439040   5.117   5.907   4.144  0.7034  0.5627 -0.8148
  194MOL    C5539041   5.019   5.903   4.250  1.1822  0.1390 -0.8866
  194MOL    H5639042   5.442   5.867   4.072 -0.6573 -0.9047  0.0486
  194MOL    H5739043   5.306   5.947   4.004  1.0014  1.3979  0.3902
  194MOL    H5839044   5.272   5.834   4.272  1.5689  2.6598  0.6571
  194MOL    H5939045   4.993   5.801   4.277  0.1441  0.3949 -0.8946
  194MOL    H6039046   5.070   5.959   4.329 -0.9310 -1.2979  1.5671
  194MOL    H6139047   4.930   5.954   4.214 -0.6180 -0.9428  1.9152
  194MOL    C6239048   5.238   5.696   4.109  0.0867  0.5496  0.0770
  194MOL    C6339049   5.363   5.606   4.155 -0.1019 -0.1521 -0.7575
  194MOL    O6439050   5.332   5.502   4.252  0.5076 -0.2749  0.4628
  194MOL    C6539051   5.271   5.548   4.379 -0.7735  0.3482  0.8170
  194MOL    H6639052   5.228   5.701   4.001  0.4616 -0.8650 -0.0267
  194MOL    H6739053   5.145   5.645   4.134 -0.8997  3.2854  2.3640
  194MOL    H6839054   5.439   5.672   4.197 -0.5560 -0.8918  1.3027
  194MOL    H6939055   5.345   5.604   4.435  1.1851 -0.8144 -0.5224
  194MOL    H7039056   5.180   5.606   4.366  0.2027  1.8673  0.6688
  194MOL    H7139057   5.243   5.464   4.442 -1.3132  1.1708  1.6799
  194MOL    C7239058   5.418   5.522   4.032  0.2605 -0.0526 -0.5129
  194MOL    C7339059   5.545   5.438   4.058 -0.3650  0.0709  0.4613
  194MOL    O7439060   5.579   5.365   3.938  0.1747 -0.0382 -0.1284
  194MOL    C7539061   5.627   5.234   3.977  0.4001  0.1373  0.1376
  194MOL    H7639062   5.442   5.596   3.955  0.3974  0.1539 -0.2732
  194MOL    H7739063   5.341   5.450   4.003 -0.0844  0.6862 -1.4871
  194MOL    H7839064   5.501   5.363   4.124 -3.2536 -0.5993 -2.1094
  194MOL    H7939065   5.654   5.182   3.885  0.7976  3.3462 -1.6344
  194MOL    H8039066   5.711   5.233   4.047  0.4917  1.8750  0.0751
  194MOL    H8139067   5.541   5.186   4.023 -0.9552  0.2095 -2.2660
  194MOL    C8239068   5.672   5.519   4.108  0.0280 -0.6009 -0.3426
  194MOL    C8339069   5.740   5.614   4.015  1.0057  0.0670  0.4644
  194MOL    O8439070   5.648   5.714   4.005  0.4172 -0.3521 -0.2642
  194MOL    C8539071   5.667   5.804   3.904  0.5108 -0.1214  0.9039
  194MOL    H8639072   5.743   5.447   4.149  1.9560  0.7049 -1.3404
  194MOL    H8739073   5.641   5.575   4.196  0.1335 -2.1374  0.6965
  194MOL    H8839074   5.753   5.569   3.917  1.5747 -1.1212  1.0743
  194MOL    H8939075   5.759   5.861   3.906  0.4424  0.0001  0.6670
  194MOL    H9039076   5.659   5.749   3.810 -0.6620  0.9395  0.3629
  194MOL    H9139077   5.582   5.871   3.893  0.0441 -0.8091  0.2492
  194MOL    C9239078   5.876   5.668   4.065 -0.0779  1.5173  0.2025
  194MOL    C9339079   6.000   5.641   3.972 -0.0872 -0.6252  0.2770
  194MOL    O9439080   6.107   5.711   4.036  0.8352  0.1676 -0.2797
  194MOL    C9539081   6.234   5.714   3.974 -0.4000 -0.4872  0.8914
  194MOL    H9639082   5.908   5.626   4.160 -1.1120 -0.2833 -0.2180
  194MOL    H9739083   5.866   5.774   4.089 -2.4645  1.2000  0.6615
  194MOL    H9839084   5.979   5.698   3.882 -0.3367 -2.3310 -0.7736
  194MOL    H9939085   6.310   5.782   4.010  0.2672 -0.1071 -1.1481
  194MOL   H10039086   6.278   5.614   3.974  2.6129  0.7933  0.4993
  194MOL   H10139087   6.220   5.760   3.876 -2.1601  1.1711  1.8965
  194MOL   C10239088   6.025   5.486   3.941 -0.0831 -0.3824  0.0235
  194MOL   C10339089   6.059   5.441   3.801  0.2893  0.1852  0.2512
  194MOL   O10439090   6.118   5.314   3.803 -0.1885 -0.2408 -0.2906
  194MOL   C10539091   6.261   5.308   3.823  0.8842 -0.4811  0.0525
  194MOL   H10639092   5.942   5.435   3.991 -0.3318 -0.0889 -0.0898
  194MOL   H10739093   6.115   5.471   4.001  0.7079  1.1811 -0.7470
  194MOL   H10839094   6.126   5.511   3.751  0.1032 -0.1304 -0.4409
  194MOL   H10939095   6.300   5.207   3.839  1.5344  0.0412  1.8707
  194MOL   H11039096   6.313   5.345   3.734 -1.4220  0.7893 -0.8164
  194MOL   H11139097   6.293   5.375   3.903 -2.2645  0.1509  0.8174
  194MOL   C11239098   5.932   5.419   3.714 -0.0042  0.0253  0.2927
  194MOL   C11339099   5.952   5.366   3.570  0.0406  1.0491 -0.1701
  194MOL   O11439100   5.829   5.374   3.502  0.0887  0.4265  0.0723
  194MOL   C11539101   5.724   5.278   3.531  0.3667 -0.4043 -0.3599
  194MOL   H11639102   5.874   5.512   3.708 -1.4924 -0.8880  0.1948
  194MOL   H11739103   5.872   5.345   3.768 -1.4352  0.3939 -0.7590
  194MOL   H11839104   5.988   5.263   3.562  0.1811  1.1295 -0.6019
  194MOL   H11939105   5.648   5.318   3.599  0.6893 -1.2949  0.5258
  194MOL   H12039106   5.674   5.243   3.441 -0.5773  0.2518 -0.1033
  194MOL   H12139107   5.768   5.198   3.590  0.3855  1.2759  1.9631
  194MOL   C12239108   6.054   5.438   3.486 -0.8411 -0.4350  0.0486
  194MOL   C12339109   6.090   5.365   3.353 -0.1158 -0.7560  0.5903
  194MOL   O12439110   6.052   5.445   3.241  0.3123  0.4868  0.1780
  194MOL   C12539111   5.937   5.397   3.167  0.1382 -0.4223 -0.0449
  194MOL   H12639112   6.144   5.445   3.548 -1.3344  0.5135  0.6711
  194MOL   H12739113   6.030   5.543   3.471  0.7912 -0.1288 -0.4866
  194MOL   H12839114   6.042   5.267   3.352 -2.5318  0.3945 -2.3566
  194MOL   H12939115   5.844   5.426   3.217  0.8263  1.3924  0.2172
  194MOL   H13039116   5.945   5.462   3.080 -2.6858  0.8935  0.6100
  194MOL   H13139117   5.931   5.296   3.128 -0.6076 -0.2873 -0.2908
  194MOL   C13239118   6.242   5.339   3.348 -0.1368  0.3044 -0.3294
  194MOL   C13339119   6.294   5.251   3.237  0.2830  0.4194 -0.4919
  194MOL   O13439120   6.432   5.283   3.240  0.2469  0.0172 -0.3121
  194MOL   C13539121   6.485   5.279   3.110  0.2926 -0.0977  0.0537
  194MOL   H13639122   6.277   5.290   3.439  0.8555  1.1620 -0.2351
  194MOL   H13739123   6.282   5.441   3.344 -2.8684  1.5619  2.2638
  194MOL   H13839124   6.245   5.283   3.146  0.5100  1.2516 -0.3246
  194MOL   H13939125   6.589   5.245   3.110  0.2987 -0.1116 -1.0847
  194MOL   H14039126   6.445   5.190   3.060  0.1100 -0.0072  0.0393
  194MOL   H14139127   6.468   5.364   3.045  2.1364 -0.3665 -0.8193
  194MOL   C14239128   6.273   5.103   3.281 -0.2551  0.6770  0.0639
  194MOL   C14339129   6.196   5.020   3.170 -0.3250 -0.5542 -0.2329
  194MOL   O14439130   6.284   4.953   3.078  0.2875 -0.6989  0.0537
  194MOL   C14539131   6.225   4.943   2.950  0.3345 -0.6912 -1.1365
  194MOL   H14639132   6.219   5.110   3.375 -1.5932 -0.3414 -0.6041
  194MOL   H14739133   6.360   5.045   3.312 -1.6682 -1.1102  0.8002
  194MOL   H14839134   6.121   5.079   3.118 -1.4711 -2.2766 -0.5879
  194MOL   H14939135   6.124   4.903   2.959  0.8830 -1.8443 -0.0062
  194MOL   H15039136   6.218   5.032   2.888 -0.5761  0.6703  0.8444
  194MOL   H15139137   6.291   4.877   2.894  1.0772 -1.1694  0.2586
  194MOL   C15239138   6.118   4.907   3.251 -0.0740 -0.4227 -0.3197
  194MOL   C15339139   5.982   4.960   3.322  0.2784 -0.6843 -0.0268
  194MOL   O15439140   5.914   4.998   3.211  0.3174  0.1398  0.5460
  194MOL   C15539141   5.786   5.070   3.232  0.2419  0.3897 -0.0742
  194MOL   H15639142   6.175   4.858   3.331  0.5057  0.5826 -0.1051
  194MOL   H15739143   6.080   4.830   3.184 -2.1222 -0.0935  0.4537
  194MOL   H15839144   5.990   5.050   3.383 -2.1502  0.0382 -0.7297
  194MOL   H15939145   5.755   5.109   3.135  0.6176 -0.8042 -0.6777
  194MOL   H16039146   5.716   5.003   3.282 -0.9526  0.4037 -1.6894
  194MOL   H16139147   5.799   5.156   3.298 -1.4490  0.1297  0.6031
  194MOL   C16239148   5.912   4.849   3.392 -1.0590 -0.0473  0.0006
  194MOL   C16339149   5.965   4.816   3.534 -0.5593  0.3483 -0.3474
  194MOL   O16439150   5.969   4.938   3.608 -0.0203 -0.3959 -0.1581
  194MOL   C16539151   6.094   4.962   3.679 -0.1480  0.7589  0.0639
  194MOL   H16639152   5.911   4.756   3.335  1.3914 -1.8975  2.8555
  194MOL   H16739153   5.810   4.881   3.414  0.2744  2.5606  2.6204
  194MOL   H16839154   6.067   4.779   3.525 -0.6415  0.2867 -1.0799
  194MOL   H16939155   6.170   4.971   3.602  1.6642 -0.1581  1.7130
  194MOL   H17039156   6.092   5.050   3.744  0.8695  0.4696  0.4965
  194MOL   H17139157   6.125   4.877   3.740 -0.5376 -0.8966 -1.9830
  194MOL   C17239158   5.891   4.705   3.613 -0.6527  0.9248  0.4230
  194MOL   C17339159   5.915   4.560   3.573 -0.6175 -0.1291  0.0192
  194MOL   O17439160   6.052   4.522   3.593 -0.1032 -0.0078  0.4484
  194MOL   C17539161   6.113   4.455   3.480  0.1139  0.4102 -0.1736
  194MOL   H17639162   5.787   4.734   3.630 -1.3054 -0.7787 -0.5293
  194MOL   H17739163   5.925   4.715   3.716 -1.6329  1.8239  0.6671
  194MOL   H17839164   5.887   4.560   3.467  1.3726 -1.1374 -0.5258
  194MOL   H17939165   6.112   4.519   3.391 -0.8561 -1.7377 -1.7642
  194MOL   H18039166   6.216   4.431   3.502  0.2067  0.1804 -0.8392
  194MOL   H18139167   6.062   4.364   3.448 -1.0041  2.1464 -3.5580
  194MOL   C18239168   5.833   4.471   3.665  0.7404  0.2510 -0.1170
  194MOL   C18339169   5.830   4.322   3.641  0.3873  0.3316  0.2916
  194MOL   O18439170   5.722   4.275   3.720 -0.6988 -0.6806 -0.3674
  194MOL   C18539171   5.756   4.219   3.844 -1.0713 -0.2605 -0.4691
  194MOL   H18639172   5.727   4.496   3.663  0.5231 -0.5256  1.1359
  194MOL   H18739173   5.849   4.490   3.772 -2.5029 -1.5522  0.7232
  194MOL   H18839174   5.931   4.296   3.674  0.2651 -0.2261  0.2344
  194MOL   H18939175   5.666   4.218   3.905  0.0582 -0.7483  1.2261
  194MOL   H19039176   5.803   4.121   3.838 -2.3401 -1.1286  2.7730
  194MOL   H19139177   5.820   4.285   3.903 -2.3792  0.0581  0.6246
  194MOL   C19239178   5.798   4.277   3.497  0.4530  1.0362  0.2804
  194MOL   C19339179   5.811   4.120   3.495  0.4795 -0.4522  0.7397
  194MOL   O19439180   5.828   4.073   3.362  0.1677 -0.5067 -0.2837
  194MOL   C19539181   5.797   3.938   3.361  0.5425 -0.3288 -0.4138
  194MOL   H19639182   5.862   4.327   3.425 -1.0479  1.7927 -0.5458
  194MOL   H19739183   5.695   4.306   3.475 -1.0788 -3.6366  0.5824
  194MOL   H19839184   5.720   4.082   3.541  0.1588 -0.6498 -0.0545
  194MOL   H19939185   5.855   3.878   3.430  0.0121 -0.9506 -0.5081
  194MOL   H20039186   5.690   3.931   3.384 -0.0611  2.9099 -1.9562
  194MOL   H20139187   5.806   3.904   3.258 -1.2985  1.5114 -1.2289
  194MOL   H20239188   5.882   4.077   3.566  0.2228 -1.8167  0.1845
  195MOL     C139189   5.740   0.901   2.290  0.1257 -0.2902 -0.5689
  195MOL     C239190   5.670   0.963   2.412  0.4771  0.2124  0.5479
  195MOL     O339191   5.572   1.057   2.356  0.4727 -0.0147  0.4821
  195MOL     C439192   5.620   1.193   2.331  0.6603 -0.6005  0.5768
  195MOL     H539193   5.823   0.836   2.318  1.6067  1.2148 -1.3477
  195MOL     H639194   5.664   0.857   2.226  0.7561 -1.4801 -0.5114
  195MOL     H739195   5.729   1.030   2.473  0.1662 -1.9817  3.3588
  195MOL     H839196   5.546   1.234   2.263 -1.1181 -3.3126  0.8131
  195MOL     H939197   5.628   1.255   2.420 -0.1176 -1.2197  1.0887
  195MOL    H1039198   5.718   1.201   2.283  0.6652  1.5738  0.9075
  195MOL    H1139199   5.783   0.975   2.223 -1.2492  0.9447 -0.1157
  195MOL    C1239200   5.596   0.870   2.499  0.3668 -0.2229 -0.6933
  195MOL    C1339201   5.556   0.937   2.633  0.5580 -0.4583  0.7517
  195MOL    O1439202   5.467   0.858   2.706  0.1509 -0.3405  0.1165
  195MOL    C1539203   5.326   0.894   2.694  0.2181 -0.0204  0.0524
  195MOL    H1639204   5.653   0.782   2.529  0.7264 -0.3431 -1.6987
  195MOL    H1739205   5.506   0.833   2.450  1.2646  1.4749 -3.7478
  195MOL    H1839206   5.515   1.037   2.613 -0.2386 -0.8092  0.6048
  195MOL    H1939207   5.310   0.994   2.736 -1.9907 -0.2052 -0.2716
  195MOL    H2039208   5.281   0.901   2.595  0.7081 -1.9683 -0.3159
  195MOL    H2139209   5.262   0.828   2.752 -0.0802 -1.1437 -1.5249
  195MOL    C2239210   5.677   0.975   2.727 -0.4512 -0.1023 -0.0827
  195MOL    C2339211   5.640   1.051   2.856 -0.2486  0.5826 -0.1150
  195MOL    O2439212   5.737   1.012   2.957  0.3638 -0.5771 -0.3890
  195MOL    C2539213   5.704   0.892   3.022  0.1266  0.2610  0.1819
  195MOL    H2639214   5.757   1.031   2.679 -2.2256  1.4554 -1.3061
  195MOL    H2739215   5.721   0.882   2.762 -0.1780  0.4056  0.9443
  195MOL    H2839216   5.541   1.019   2.888 -0.2306 -0.8596 -1.4533
  195MOL    H2939217   5.796   0.853   3.066  1.0782  1.2831 -0.8700
  195MOL    H3039218   5.636   0.902   3.107 -2.1444  1.4312 -1.7235
  195MOL    H3139219   5.662   0.814   2.959  0.5707  2.1022 -2.4710
  195MOL    C3239220   5.631   1.204   2.847  0.7517  0.2676  0.1477
  195MOL    C3339221   5.632   1.275   2.986  0.1088 -0.5904  0.0572
  195MOL    O3439222   5.611   1.412   2.947 -0.1335  0.3836  0.0022
  195MOL    C3539223   5.659   1.507   3.045 -0.3083 -0.2048 -1.2087
  195MOL    H3639224   5.547   1.224   2.781  1.3281  0.6830 -0.4716
  195MOL    H3739225   5.725   1.229   2.797  2.1135 -1.9327  1.5186
  195MOL    H3839226   5.734   1.261   3.020 -0.0682  0.5945  1.1547
  195MOL    H3939227   5.636   1.486   3.149 -0.7443 -2.6471 -1.7623
  195MOL    H4039228   5.767   1.514   3.036 -0.1029 -0.9694  0.5684
  195MOL    H4139229   5.611   1.604   3.030 -1.5517 -0.4266  1.2113
  195MOL    C4239230   5.528   1.225   3.087  0.5596  0.2326 -0.7903
  195MOL    C4339231   5.382   1.223   3.042 -0.1499 -0.0644 -0.1397
  195MOL    O4439232   5.303   1.125   3.114 -0.7317 -0.2377 -0.2879
  195MOL    C4539233   5.271   1.010   3.039  0.0929 -0.0919  0.4472
  195MOL    H4639234   5.537   1.273   3.185 -1.7228  0.8561 -0.8640
  195MOL    H4739235   5.551   1.120   3.105 -0.3447  0.2612  0.6320
  195MOL    H4839236   5.377   1.211   2.934 -1.8022  2.1322 -0.3475
  195MOL    H4939237   5.362   0.956   3.014 -0.2461  0.0258 -1.0747
  195MOL    H5039238   5.227   0.936   3.106 -1.2510 -0.0235 -0.3435
  195MOL    H5139239   5.216   1.033   2.948 -0.1608 -1.5276  0.2343
  195MOL    C5239240   5.310   1.356   3.069  0.7082  0.0006 -0.1206
  195MOL    C5339241   5.214   1.402   2.950 -0.0189  0.3859  0.1124
  195MOL    O5439242   5.104   1.479   2.995 -0.3844 -1.2406 -0.0463
  195MOL    C5539243   4.998   1.406   3.062  0.3312  0.0272 -0.2031
  195MOL    H5639244   5.387   1.431   3.085  1.7210 -1.3478  1.5474
  195MOL    H5739245   5.258   1.348   3.165 -1.8529  0.6820 -1.4094
  195MOL    H5839246   5.166   1.320   2.897 -0.3096 -0.4357  1.6161
  195MOL    H5939247   5.035   1.359   3.153 -0.8227  1.0708  0.8332
  195MOL    H6039248   4.911   1.468   3.083  0.8100  0.5886  0.1695
  195MOL    H6139249   4.955   1.328   3.001 -1.3694  0.8984 -0.1577
  195MOL    C6239250   5.299   1.473   2.842  0.3122  0.7877 -0.6759
  195MOL    C6339251   5.214   1.513   2.716  0.2937  0.0614 -0.6147
  195MOL    O6439252   5.285   1.624   2.652 -0.1321 -0.0617 -0.5410
  195MOL    C6539253   5.257   1.751   2.711  0.2230 -0.9450  0.8491
  195MOL    H6639254   5.379   1.406   2.812 -0.4149 -0.3665 -0.0634
  195MOL    H6739255   5.349   1.559   2.887  1.2205 -0.9660  1.7740
  195MOL    H6839256   5.116   1.550   2.743  1.0809  1.7391  0.0317
  195MOL    H6939257   5.283   1.750   2.817  0.9088 -2.4553  0.6768
  195MOL    H7039258   5.305   1.831   2.654 -2.2734 -0.4724 -0.6612
  195MOL    H7139259   5.151   1.770   2.699  0.0088 -1.6501  1.6550
  195MOL    C7239260   5.214   1.406   2.610  0.1820 -0.1971  0.2169
  195MOL    C7339261   5.140   1.432   2.475  0.4829  0.1715  0.8951
  195MOL    O7439262   5.133   1.310   2.395  0.2585 -1.0177 -0.3624
  195MOL    C7539263   5.263   1.267   2.353  0.2636 -0.3548  0.2726
  195MOL    H7639264   5.165   1.321   2.656 -2.5610  0.5840 -1.1500
  195MOL    H7739265   5.319   1.392   2.583  0.2364 -0.7465  0.7187
  195MOL    H7839266   5.193   1.510   2.420  0.9405 -0.2072  0.8011
  195MOL    H7939267   5.319   1.206   2.423 -0.1437 -2.0424 -0.8565
  195MOL    H8039268   5.250   1.197   2.271 -2.0657  1.1371 -0.6747
  195MOL    H8139269   5.324   1.357   2.341  0.8529 -0.6255  1.1350
  195MOL    C8239270   4.989   1.468   2.502  0.1977  0.1877  0.4068
  195MOL    C8339271   4.924   1.533   2.380 -0.0556  0.3128 -0.5797
  195MOL    O8439272   4.909   1.441   2.271  0.5152  0.4648 -0.0238
  195MOL    C8539273   4.873   1.494   2.143 -0.3080 -0.9807 -0.2501
  195MOL    H8639274   4.984   1.543   2.581  2.8191  0.6080  0.2200
  195MOL    H8739275   4.928   1.381   2.525 -2.0936  1.3030 -1.2114
  195MOL    H8839276   4.979   1.625   2.357  0.9296  0.1511  1.0765
  195MOL    H8939277   4.931   1.576   2.102 -0.3167 -0.3756  0.9382
  195MOL    H9039278   4.891   1.409   2.077 -1.6264 -1.5030  0.0317
  195MOL    H9139279   4.766   1.513   2.133  0.0547  0.6813 -1.1499
  195MOL    C9239280   4.784   1.593   2.419 -0.9348  0.1116  0.6703
  195MOL    C9339281   4.804   1.732   2.477 -0.2682  0.1417 -0.0392
  195MOL    O9439282   4.866   1.821   2.387  0.2328  0.7413  0.9547
  195MOL    C9539283   4.992   1.881   2.419  0.2670  0.1521  0.2074
  195MOL    H9639284   4.733   1.519   2.480 -1.6573  0.8531  0.9861
  195MOL    H9739285   4.724   1.596   2.329 -3.2258  2.1431  2.1854
  195MOL    H9839286   4.865   1.725   2.567  0.5654  0.2070 -0.5943
  195MOL    H9939287   5.058   1.794   2.415 -1.6803 -1.3749  0.4926
  195MOL   H10039288   5.024   1.948   2.340 -1.2775  0.6567 -0.0111
  195MOL   H10139289   4.997   1.935   2.514  1.5482  1.7283 -0.7309
  195MOL   C10239290   4.667   1.779   2.527  0.0408 -0.2402  0.5471
  195MOL   C10339291   4.681   1.922   2.597  0.3815  0.0830 -0.9012
  195MOL   O10439292   4.548   1.976   2.614  0.2335 -0.4071  0.2994
  195MOL   C10539293   4.529   2.107   2.569 -0.2641  0.0093  0.6679
  195MOL   H10639294   4.634   1.700   2.594 -0.9889 -0.8889 -0.7039
  195MOL   H10739295   4.608   1.787   2.436 -2.2660  1.3097  2.1394
  195MOL   H10839296   4.729   1.990   2.527  3.3433  2.7662  3.5524
  195MOL   H10939297   4.428   2.146   2.579 -0.3076  0.0044  0.2615
  195MOL   H11039298   4.610   2.170   2.607  0.8477 -0.1512 -1.3084
  195MOL   H11139299   4.561   2.109   2.464  2.5516 -0.2575  1.4710
  195MOL   C11239300   4.757   1.932   2.734  0.5813  0.1455  0.2023
  195MOL   C11339301   4.714   1.832   2.850  0.2581 -0.3006  0.9653
  195MOL   O11439302   4.814   1.851   2.952 -0.1499  0.0377 -0.4025
  195MOL   C11539303   4.889   1.733   2.984  0.0787  0.6793 -0.1437
  195MOL   H11639304   4.752   2.035   2.769  2.2799  0.3740 -0.1523
  195MOL   H11739305   4.864   1.916   2.717  0.4758 -0.5882  0.2149
  195MOL   H11839306   4.716   1.734   2.802 -0.4511  0.5341 -0.8134
  195MOL   H11939307   4.974   1.759   3.047 -0.3763 -0.4414  0.9583
  195MOL   H12039308   4.815   1.677   3.041  0.2738 -1.4280 -1.9078
  195MOL   H12139309   4.924   1.679   2.896 -1.0681 -0.0184 -0.1868
  195MOL   C12239310   4.568   1.848   2.908  0.5029 -0.9360  0.2792
  195MOL   C12339311   4.522   1.749   3.014  0.1779  0.7535 -0.8439
  195MOL   O12439312   4.389   1.797   3.038  0.0044  0.1999  0.1382
  195MOL   C12539313   4.368   1.827   3.171 -0.0509  0.0401 -0.7821
  195MOL   H12639314   4.506   1.856   2.819  0.9542 -0.5315  0.0011
  195MOL   H12739315   4.547   1.943   2.957  0.1589 -1.5427  1.3109
  195MOL   H12839316   4.587   1.757   3.102 -0.9236 -0.7600  0.1345
  195MOL   H12939317   4.374   1.746   3.243  1.0594  0.7006 -0.1130
  195MOL   H13039318   4.435   1.901   3.215  0.1456 -1.8806  2.3099
  195MOL   H13139319   4.266   1.866   3.170  0.1245  0.5196 -0.4056
  195MOL   C13239320   4.519   1.606   2.957  0.0734  0.3808 -0.4728
  195MOL   C13339321   4.476   1.496   3.061  0.9849  0.4382  0.5013
  195MOL   O13439322   4.441   1.386   2.977  0.7558  0.0905 -0.1818
  195MOL   C13539323   4.310   1.341   2.984 -0.4267  0.4363 -0.3086
  195MOL   H13639324   4.615   1.586   2.911  0.1022  0.2609 -0.3627
  195MOL   H13739325   4.448   1.598   2.875  0.7578  0.9147 -1.1184
  195MOL   H13839326   4.385   1.532   3.108  2.3823  2.0086  2.0782
  195MOL   H13939327   4.239   1.423   2.988 -1.1392 -0.2661  4.9521
  195MOL   H14039328   4.293   1.299   2.885  2.0613 -1.6566  0.0946
  195MOL   H14139329   4.288   1.269   3.063  2.8847  0.3554  0.6198
  195MOL   C14239330   4.597   1.457   3.155  0.4266  0.1548 -0.1586
  195MOL   C14339331   4.553   1.347   3.256  0.3402  1.1270 -0.5919
  195MOL   O14439332   4.682   1.287   3.281  0.5560  0.2403 -0.1373
  195MOL   C14539333   4.696   1.156   3.222 -0.3939 -0.2556 -0.4697
  195MOL   H14639334   4.624   1.550   3.204 -0.2523  0.0344  0.4524
  195MOL   H14739335   4.680   1.429   3.090 -0.6665 -0.9397 -1.1284
  195MOL   H14839336   4.478   1.282   3.210 -0.4218  0.7880  1.0695
  195MOL   H14939337   4.787   1.118   3.269  0.5259  1.0823 -1.1369
  195MOL   H15039338   4.618   1.082   3.238 -0.5466 -0.0937 -0.4680
  195MOL   H15139339   4.728   1.160   3.118 -0.6293 -1.8743 -0.6103
  195MOL   C15239340   4.506   1.406   3.393 -0.4776  0.7036  0.3434
  195MOL   C15339341   4.359   1.452   3.402  0.4605  1.1476 -0.4786
  195MOL   O15439342   4.267   1.342   3.360 -0.1287 -0.0386 -0.1998
  195MOL   C15539343   4.161   1.394   3.283  0.2008 -0.3392 -0.4396
  195MOL   H15639344   4.583   1.470   3.437  1.8412 -0.6264 -1.6234
  195MOL   H15739345   4.512   1.313   3.448 -3.3573 -0.8178 -1.8259
  195MOL   H15839346   4.356   1.539   3.336  0.0427 -0.5034 -2.7063
  195MOL   H15939347   4.188   1.472   3.211  0.8145 -1.4113 -1.3866
  195MOL   H16039348   4.105   1.312   3.238 -0.4287 -1.9123  3.0889
  195MOL   H16139349   4.086   1.448   3.341  0.4345  0.5523 -0.9538
  195MOL   C16239350   4.324   1.511   3.538 -0.2459  0.3810  0.4469
  195MOL   C16339351   4.327   1.424   3.668 -0.7495  0.1009  0.9594
  195MOL   O16439352   4.464   1.379   3.708  1.2142 -0.4454 -0.3335
  195MOL   C16539353   4.487   1.237   3.712  0.6779  0.3276  0.4792
  195MOL   H16639354   4.229   1.565   3.530  0.2342  1.0388 -0.9747
  195MOL   H16739355   4.389   1.598   3.548 -1.1955  1.5028 -2.5653
  195MOL   H16839356   4.265   1.335   3.658  0.9271 -0.9111 -0.6411
  195MOL   H16939357   4.590   1.223   3.748  0.5819  1.1265  1.0664
  195MOL   H17039358   4.429   1.197   3.795 -1.1177 -0.8736 -1.3172
  195MOL   H17139359   4.472   1.178   3.622 -1.3537 -0.4290  1.2807
  195MOL   C17239360   4.282   1.504   3.788 -0.2114 -0.1497  0.2635
  195MOL   C17339361   4.142   1.562   3.788 -0.1109  0.2121 -0.5159
  195MOL   O17439362   4.055   1.452   3.760 -0.0084 -0.5284  0.4112
  195MOL   C17539363   3.961   1.485   3.656 -0.6153  0.1122 -0.5555
  195MOL   H17639364   4.349   1.589   3.799  1.6523 -1.4829 -0.3138
  195MOL   H17739365   4.300   1.434   3.870 -0.7000  0.3205  0.7772
  195MOL   H17839366   4.135   1.644   3.716  0.6128  2.8841  2.3646
  195MOL   H17939367   3.898   1.571   3.679 -0.7013 -0.3896  1.1471
  195MOL   H18039368   4.015   1.497   3.562 -0.7862  2.8056 -0.3509
  195MOL   H18139369   3.899   1.397   3.643  0.7317 -0.6138 -2.2190
  195MOL   C18239370   4.085   1.612   3.922  0.0975  0.4558  0.2774
  195MOL   C18339371   4.171   1.723   3.986  0.3861  1.0648  0.1012
  195MOL   O18439372   4.193   1.819   3.878 -0.8013 -0.4736  0.1265
  195MOL   C18539373   4.324   1.866   3.874 -0.2493 -0.9928  0.2548
  195MOL   H18639374   4.071   1.531   3.994 -1.5217 -1.2412 -1.8815
  195MOL   H18739375   3.983   1.642   3.899  0.6935  0.9851 -1.7791
  195MOL   H18839376   4.262   1.672   4.018  0.3343  0.3404 -0.8802
  195MOL   H18939377   4.399   1.789   3.893 -1.3088 -1.4023  2.9823
  195MOL   H19039378   4.345   1.903   3.773 -1.7006 -2.6723 -0.6935
  195MOL   H19139379   4.344   1.947   3.944 -0.6470 -0.5299 -0.1669
  195MOL   C19239380   4.103   1.798   4.102  0.4143  0.3322 -0.2015
  195MOL   C19339381   3.966   1.858   4.075  0.4846 -0.6005 -0.5445
  195MOL   O19439382   3.910   1.895   4.198 -0.8063 -0.1353  0.9219
  195MOL   C19539383   3.807   1.990   4.195  0.0918  0.3618 -0.3089
  195MOL   H19639384   4.181   1.861   4.145  0.6727 -0.8118  1.0423
  195MOL   H19739385   4.096   1.723   4.180  2.9434  0.0514 -0.1990
  195MOL   H19839386   3.901   1.797   4.013 -1.9135 -0.0516  1.3286
  195MOL   H19939387   3.723   1.952   4.137 -0.0217 -2.0357  1.4146
  195MOL   H20039388   3.779   2.003   4.299 -2.8239  1.7569 -1.2199
  195MOL   H20139389   3.852   2.082   4.156 -0.9211  0.5236 -1.1147
  195MOL   H20239390   3.990   1.950   4.021 -2.0687  0.5311  0.1742
  196MOL     C139391   7.073   6.565   0.243 -0.2601  0.3277  0.5772
  196MOL     C239392   6.955   6.473   0.207 -0.7083 -0.4045 -0.7973
  196MOL     O339393   6.847   6.567   0.196 -0.0420  0.4005  0.1312
  196MOL     C439394   6.778   6.612   0.318 -0.4671  0.9489  0.4010
  196MOL     H539395   7.073   6.598   0.347  0.8467 -1.2159  1.0946
  196MOL     H639396   7.171   6.520   0.225 -0.0412  0.4522  1.4382
  196MOL     H739397   6.937   6.401   0.287  0.3787 -1.9233 -1.8992
  196MOL     H839398   6.676   6.646   0.297 -1.9249 -1.8721  2.5496
  196MOL     H939399   6.776   6.529   0.388 -0.1089  0.9839  0.4509
  196MOL    H1039400   6.835   6.693   0.362 -0.4124  1.9833 -1.4875
  196MOL    H1139401   7.074   6.646   0.171 -0.6860 -1.0385 -1.0021
  196MOL    C1239402   6.973   6.394   0.074  0.3064 -0.3792 -0.0492
  196MOL    C1339403   7.103   6.302   0.062  0.4918 -0.1223  0.1202
  196MOL    O1439404   7.092   6.200   0.170  0.7922 -0.5194 -0.8948
  196MOL    C1539405   7.225   6.166   0.218  0.1123  0.5592  0.6905
  196MOL    H1639406   6.982   6.468   7.805 -2.7060 -0.6248 -0.6682
  196MOL    H1739407   6.884   6.334   0.056  0.2818  0.0960 -1.6202
  196MOL    H1839408   7.189   6.368   0.061  0.3261  0.0845 -2.3108
  196MOL    H1939409   7.295   6.248   0.232  1.0927 -0.5971  2.7066
  196MOL    H2039410   7.211   6.116   0.313 -3.3499 -3.7697 -1.8947
  196MOL    H2139411   7.282   6.093   0.159  1.2819  0.7844  1.5162
  196MOL    C2239412   7.098   6.215   7.747  0.0773  0.6704  0.2222
  196MOL    C2339413   7.122   6.281   7.608  1.0971 -0.2374  0.1706
  196MOL    O2439414   7.259   6.315   7.605 -0.2360 -0.1169 -0.4110
  196MOL    C2539415   7.307   6.422   7.529 -0.0500  0.3768 -0.5149
  196MOL    H2639416   6.997   6.176   7.737  0.7492 -1.4677  1.4025
  196MOL    H2739417   7.153   6.121   7.752  1.0408  1.2633  0.8288
  196MOL    H2839418   7.060   6.370   7.606  3.1039  1.1773 -0.1793
  196MOL    H2939419   7.306   6.403   7.422  2.9488 -0.5480 -0.4174
  196MOL    H3039420   7.258   6.517   7.554  0.8024  0.8072 -0.4633
  196MOL    H3139421   7.415   6.431   7.535 -0.0986  1.8952 -1.7603
  196MOL    C3239422   7.092   6.197   7.485  0.2587 -0.3105 -0.1311
  196MOL    C3339423   6.942   6.162   7.473  0.2291  0.0139  0.2572
  196MOL    O3439424   6.865   6.281   7.463 -0.7455  0.0458  0.1792
  196MOL    C3539425   6.736   6.279   7.527  0.7536  0.0348 -0.1453
  196MOL    H3639426   7.141   6.100   7.485  0.6251 -0.1439 -1.9086
  196MOL    H3739427   7.121   6.248   7.393  1.1257 -1.4385 -0.4906
  196MOL    H3839428   6.914   6.106   7.562 -0.0490 -0.3136 -0.0334
  196MOL    H3939429   6.653   6.334   7.483  0.0905  0.2056  1.3186
  196MOL    H4039430   6.698   6.179   7.508  2.4339  0.0561 -4.1918
  196MOL    H4139431   6.750   6.315   7.629  0.4994 -0.1734 -0.0379
  196MOL    C4239432   6.904   6.089   7.341  0.1674  0.9665 -0.0827
  196MOL    C4339433   6.952   5.944   7.334  0.2823 -0.2158 -0.1872
  196MOL    O4439434   6.865   5.876   7.425  0.3636 -0.0314  0.3720
  196MOL    C4539435   6.911   5.768   7.495 -0.4567  0.6552 -0.0889
  196MOL    H4639436   6.953   6.147   7.262 -1.1173  1.4584 -0.5276
  196MOL    H4739437   6.796   6.085   7.327  0.4997 -3.2397 -2.2373
  196MOL    H4839438   7.056   5.944   7.365 -0.0875  3.0322  1.2897
  196MOL    H4939439   7.018   5.772   7.517 -0.6205 -2.8183  1.6695
  196MOL    H5039440   6.842   5.768   7.579  0.6911  0.6358  0.8732
  196MOL    H5139441   6.899   5.668   7.453  0.2256  1.5368 -2.4585
  196MOL    C5239442   6.937   5.888   7.191 -0.0411 -0.4703  0.4303
  196MOL    C5339443   7.042   5.915   7.091 -0.1727  0.5467  0.0426
  196MOL    O5439444   7.165   5.873   7.150 -0.0204  0.1259  0.6589
  196MOL    C5539445   7.274   5.960   7.135 -0.4884  0.6367  0.2376
  196MOL    H5639446   6.844   5.921   7.145  1.0327 -2.1839 -3.0940
  196MOL    H5739447   6.926   5.780   7.198 -0.8178 -0.4767 -0.7028
  196MOL    H5839448   7.033   6.020   7.062  0.5662  0.2595 -1.2681
  196MOL    H5939449   7.364   5.905   7.163  0.6548  0.3145 -3.7667
  196MOL    H6039450   7.289   5.996   7.033  0.7689  0.0587  0.2143
  196MOL    H6139451   7.255   6.042   7.204  1.8505  1.0089  0.4724
  196MOL    C6239452   7.018   5.821   6.967 -0.0417 -0.2318 -0.2458
  196MOL    C6339453   7.109   5.856   6.846  0.0886 -0.5312  0.3037
  196MOL    O6439454   7.069   5.756   6.752  0.1933  0.1944  0.1694
  196MOL    C6539455   7.159   5.722   6.644  1.4140  0.7796  0.2383
  196MOL    H6639456   6.910   5.821   6.951  0.1244 -0.4368 -1.3438
  196MOL    H6739457   7.041   5.719   6.998 -0.4879  0.3233  2.0741
  196MOL    H6839458   7.212   5.838   6.876 -0.1543  1.8144  2.6882
  196MOL    H6939459   7.151   5.798   6.566 -1.0613  1.6425  1.2809
  196MOL    H7039460   7.265   5.729   6.669  1.6813  0.2886 -0.7486
  196MOL    H7139461   7.139   5.620   6.610  0.1147  0.8916  0.6301
  196MOL    C7239462   7.095   5.996   6.796 -0.7273  0.1314 -0.0447
  196MOL    C7339463   6.952   6.038   6.746  0.2589  0.7283  0.1092
  196MOL    O7439464   6.903   6.137   6.844  0.2532 -0.2002 -0.4780
  196MOL    C7539465   6.766   6.128   6.880  1.0235  0.0486  0.2331
  196MOL    H7639466   7.177   6.015   6.728 -1.7075  2.3029 -0.6541
  196MOL    H7739467   7.125   6.071   6.869 -1.1029  1.0900 -0.8631
  196MOL    H7839468   6.885   5.952   6.747  0.1349  0.8113  3.0679
  196MOL    H7939469   6.706   6.166   6.797 -2.1178 -2.0617  1.4488
  196MOL    H8039470   6.734   6.028   6.910  0.9569 -0.4739 -1.5133
  196MOL    H8139471   6.739   6.204   6.953  0.3758 -0.0256  0.0733
  196MOL    C8239472   6.965   6.094   6.601 -0.0792  0.8653 -0.2579
  196MOL    C8339473   6.839   6.106   6.518 -1.2331 -0.5778  0.3754
  196MOL    O8439474   6.874   6.208   6.422 -0.4688  0.2376  0.1332
  196MOL    C8539475   6.844   6.344   6.465  0.3208  0.2440  0.2887
  196MOL    H8639476   7.029   6.028   6.542 -1.1746  0.6763 -1.2511
  196MOL    H8739477   7.025   6.184   6.612  2.5056 -1.1397  2.8870
  196MOL    H8839478   6.755   6.132   6.582  0.2383  0.1564  2.0483
  196MOL    H8939479   6.740   6.347   6.498  0.4822 -1.1858  0.9798
  196MOL    H9039480   6.905   6.367   6.553  0.3172  0.6712  0.1809
  196MOL    H9139481   6.876   6.407   6.382 -0.1486 -3.0306 -2.4492
  196MOL    C9239482   6.794   5.976   6.443  0.0203 -0.9413  0.5169
  196MOL    C9339483   6.735   5.860   6.519  0.1047 -0.0047 -0.5034
  196MOL    O9439484   6.636   5.931   6.592 -0.1407 -0.5361 -0.3200
  196MOL    C9539485   6.601   5.850   6.706  0.2968 -0.9578 -0.0044
  196MOL    H9639486   6.861   5.944   6.363 -1.9942 -1.9873 -0.7921
  196MOL    H9739487   6.716   6.011   6.376  0.0748 -3.1731 -0.7705
  196MOL    H9839488   6.817   5.808   6.569  0.7252  2.1320  0.7919
  196MOL    H9939489   6.689   5.848   6.770  1.3974  3.6080 -1.2029
  196MOL   H10039490   6.515   5.894   6.756  2.4866  1.7750  1.4434
  196MOL   H10139491   6.578   5.744   6.691 -0.5376 -0.8254  0.2844
  196MOL   C10239492   6.668   5.756   6.423  0.3284  0.3129 -0.3717
  196MOL   C10339493   6.765   5.693   6.330 -0.4149  0.2826 -0.2816
  196MOL   O10439494   6.835   5.598   6.407  0.3610 -0.0936 -0.6874
  196MOL   C10539495   6.956   5.545   6.342  0.1523 -0.1291  0.1460
  196MOL   H10639496   6.591   5.809   6.366  0.2394  0.7877  0.1782
  196MOL   H10739497   6.614   5.679   6.479  0.1461  1.0365  0.4704
  196MOL   H10839498   6.838   5.761   6.286  0.3271 -1.5488 -1.9989
  196MOL   H10939499   6.987   5.462   6.406  0.0105  1.5662  2.4685
  196MOL   H11039500   6.933   5.500   6.245  0.7024 -1.0421  0.4329
  196MOL   H11139501   7.028   5.626   6.340  2.4963 -2.1732 -2.2603
  196MOL   C11239502   6.699   5.628   6.204  0.7980  0.0487  0.3453
  196MOL   C11339503   6.660   5.736   6.103 -0.7634  0.1501  0.1074
  196MOL   O11439504   6.775   5.787   6.044  0.3696 -0.0237 -0.0175
  196MOL   C11539505   6.787   5.931   6.022 -0.3390  0.8281  0.0683
  196MOL   H11639506   6.616   5.573   6.249 -0.0639  2.7228  2.1726
  196MOL   H11739507   6.765   5.550   6.166  1.2716  1.2256 -1.2906
  196MOL   H11839508   6.611   5.820   6.152  0.3565  0.3439  0.9061
  196MOL   H11939509   6.841   5.965   5.933 -1.1298  0.5695 -0.5091
  196MOL   H12039510   6.686   5.971   6.018  0.2531  2.8533  3.3172
  196MOL   H12139511   6.841   5.982   6.102  2.0298  0.1134 -1.0063
  196MOL   C12239512   6.568   5.684   5.989 -0.9704 -0.1123  0.8925
  196MOL   C12339513   6.435   5.622   6.038 -0.4691  0.0851 -0.2048
  196MOL   O12439514   6.372   5.724   6.120  0.9013  0.2571  0.1977
  196MOL   C12539515   6.236   5.707   6.164  0.6586 -0.2452 -0.2181
  196MOL   H12639516   6.622   5.609   5.932 -0.1623  0.8871  0.3419
  196MOL   H12739517   6.549   5.769   5.923  2.2584  0.3960  0.5714
  196MOL   H12839518   6.461   5.535   6.098 -0.6017 -0.2961 -0.7009
  196MOL   H12939519   6.215   5.611   6.212 -0.2725  0.2876  0.4438
  196MOL   H13039520   6.216   5.795   6.225 -0.9124 -1.3408  0.8847
  196MOL   H13139521   6.172   5.723   6.077 -1.3958 -1.3812  1.0420
  196MOL   C13239522   6.348   5.578   5.914  0.7216 -0.0717 -0.0616
  196MOL   C13339523   6.232   5.479   5.952  0.0284  0.0525  0.5449
  196MOL   O13439524   6.163   5.440   5.837 -0.1098  0.0432  0.0104
  196MOL   C13539525   6.088   5.538   5.768  0.3903  0.0959 -0.3985
  196MOL   H13639526   6.413   5.530   5.841 -0.0274 -1.0678 -0.1007
  196MOL   H13739527   6.308   5.668   5.868 -2.4052 -1.2691  0.1422
  196MOL   H13839528   6.159   5.510   6.027  1.2714  1.4078  1.2063
  196MOL   H13939529   6.017   5.499   5.696 -2.0610 -0.7145  2.3875
  196MOL   H14039530   6.042   5.604   5.842  2.7693 -0.3509  1.5381
  196MOL   H14139531   6.165   5.595   5.716 -0.4542  2.7004  1.0495
  196MOL   C14239532   6.283   5.342   6.012 -1.1322  0.1007 -0.0777
  196MOL   C14339533   6.171   5.234   6.032  0.0183 -0.4095  0.0987
  196MOL   O14439534   6.254   5.122   6.074  0.1698  0.1996 -0.2174
  196MOL   C14539535   6.224   5.001   6.003  0.4455 -0.3895 -0.5083
  196MOL   H14639536   6.316   5.366   6.113 -0.0224 -1.0686 -0.1446
  196MOL   H14739537   6.369   5.300   5.960 -0.9376 -1.3516  1.3800
  196MOL   H14839538   6.123   5.194   5.942 -0.3180  2.5312 -1.0733
  196MOL   H14939539   6.243   5.015   5.897  1.9031  0.6473 -0.1295
  196MOL   H15039540   6.288   4.919   6.036  1.1933  0.8223  1.1423
  196MOL   H15139541   6.119   4.981   6.024  0.9786 -0.7594  1.9708
  196MOL   C15239542   6.058   5.252   6.141  0.5398  0.5028 -0.0593
  196MOL   C15339543   5.923   5.310   6.098  0.0700  0.2925  0.1708
  196MOL   O15439544   5.895   5.240   5.973 -0.3755 -0.4593  0.2603
  196MOL   C15539545   5.827   5.315   5.875  0.5332 -1.1910 -0.2731
  196MOL   H15639546   6.091   5.319   6.221 -0.7896  0.6962  0.3423
  196MOL   H15739547   6.033   5.155   6.183  1.4535  0.9902  1.6650
  196MOL   H15839548   5.940   5.417   6.088  1.8328 -0.0493 -0.7921
  196MOL   H15939549   5.795   5.247   5.796 -0.9441 -0.5528 -0.2247
  196MOL   H16039550   5.739   5.355   5.925  0.7822  1.2120 -1.6679
  196MOL   H16139551   5.869   5.400   5.821 -0.2532 -0.1551  0.7213
  196MOL   C16239552   5.813   5.287   6.201 -0.1523 -0.0162  0.1200
  196MOL   C16339553   5.828   5.345   6.345  0.2239 -0.8813  0.0666
  196MOL   O16439554   5.853   5.485   6.317 -0.2643 -0.1131 -0.0109
  196MOL   C16539555   5.921   5.542   6.432  0.1297 -0.5675  0.6369
  196MOL   H16639556   5.792   5.181   6.213 -0.1990 -0.0689 -0.4007
  196MOL   H16739557   5.721   5.328   6.159 -0.6888 -1.5146 -0.1973
  196MOL   H16839558   5.917   5.302   6.390 -0.1156 -1.3240  0.3289
  196MOL   H16939559   6.005   5.481   6.466 -0.1746 -0.9737  0.6601
  196MOL   H17039560   5.977   5.629   6.398  0.5908 -0.2727  2.0887
  196MOL   H17139561   5.845   5.571   6.504  1.8030  2.1180  1.4075
  196MOL   C17239562   5.698   5.327   6.420  0.1400 -1.1790  0.0655
  196MOL   C17339563   5.675   5.178   6.455  0.1031  0.7519 -0.0992
  196MOL   O17439564   5.789   5.127   6.517 -0.4783  0.6546 -0.2418
  196MOL   C17539565   5.869   5.019   6.465  0.2258 -0.6289 -0.3512
  196MOL   H17639566   5.616   5.362   6.357  0.0439 -1.5922 -0.0439
  196MOL   H17739567   5.708   5.383   6.512  2.8368  1.0112 -1.4696
  196MOL   H17839568   5.664   5.133   6.357  0.4781  0.3090  0.0625
  196MOL   H17939569   5.811   4.927   6.469  0.9181 -1.0646 -0.1460
  196MOL   H18039570   5.899   5.032   6.361  2.0030 -0.2482  0.1950
  196MOL   H18139571   5.950   5.002   6.536  0.7537  2.4759 -0.1559
  196MOL   C18239572   5.538   5.150   6.524  0.2916 -0.0465 -0.0379
  196MOL   C18339573   5.502   4.998   6.536 -0.6193  0.2321 -0.9874
  196MOL   O18439574   5.364   4.979   6.564 -0.0552 -0.5490  0.2774
  196MOL   C18539575   5.325   5.003   6.701 -0.3169 -0.7375  0.3759
  196MOL   H18639576   5.471   5.211   6.463  1.8387  1.3119 -0.3845
  196MOL   H18739577   5.541   5.202   6.620  1.4263  1.5722 -0.9369
  196MOL   H18839578   5.564   4.941   6.604  0.1303 -0.1344 -1.9665
  196MOL   H18939579   5.328   5.110   6.723 -0.7438 -0.5853 -0.3186
  196MOL   H19039580   5.220   4.979   6.719 -0.7703  0.2584 -0.9224
  196MOL   H19139581   5.393   4.952   6.770 -1.6352 -0.2926  2.0455
  196MOL   C19239582   5.520   4.925   6.400 -0.9738 -0.1993 -0.3623
  196MOL   C19339583   5.479   4.775   6.406 -0.0377 -0.9593 -0.1269
  196MOL   O19439584   5.568   4.691   6.479  0.1286  0.7139 -0.1232
  196MOL   C19539585   5.537   4.559   6.473  0.9480  0.4201 -0.2241
  196MOL   H19639586   5.624   4.932   6.367 -0.5487 -1.3896  0.6857
  196MOL   H19739587   5.474   4.992   6.327  2.1427  3.5388  0.9294
  196MOL   H19839588   5.467   4.742   6.303 -0.7183  1.4095 -0.8293
  196MOL   H19939589   5.432   4.548   6.498  1.0911 -1.7115 -0.4549
  196MOL   H20039590   5.572   4.520   6.378 -1.3423 -3.6397  0.5053
  196MOL   H20139591   5.589   4.513   6.557  0.1924 -1.2856 -0.6771
  196MOL   H20239592   5.376   4.760   6.438  0.4743 -0.4106  1.8630
  197MOL     C139593   7.306   0.453   4.510 -0.0298  0.5054  0.2109
  197MOL     C239594   7.319   0.506   4.371  0.2388  0.2433  0.4755
  197MOL     O339595   7.430   0.594   4.354 -0.3404  0.4858  0.1750
  197MOL     C439596   7.429   0.719   4.421 -0.0345  0.0509 -0.3277
  197MOL     H539597   7.230   0.375   4.506 -1.2010  1.6228  0.4012
  197MOL     H639598   7.402   0.408   4.537  0.5126 -0.6526 -3.3498
  197MOL     H739599   7.233   0.570   4.355 -0.5198 -1.4029 -2.2970
  197MOL     H839600   7.343   0.778   4.390 -1.7161 -1.1101  2.0439
  197MOL     H939601   7.448   0.718   4.529  0.2480 -1.0420 -0.3843
  197MOL    H1039602   7.516   0.775   4.385 -1.2240  2.2922  0.2289
  197MOL    H1139603   7.261   0.524   4.579 -1.3854  0.9903 -1.1547
  197MOL    C1239604   7.321   0.400   4.264  0.1992 -0.8075  0.4018
  197MOL    C1339605   7.289   0.467   4.130 -0.2076 -0.3079  0.3155
  197MOL    O1439606   7.376   0.404   4.040  0.1972 -0.8984 -0.2306
  197MOL    C1539607   7.513   0.462   4.035  1.1584 -0.1128 -0.2102
  197MOL    H1639608   7.247   0.324   4.288  1.0455 -1.8604 -0.2503
  197MOL    H1739609   7.412   0.340   4.265 -0.3109 -1.8079 -3.5488
  197MOL    H1839610   7.314   0.573   4.120  1.2815 -0.8442 -2.2017
  197MOL    H1939611   7.545   0.478   4.138 -2.0149 -0.9206  0.9653
  197MOL    H2039612   7.568   0.388   3.976  0.6939 -2.4076  2.1098
  197MOL    H2139613   7.494   0.555   3.983  1.6105  0.5963  0.8686
  197MOL    C2239614   7.146   0.450   4.084  0.4539 -0.3295  0.6535
  197MOL    C2339615   7.111   0.501   3.942 -0.3068 -0.8371 -0.2871
  197MOL    O2439616   6.969   0.474   3.936  0.1023 -0.3782 -0.1253
  197MOL    C2539617   6.904   0.427   3.813 -0.0595  0.4559  0.3693
  197MOL    H2639618   7.076   0.497   4.153  1.8450 -0.7835  2.4106
  197MOL    H2739619   7.129   0.342   4.080  0.8667 -0.3485 -1.8522
  197MOL    H2839620   7.164   0.439   3.869  0.1237  2.0314 -2.4827
  197MOL    H2939621   6.942   0.485   3.728  1.3993 -0.6831  0.2081
  197MOL    H3039622   6.948   0.329   3.791  1.1977  0.6803  1.8156
  197MOL    H3139623   6.798   0.410   3.828 -0.0699 -0.8913 -1.0855
  197MOL    C3239624   7.130   0.649   3.907 -0.1551  0.4388 -0.5912
  197MOL    C3339625   7.073   0.742   4.021 -0.3689  0.1650  0.1690
  197MOL    O3439626   7.140   0.867   4.009 -0.0569 -0.4959  0.1327
  197MOL    C3539627   7.270   0.883   4.060  0.6797 -0.4479  0.9668
  197MOL    H3639628   7.081   0.667   3.811 -0.5144 -0.1592 -0.5183
  197MOL    H3739629   7.238   0.658   3.900  0.1713 -1.8549  0.9415
  197MOL    H3839630   7.100   0.717   4.124  0.2335  1.6520  0.3882
  197MOL    H3939631   7.347   0.823   4.011 -0.5212 -1.4923  0.3549
  197MOL    H4039632   7.301   0.988   4.060  0.5191 -0.3981  1.4120
  197MOL    H4139633   7.264   0.856   4.166  0.8360 -0.1309  1.0583
  197MOL    C4239634   6.919   0.784   4.011 -0.0031  0.2889 -0.1190
  197MOL    C4339635   6.867   0.860   4.139 -0.3240 -0.0083  0.3275
  197MOL    O4439636   6.745   0.926   4.109  0.2798 -0.4998  0.2917
  197MOL    C4539637   6.764   1.070   4.087  0.3029  0.6492  0.3766
  197MOL    H4639638   6.857   0.696   3.994 -0.7149  0.4739  1.4477
  197MOL    H4739639   6.910   0.853   3.927  0.2961 -0.0122 -0.3994
  197MOL    H4839640   6.952   0.924   4.165  0.0857 -0.0932 -0.7491
  197MOL    H4939641   6.667   1.114   4.067  0.3661  0.4486 -0.3873
  197MOL    H5039642   6.801   1.128   4.172 -2.4677 -1.4732  3.1364
  197MOL    H5139643   6.827   1.090   4.001  0.1623 -2.0323 -0.3651
  197MOL    C5239644   6.846   0.763   4.258 -0.3047  0.2527  0.2471
  197MOL    C5339645   6.871   0.830   4.389 -0.3813 -0.5737  0.5359
  197MOL    O5439646   6.781   0.798   4.494 -0.2846 -0.5597 -0.0197
  197MOL    C5539647   6.656   0.862   4.480 -0.1142 -0.4357 -0.3049
  197MOL    H5639648   6.916   0.679   4.253 -2.3470 -1.4774 -0.1396
  197MOL    H5739649   6.746   0.720   4.249  0.5055 -1.0915 -2.8752
  197MOL    H5839650   6.870   0.936   4.363 -0.8879 -0.9565 -1.0740
  197MOL    H5939651   6.616   0.868   4.378  0.8055 -0.4100 -0.6683
  197MOL    H6039652   6.576   0.819   4.541 -0.8448  0.0069 -0.9428
  197MOL    H6139653   6.671   0.962   4.518 -0.3955 -0.9876  1.2694
  197MOL    C6239654   7.013   0.785   4.439  0.3051 -0.3596 -0.1540
  197MOL    C6339655   7.071   0.881   4.544 -0.5178 -0.2306  0.6656
  197MOL    O6439656   7.200   0.835   4.583 -0.2711  0.1079 -0.3760
  197MOL    C6539657   7.212   0.756   4.699  0.2594 -0.4027 -0.2555
  197MOL    H6639658   7.081   0.791   4.354 -0.5707  1.4922 -0.7648
  197MOL    H6739659   7.012   0.682   4.476 -0.4837 -0.1870  0.3260
  197MOL    H6839660   6.994   0.897   4.619  0.2619 -0.1091  1.4610
  197MOL    H6939661   7.161   0.660   4.687 -2.4712  0.8969  0.5571
  197MOL    H7039662   7.315   0.727   4.717 -0.0336 -2.1631 -1.2305
  197MOL    H7139663   7.171   0.809   4.785  1.0209  2.8780 -1.8604
  197MOL    C7239664   7.102   1.021   4.489 -0.2248 -0.3456 -0.3107
  197MOL    C7339665   7.157   1.123   4.592  0.3160 -0.6640  0.3282
  197MOL    O7439666   7.160   1.248   4.533  0.5640 -0.0792 -0.3715
  197MOL    C7539667   7.261   1.330   4.584  0.4148 -0.3516  0.0033
  197MOL    H7639668   7.010   1.069   4.455  0.5158  0.6693 -0.8967
  197MOL    H7739669   7.176   1.013   4.410  0.1175  0.8406 -0.1167
  197MOL    H7839670   7.256   1.093   4.627  1.1615  1.8705  0.1871
  197MOL    H7939671   7.281   1.418   4.523  1.2255 -0.3481  0.2646
  197MOL    H8039672   7.242   1.370   4.683  3.0469  1.3295 -0.1146
  197MOL    H8139673   7.357   1.277   4.579  1.5263  1.3608  2.4008
  197MOL    C8239674   7.077   1.133   4.723 -0.9070 -0.6184  0.1007
  197MOL    C8339675   6.928   1.171   4.706 -0.3495  0.5490  0.0418
  197MOL    O8439676   6.862   1.134   4.825 -0.2562 -0.1459  0.3131
  197MOL    C8539677   6.822   1.004   4.833 -0.0753 -0.5101  0.6784
  197MOL    H8639678   7.117   1.214   4.784 -0.6610 -1.3753  0.9496
  197MOL    H8739679   7.105   1.049   4.786  0.5728  0.2592  0.6209
  197MOL    H8839680   6.880   1.115   4.626 -0.6712  1.3606 -0.3396
  197MOL    H8939681   6.901   0.930   4.828  1.1163  0.5838  2.6191
  197MOL    H9039682   6.762   0.979   4.921  0.0086  0.1609  0.9260
  197MOL    H9139683   6.755   0.985   4.750 -0.3586  1.1316  0.5234
  197MOL    C9239684   6.904   1.322   4.675 -0.8851  0.0852  0.6383
  197MOL    C9339685   6.758   1.357   4.645 -0.0027 -0.4942  0.1562
  197MOL    O9439686   6.759   1.497   4.655  0.2552  0.0451  0.0434
  197MOL    C9539687   6.733   1.545   4.783 -0.1543  0.9910  0.5244
  197MOL    H9639688   6.956   1.363   4.589  0.9049 -0.0094  1.6686
  197MOL    H9739689   6.952   1.367   4.761 -0.3148 -0.4418  0.5975
  197MOL    H9839690   6.685   1.315   4.715 -1.9982  0.8471 -1.0874
  197MOL    H9939691   6.637   1.505   4.816  0.2832 -0.7798 -0.2997
  197MOL   H10039692   6.809   1.531   4.859  0.2233  0.2500  0.0116
  197MOL   H10139693   6.712   1.652   4.774  0.6827  1.2696  1.7468
  197MOL   C10239694   6.714   1.321   4.505 -0.3714 -0.2696  0.4866
  197MOL   C10339695   6.576   1.367   4.454 -1.0189  0.2379  0.2423
  197MOL   O10439696   6.585   1.337   4.318 -0.7801 -0.0418  0.5666
  197MOL   C10539697   6.521   1.423   4.230  0.0041  0.4422  0.3451
  197MOL   H10639698   6.731   1.216   4.480  1.7004 -0.2294  1.5665
  197MOL   H10739699   6.791   1.364   4.440 -2.1980 -0.1023 -1.6126
  197MOL   H10839700   6.583   1.473   4.479  0.3936  0.7605 -2.1797
  197MOL   H10939701   6.445   1.487   4.276  0.4121  1.1136  0.0922
  197MOL   H11039702   6.586   1.499   4.185 -2.0227  1.8652 -0.3021
  197MOL   H11139703   6.472   1.374   4.145 -1.1708  0.6013  0.9154
  197MOL   C11239704   6.452   1.290   4.520  0.7802 -0.2096 -0.6023
  197MOL   C11339705   6.404   1.347   4.656 -0.6126 -0.3499 -0.4271
  197MOL   O11439706   6.350   1.472   4.614  0.0600  0.7708  0.4963
  197MOL   C11539707   6.364   1.582   4.713 -0.2918 -0.9115  0.1034
  197MOL   H11639708   6.466   1.182   4.518  0.8090 -0.1889 -1.4169
  197MOL   H11739709   6.374   1.316   4.449 -1.7293  0.0809  2.1348
  197MOL   H11839710   6.485   1.367   4.727 -2.1593  2.3261  0.6418
  197MOL   H11939711   6.471   1.596   4.730 -0.5248  0.9859  0.1667
  197MOL   H12039712   6.320   1.672   4.671 -0.2617 -1.8131 -1.9225
  197MOL   H12139713   6.318   1.568   4.811 -1.6432 -1.4948 -0.6127
  197MOL   C12239714   6.286   1.279   4.730  0.2850 -0.4980 -0.1051
  197MOL   C12339715   6.328   1.173   4.832 -0.2137  0.0846 -0.6035
  197MOL   O12439716   6.402   1.062   4.776 -0.1387  0.1725 -0.1347
  197MOL   C12539717   6.323   0.976   4.702 -1.2698 -0.9350  0.1619
  197MOL   H12639718   6.224   1.241   4.649 -0.7571 -2.7853  1.6939
  197MOL   H12739719   6.219   1.346   4.785  1.5099  0.6486 -0.0051
  197MOL   H12839720   6.231   1.142   4.871  0.0847  0.6281  0.5754
  197MOL   H12939721   6.387   0.906   4.648  0.7787 -0.9356  2.5110
  197MOL   H13039722   6.262   0.927   4.779 -0.2688  0.7604  2.0880
  197MOL   H13139723   6.252   1.013   4.629 -0.0954 -0.5527 -0.7950
  197MOL   C13239724   6.407   1.215   4.960  0.6586 -0.1062  0.0298
  197MOL   C13339725   6.350   1.164   5.096  0.0010  0.1400 -0.2100
  197MOL   O13439726   6.213   1.197   5.106 -0.3650  0.0061 -0.0746
  197MOL   C13539727   6.187   1.339   5.107 -0.1680 -0.3582  0.4468
  197MOL   H13639728   6.401   1.324   4.953 -2.4420 -0.2125  0.4463
  197MOL   H13739729   6.513   1.191   4.952  1.2646  2.2068  0.7210
  197MOL   H13839730   6.398   1.209   5.183  0.6932  0.9983 -1.0292
  197MOL   H13939731   6.269   1.405   5.078 -0.3611 -0.6196 -0.7233
  197MOL   H14039732   6.099   1.357   5.045  1.2920 -0.2137 -1.6197
  197MOL   H14139733   6.147   1.379   5.200  0.4146 -2.3232  1.5647
  197MOL   C14239734   6.367   1.013   5.120  0.1414  0.3476  0.2564
  197MOL   C14339735   6.505   0.960   5.141 -0.5100  0.2785  0.4310
  197MOL   O14439736   6.577   1.024   5.250 -0.2644 -0.0886 -0.5794
  197MOL   C14539737   6.705   1.082   5.213  0.7015  0.3758 -0.0710
  197MOL   H14639738   6.339   0.960   5.029  4.8328 -0.8072 -0.6302
  197MOL   H14739739   6.307   0.984   5.206 -0.0444  2.4622  0.8897
  197MOL   H14839740   6.564   0.965   5.049  1.9617 -0.8439  1.9031
  197MOL   H14939741   6.748   1.126   5.303 -0.0097  0.7222  0.1013
  197MOL   H15039742   6.765   1.005   5.164  1.5895  0.5628  0.7187
  197MOL   H15139743   6.679   1.164   5.146  0.7737 -1.0834 -1.9077
  197MOL   C15239744   6.506   0.816   5.187  0.4431  0.3200  0.0089
  197MOL   C15339745   6.510   0.706   5.073 -0.0389  0.6842  0.1826
  197MOL   O15439746   6.624   0.736   5.000  0.2637 -0.1451  1.1167
  197MOL   C15539747   6.603   0.732   4.858  0.5425  0.2758 -0.1214
  197MOL   H15639748   6.418   0.799   5.249  0.6928 -0.7336  0.0835
  197MOL   H15739749   6.586   0.793   5.256  0.2711 -2.2045 -0.5957
  197MOL   H15839750   6.424   0.726   5.009  2.4158 -1.2330 -3.9218
  197MOL   H15939751   6.526   0.802   4.824 -0.5166 -2.0160 -2.6362
  197MOL   H16039752   6.693   0.756   4.801  1.3838  0.6089  1.3059
  197MOL   H16139753   6.568   0.633   4.831 -2.4901  1.3833 -0.4206
  197MOL   C16239754   6.509   0.555   5.112 -0.7228  0.6246  0.2417
  197MOL   C16339755   6.368   0.501   5.110 -0.0931  0.4555  0.5933
  197MOL   O16439756   6.307   0.538   4.985  0.3715 -0.0403  0.1186
  197MOL   C16539757   6.172   0.581   4.995  0.8284 -0.3000 -0.1483
  197MOL   H16639758   6.569   0.558   5.203 -0.4419  0.7041  0.0555
  197MOL   H16739759   6.574   0.502   5.042 -0.1902 -1.5741  2.3288
  197MOL   H16839760   6.324   0.562   5.189  1.3197  0.2972  1.5206
  197MOL   H16939761   6.133   0.586   4.893  0.7658 -3.3012 -0.3189
  197MOL   H17039762   6.108   0.504   5.039  0.1229  0.5426  0.2962
  197MOL   H17139763   6.151   0.673   5.048  0.2358 -0.5057 -0.0159
  197MOL   C17239764   6.359   0.348   5.136  0.7550 -0.7995  0.2742
  197MOL   C17339765   6.401   0.321   5.280  0.1719 -0.0639 -0.4876
  197MOL   O17439766   6.316   0.392   5.371  0.0406  0.3514 -0.1283
  197MOL   C17539767   6.381   0.423   5.490 -0.3362 -0.4792 -0.0287
  197MOL   H17639768   6.423   0.300   5.061 -0.8446 -3.3449  0.4628
  197MOL   H17739769   6.256   0.318   5.119  0.6581  0.1852 -0.9287
  197MOL   H17839770   6.507   0.339   5.299  0.6538 -2.2688 -0.9997
  197MOL   H17939771   6.468   0.481   5.460  0.8577 -1.3519  1.6771
  197MOL   H18039772   6.317   0.485   5.553  1.1529  0.2167  0.8042
  197MOL   H18139773   6.419   0.339   5.548  0.6871  0.4767  0.6831
  197MOL   C18239774   6.363   0.172   5.319  0.4327 -0.3435  0.4697
  197MOL   C18339775   6.436   0.066   5.245  0.4763  0.4476  0.4439
  197MOL   O18439776   6.577   0.077   5.276  0.0333  0.2282 -0.2433
  197MOL   C18539777   6.669   0.061   5.171 -0.2137  0.0103 -0.0383
  197MOL   H18639778   6.255   0.163   5.306  0.3688  1.1784 -0.1375
  197MOL   H18739779   6.370   0.168   5.427 -0.7607 -0.8794  0.5363
  197MOL   H18839780   6.411   0.079   5.140  0.0931 -0.5409  0.4057
  197MOL   H18939781   6.759   0.010   5.205 -0.0444 -1.9542 -3.1888
  197MOL   H19039782   6.632   0.017   5.078 -2.3481 -0.0667  0.8208
  197MOL   H19139783   6.708   0.159   5.146 -1.2086  0.1903 -0.9370
  197MOL   C19239784   6.396   7.738   5.293  0.1418  0.0068  0.3041
  197MOL   C19339785   6.460   7.625   5.209  0.2124 -0.9914 -0.5163
  197MOL   O19439786   6.420   7.497   5.244  0.7956 -0.3917 -0.0945
  197MOL   C19539787   6.454   7.456   5.376 -0.8196  0.1977  0.1286
  197MOL   H19639788   6.289   7.739   5.275 -0.0756  1.1757  1.5323
  197MOL   H19739789   6.418   7.739   5.400  1.3519  4.5849  0.1300
  197MOL   H19839790   6.569   7.627   5.207  0.1845  2.5429 -1.0317
  197MOL   H19939791   6.411   7.528   5.447 -1.6288  0.7715 -0.9240
  197MOL   H20039792   6.417   7.354   5.382 -0.3197  0.0350  0.5095
  197MOL   H20139793   6.562   7.457   5.384 -0.8126 -1.1699  0.3320
  197MOL   H20239794   6.418   7.645   5.110  3.0739  1.7324 -1.2605
  198MOL     C139795   5.671   1.655   5.153  0.2756  0.2194  0.4730
  198MOL     C239796   5.723   1.794   5.111 -0.2381 -0.1000 -0.0974
  198MOL     O339797   5.653   1.824   4.992  0.0355  0.4245  0.0439
  198MOL     C439798   5.712   1.910   4.901 -0.4080 -0.0935  0.5957
  198MOL     H539799   5.564   1.645   5.172 -0.3009 -0.2245 -2.5946
  198MOL     H639800   5.679   1.582   5.072 -2.5513 -0.4589  0.7487
  198MOL     H739801   5.828   1.773   5.092  0.4311 -0.1881  3.3250
  198MOL     H839802   5.789   1.970   4.951  1.0522 -1.0359 -0.4719
  198MOL     H939803   5.750   1.857   4.814 -3.8799  1.0059 -1.6938
  198MOL    H1039804   5.636   1.985   4.880  1.1422  1.1573 -0.7118
  198MOL    H1139805   5.723   1.625   5.243 -1.4525 -0.2117  1.3523
  198MOL    C1239806   5.706   1.908   5.213 -0.3719  0.4407 -0.4071
  198MOL    C1339807   5.810   1.902   5.324  0.1049 -0.6142 -0.1752
  198MOL    O1439808   5.932   1.942   5.269  0.1598  0.3603  0.5267
  198MOL    C1539809   6.041   1.856   5.307  0.1717  0.3259 -0.0004
  198MOL    H1639810   5.610   1.904   5.264 -0.0571 -3.1625  0.0249
  198MOL    H1739811   5.705   2.002   5.159  1.2578  0.3146 -0.6882
  198MOL    H1839812   5.815   1.803   5.369 -1.1899 -0.0151  1.3289
  198MOL    H1939813   6.050   1.834   5.414 -0.4854 -0.3063 -0.0744
  198MOL    H2039814   6.047   1.754   5.270  1.4864  0.8679 -1.3162
  198MOL    H2139815   6.135   1.902   5.275  0.5373  0.7214  1.5607
  198MOL    C2239816   5.794   2.013   5.432 -0.4520 -0.2267 -0.2089
  198MOL    C2339817   5.673   1.997   5.526  0.0877 -0.3216 -0.8180
  198MOL    O2439818   5.662   1.862   5.541  0.3777 -0.1865 -0.0100
  198MOL    C2539819   5.535   1.808   5.588 -0.4452 -0.0772  0.1458
  198MOL    H2639820   5.801   2.116   5.397 -0.5079  0.4733  1.7406
  198MOL    H2739821   5.886   1.997   5.489  0.2069 -0.9233 -1.4459
  198MOL    H2839822   5.584   2.032   5.474 -2.2558 -1.3562  2.3391
  198MOL    H2939823   5.525   1.843   5.690 -1.2021  0.1206  0.0047
  198MOL    H3039824   5.463   1.855   5.521 -0.7608  0.5575  0.9213
  198MOL    H3139825   5.545   1.699   5.587 -0.0960 -0.0883  2.3517
  198MOL    C3239826   5.681   2.068   5.665 -0.1520 -0.2168 -0.1961
  198MOL    C3339827   5.699   2.220   5.670  0.3311 -0.5929 -0.3087
  198MOL    O3439828   5.574   2.287   5.646 -0.8603  0.3382  0.3383
  198MOL    C3539829   5.551   2.308   5.511  0.1143 -0.2380  0.2790
  198MOL    H3639830   5.756   2.027   5.733  0.5561  0.7785 -0.3633
  198MOL    H3739831   5.592   2.046   5.724 -0.6312  0.5930 -0.6150
  198MOL    H3839832   5.774   2.251   5.598  0.3636 -0.8209 -0.3735
  198MOL    H3939833   5.519   2.224   5.449 -0.6370  0.1930  0.0681
  198MOL    H4039834   5.463   2.372   5.503 -0.2979 -0.9786 -1.5850
  198MOL    H4139835   5.629   2.367   5.462  0.1126  0.9641  1.6763
  198MOL    C4239836   5.731   2.262   5.815  0.0665 -0.6177 -0.0861
  198MOL    C4339837   5.628   2.227   5.925 -0.1592  0.2582 -0.3614
  198MOL    O4439838   5.619   2.085   5.956  0.4378  0.3400 -0.6423
  198MOL    C4539839   5.496   2.052   6.024  0.8093 -0.8078 -0.0465
  198MOL    H4639840   5.729   2.371   5.808 -3.1432 -0.6124 -0.1006
  198MOL    H4739841   5.832   2.230   5.839  0.1125 -0.4133 -0.0040
  198MOL    H4839842   5.529   2.241   5.882 -0.0490  0.7316 -0.4638
  198MOL    H4939843   5.448   2.147   6.048  1.2579 -0.4984 -0.3592
  198MOL    H5039844   5.445   1.976   5.965 -0.6920  0.5287 -0.5125
  198MOL    H5139845   5.535   2.011   6.117  1.5106 -0.6455 -0.2608
  198MOL    C5239846   5.655   2.318   6.054  0.8563  0.0542 -0.8618
  198MOL    C5339847   5.779   2.303   6.148  0.4125  0.1852 -0.2971
  198MOL    O5439848   5.782   2.411   6.243 -0.4177  0.1342 -0.2269
  198MOL    C5539849   5.823   2.539   6.200 -0.1411  0.2700 -0.0470
  198MOL    H5639850   5.581   2.309   6.134  1.0995 -1.4942 -0.7989
  198MOL    H5739851   5.639   2.422   6.023 -1.8140 -0.2769 -0.7508
  198MOL    H5839852   5.873   2.318   6.094 -0.1772  0.7254 -1.1886
  198MOL    H5939853   5.930   2.538   6.178  0.0391 -0.0350  0.8311
  198MOL    H6039854   5.764   2.572   6.115 -1.0059  0.3255  0.5732
  198MOL    H6139855   5.814   2.601   6.289  3.0716 -0.1025  0.6146
  198MOL    C6239856   5.769   2.161   6.223 -0.5820  0.2200  0.2844
  198MOL    C6339857   5.858   2.143   6.342  0.0004  0.6027  0.3085
  198MOL    O6439858   5.859   2.002   6.375  0.0157 -0.0398 -0.8773
  198MOL    C6539859   5.745   1.965   6.447  0.1597 -0.1104 -0.0790
  198MOL    H6639860   5.786   2.089   6.144  1.2996  0.1522  0.7353
  198MOL    H6739861   5.662   2.155   6.246 -0.1775  0.0685  2.1975
  198MOL    H6839862   5.814   2.203   6.421  1.0154  0.5625  0.9139
  198MOL    H6939863   5.653   1.979   6.392 -0.5964 -1.1343  0.8840
  198MOL    H7039864   5.754   1.858   6.468 -1.9414 -0.6072 -1.5505
  198MOL    H7139865   5.744   2.025   6.538 -2.3532  0.8464 -0.7147
  198MOL    C7239866   6.007   2.182   6.309  0.2418  0.1580  0.4730
  198MOL    C7339867   6.114   2.143   6.422  0.2396  0.3169  0.3885
  198MOL    O7439868   6.245   2.200   6.392  0.0926 -0.3216 -0.0590
  198MOL    C7539869   6.326   2.116   6.318  0.0218  0.6343  0.3235
  198MOL    H7639870   6.016   2.290   6.296 -4.6287  0.7011  0.4120
  198MOL    H7739871   6.043   2.144   6.213 -1.3630 -0.5815  0.1460
  198MOL    H7839872   6.128   2.035   6.421  0.1138  0.2861  1.1961
  198MOL    H7939873   6.422   2.158   6.289 -0.5879  1.2900 -0.8100
  198MOL    H8039874   6.342   2.016   6.356 -2.9263  0.0467  0.1883
  198MOL    H8139875   6.281   2.106   6.219 -1.0607  1.9722  0.6625
  198MOL    C8239876   6.069   2.202   6.558  0.4939  0.2519 -0.0678
  198MOL    C8339877   6.177   2.177   6.669  0.2573  0.1686 -0.2902
  198MOL    O8439878   6.174   2.272   6.781 -0.5126 -0.1143  0.0471
  198MOL    C8539879   6.235   2.396   6.744 -0.0093  0.5281 -0.5180
  198MOL    H8639880   5.977   2.154   6.590  1.7827 -1.3869  1.3006
  198MOL    H8739881   6.042   2.306   6.539 -0.1576  0.1507  0.2954
  198MOL    H8839882   6.278   2.184   6.630  0.4576 -0.5755  0.0843
  198MOL    H8939883   6.161   2.450   6.686 -2.0743 -1.5381  0.1420
  198MOL    H9039884   6.268   2.451   6.833 -3.0213  2.3289 -0.4591
  198MOL    H9139885   6.321   2.382   6.679  1.8924 -0.4719  2.0984
  198MOL    C9239886   6.161   2.032   6.731 -0.0941  0.4535 -0.4305
  198MOL    C9339887   6.277   1.981   6.818 -0.4023 -0.5015  0.1382
  198MOL    O9439888   6.227   1.935   6.943 -0.7058  0.0085  0.1575
  198MOL    C9539889   6.224   2.031   7.048  0.1351 -0.0011 -0.0540
  198MOL    H9639890   6.150   1.966   6.644 -2.5338  0.9309 -0.5385
  198MOL    H9739891   6.070   2.019   6.791 -0.4170 -0.6515 -1.1337
  198MOL    H9839892   6.346   2.064   6.836  0.2445 -1.2012  0.9565
  198MOL    H9939893   6.328   2.043   7.076  0.6818 -0.9354 -1.5918
  198MOL   H10039894   6.189   2.125   7.005 -0.7959 -0.4007 -0.1902
  198MOL   H10139895   6.162   1.996   7.131  1.2912 -0.2662  0.6990
  198MOL   C10239896   6.355   1.865   6.756 -0.0267  0.7687  0.4696
  198MOL   C10339897   6.444   1.893   6.636 -0.1722  0.0388  0.2240
  198MOL   O10439898   6.573   1.953   6.686 -0.6071  0.8106  0.1537
  198MOL   C10539899   6.580   2.099   6.674  0.2666 -0.0285  0.3843
  198MOL   H10639900   6.279   1.789   6.736  0.8165  0.6325 -2.3710
  198MOL   H10739901   6.426   1.825   6.829 -1.4668  0.1667  1.5716
  198MOL   H10839902   6.409   1.965   6.562  2.2105  1.0562  0.0194
  198MOL   H10939903   6.574   2.138   6.572  1.6081  0.5596  0.5187
  198MOL   H11039904   6.527   2.155   6.751  1.4234  0.4486  0.8466
  198MOL   H11139905   6.685   2.126   6.690  0.2202  1.3923 -1.5561
  198MOL   C11239906   6.490   1.769   6.557 -0.3741  0.8194  0.0189
  198MOL   C11339907   6.389   1.714   6.453 -0.4646  0.8874 -0.3797
  198MOL   O11439908   6.373   1.781   6.327 -0.0078 -0.4519  0.6348
  198MOL   C11539909   6.487   1.784   6.244 -0.3283 -0.1388 -0.2266
  198MOL   H11639910   6.511   1.681   6.618  1.8484  1.3288  0.0641
  198MOL   H11739911   6.584   1.797   6.507  0.3701 -1.3034  0.1930
  198MOL   H11839912   6.298   1.721   6.512  0.3768  1.2340  0.9082
  198MOL   H11939913   6.570   1.844   6.284 -0.3299 -0.5270  0.3627
  198MOL   H12039914   6.524   1.684   6.223  1.9453  0.2866  1.4860
  198MOL   H12139915   6.463   1.833   6.150  1.2950  2.8609  0.8382
  198MOL   C12239916   6.401   1.560   6.430  0.3625  0.4342 -0.1487
  198MOL   C12339917   6.264   1.509   6.368 -0.5260 -0.2734 -0.3070
  198MOL   O12439918   6.267   1.372   6.346 -0.4985  0.1445  0.7530
  198MOL   C12539919   6.352   1.318   6.245 -0.2525 -0.9795 -0.0743
  198MOL   H12639920   6.432   1.515   6.525  0.4544 -0.4736 -0.6058
  198MOL   H12739921   6.476   1.536   6.355 -0.1460  0.8538 -0.7988
  198MOL   H12839922   6.257   1.567   6.276 -0.1279 -1.1019 -0.8606
  198MOL   H12939923   6.307   1.340   6.148  1.2779 -1.8566 -1.0033
  198MOL   H13039924   6.457   1.345   6.249  0.4565 -3.2082 -2.6929
  198MOL   H13139925   6.342   1.211   6.228  1.8920 -0.6405 -3.9558
  198MOL   C13239926   6.137   1.531   6.457 -0.3645  0.3067  0.3909
  198MOL   C13339927   6.128   1.456   6.594  0.2359  0.1574 -0.3564
  198MOL   O13439928   6.225   1.517   6.680 -0.1056 -0.7179  0.4706
  198MOL   C13539929   6.301   1.433   6.762 -0.3360 -0.0149 -0.4257
  198MOL   H13639930   6.056   1.491   6.396 -1.8215  2.8849  0.5508
  198MOL   H13739931   6.108   1.634   6.479  0.0964  1.0955 -2.5821
  198MOL   H13839932   6.141   1.348   6.584 -1.0326 -0.3042  2.6233
  198MOL   H13939933   6.355   1.351   6.715  1.4848  0.1052  1.3931
  198MOL   H14039934   6.370   1.502   6.811  0.5341 -1.5588  0.5506
  198MOL   H14139935   6.244   1.383   6.841 -0.7917  1.2972  0.0917
  198MOL   C14239936   6.002   1.487   6.685 -0.0279 -0.6877  0.2245
  198MOL   C14339937   5.867   1.445   6.624  0.7025  0.2453 -0.4786
  198MOL   O14439938   5.858   1.303   6.605  0.4431 -0.3599 -0.4977
  198MOL   C14539939   5.898   1.220   6.712 -0.2812 -0.7098 -0.0130
  198MOL   H14639940   5.985   1.593   6.703 -0.4343 -0.7579  0.2614
  198MOL   H14739941   6.017   1.440   6.782 -1.2248 -0.5266  0.4924
  198MOL   H14839942   5.865   1.498   6.528  0.0480  0.1936 -0.4896
  198MOL   H14939943   5.872   1.272   6.804 -0.2036  0.0997 -0.4439
  198MOL   H15039944   5.856   1.120   6.712  1.4281 -1.4537 -0.5051
  198MOL   H15139945   6.007   1.216   6.708 -0.3986 -2.1677 -3.3536
  198MOL   C15239946   5.750   1.506   6.709  0.7952  0.8229  0.0121
  198MOL   C15339947   5.619   1.491   6.632  0.1831 -0.0963 -0.1350
  198MOL   O15439948   5.509   1.442   6.715 -0.3279 -0.0478 -0.3130
  198MOL   C15539949   5.487   1.303   6.723  0.1130  0.0017 -0.3848
  198MOL   H15639950   5.769   1.608   6.740  1.7649  1.0477 -1.2727
  198MOL   H15739951   5.729   1.462   6.806  1.9769 -0.0969 -0.1333
  198MOL   H15839952   5.633   1.419   6.552  2.6430  0.5937 -0.3607
  198MOL   H15939953   5.393   1.288   6.775 -0.7343  0.5300 -1.7364
  198MOL   H16039954   5.474   1.264   6.622  0.4276 -0.5129 -0.2312
  198MOL   H16139955   5.563   1.242   6.773 -1.7979 -2.1912 -0.0708
  198MOL   C16239956   5.571   1.629   6.579 -0.0892 -0.0534  0.0610
  198MOL   C16339957   5.504   1.628   6.449 -0.0696  0.1878  0.6607
  198MOL   O16439958   5.431   1.751   6.418  0.2378  0.2987  0.3313
  198MOL   C16539959   5.286   1.740   6.415 -0.1680  1.0641  0.1353
  198MOL   H16639960   5.653   1.701   6.577 -0.5195  0.4405 -0.0007
  198MOL   H16739961   5.508   1.668   6.659 -3.2180  1.2559 -2.8892
  198MOL   H16839962   5.441   1.539   6.455 -0.2479  0.3741  1.6669
  198MOL   H16939963   5.249   1.725   6.517  1.1295  0.1425  0.4925
  198MOL   H17039964   5.238   1.829   6.374  0.4296  2.0404  1.4865
  198MOL   H17139965   5.251   1.653   6.359 -0.5265  2.0224 -1.1453
  198MOL   C17239966   5.599   1.608   6.335  0.1004 -0.1913  0.3856
  198MOL   C17339967   5.546   1.588   6.195 -0.0598  0.5041  0.6123
  198MOL   O17439968   5.648   1.597   6.102 -0.1245 -0.0790  0.2327
  198MOL   C17539969   5.657   1.724   6.043  0.2519  0.0976  0.2869
  198MOL   H17639970   5.657   1.518   6.354  0.8517 -0.1084 -1.4295
  198MOL   H17739971   5.681   1.681   6.338  0.4298 -0.4761 -1.3743
  198MOL   H17839972   5.457   1.650   6.179 -1.2928 -1.3135  0.2003
  198MOL   H17939973   5.697   1.712   5.942  0.6823  1.0741  0.3384
  198MOL   H18039974   5.561   1.770   6.018  0.4397  0.8174  0.8873
  198MOL   H18139975   5.717   1.798   6.095  0.8786 -0.6989  0.7136
  198MOL   C18239976   5.499   1.439   6.164 -0.6460  0.4652 -0.6472
  198MOL   C18339977   5.400   1.410   6.052  0.0441 -0.0414  0.2160
  198MOL   O18439978   5.403   1.275   6.037 -0.2204 -0.0951 -0.2684
  198MOL   C18539979   5.490   1.230   5.938  0.0996  0.0415  0.3128
  198MOL   H18639980   5.440   1.410   6.251  1.6321  0.4385  0.9480
  198MOL   H18739981   5.584   1.372   6.151 -2.4837 -1.7263 -1.6133
  198MOL   H18839982   5.441   1.459   5.964 -1.0893 -2.0426 -1.4842
  198MOL   H18939983   5.455   1.251   5.837 -1.6096 -1.3240  0.5934
  198MOL   H19039984   5.598   1.239   5.948  0.1792  0.2907 -0.7721
  198MOL   H19139985   5.473   1.123   5.950  0.1734  0.0213  0.2360
  198MOL   C19239986   5.254   1.444   6.081 -0.2623  0.4124  0.5525
  198MOL   C19339987   5.160   1.421   5.962 -0.0599  0.0220 -0.4176
  198MOL   O19439988   5.156   1.536   5.874  0.4313 -0.0990  0.2051
  198MOL   C19539989   5.038   1.526   5.788 -0.5816  0.4903 -0.4921
  198MOL   H19639990   5.243   1.544   6.123 -1.4173  0.9166 -0.9284
  198MOL   H19739991   5.227   1.374   6.161 -0.0966  0.8808  1.0220
  198MOL   H19839992   5.059   1.401   5.997  0.6295  1.3849  2.5616
  198MOL   H19939993   4.947   1.549   5.844  0.0039 -0.7115  0.9646
  198MOL   H20039994   5.057   1.582   5.696  0.3405  2.5049  0.9000
  198MOL   H20139995   5.025   1.422   5.758  1.7862  0.1780 -0.5153
  198MOL   H20239996   5.192   1.329   5.912 -2.5476 -0.7372 -0.6827
  199MOL     C139997   4.062   4.147   2.064 -0.2679  0.6586  0.0679
  199MOL     C239998   4.139   4.026   2.015  0.0855  0.0410 -0.1451
  199MOL     O339999   4.128   3.920   2.109  0.0638 -0.3308  0.3306
  199MOL     C440000   4.240   3.831   2.125  0.0087 -0.7597  0.3707
  199MOL     H540001   3.956   4.127   2.044  0.0189 -0.6022 -0.2178
  199MOL     H640002   4.084   4.170   2.168  0.3350 -1.5673  0.4638
  199MOL     H740003   4.243   4.054   2.002  0.4413 -0.8066  0.7675
  199MOL     H840004   4.329   3.890   2.147 -1.7343  2.2641 -0.3883
  199MOL     H940005   4.213   3.772   2.213  0.1067  0.6159  1.3393
  199MOL    H1040006   4.255   3.766   2.039  1.7037  0.5225 -0.3257
  199MOL    H1140007   4.088   4.240   2.014 -0.1416 -0.0623 -1.2213
  199MOL    C1240008   4.100   3.976   1.876 -0.1957  0.1118  0.0915
  199MOL    C1340009   4.111   4.074   1.754 -0.1787 -0.2486 -0.2126
  199MOL    O1440010   4.239   4.132   1.753  0.4407  0.1753 -0.1206
  199MOL    C1540011   4.340   4.053   1.686  0.1788  0.2438 -0.2256
  199MOL    H1640012   3.997   3.943   1.889  0.6056 -2.8423 -0.7305
  199MOL    H1740013   4.162   3.889   1.854  2.0960  1.7441 -0.1323
  199MOL    H1840014   4.046   4.158   1.779  0.0676 -0.4059  0.9956
  199MOL    H1940015   4.339   4.037   1.578  3.1657  1.5254 -0.4963
  199MOL    H2040016   4.433   4.095   1.724  1.3457 -2.0639 -0.4873
  199MOL    H2140017   4.344   3.950   1.721  1.1065 -0.1968 -1.6121
  199MOL    C2240018   4.055   3.997   1.640 -0.4782  0.2613 -0.0281
  199MOL    C2340019   4.019   4.075   1.509 -0.0087  0.3990 -0.5947
  199MOL    O2440020   3.989   3.975   1.418 -0.2329  0.5820 -0.6559
  199MOL    C2540021   4.018   4.004   1.285  0.3561 -0.0456  0.5267
  199MOL    H2640022   3.968   3.935   1.664  1.4399 -2.7058 -0.5226
  199MOL    H2740023   4.130   3.931   1.596  0.3371  0.0494  1.6288
  199MOL    H2840024   4.101   4.138   1.475  1.2444 -1.4868 -1.1381
  199MOL    H2940025   4.126   3.997   1.267  0.4307  0.7295  0.6803
  199MOL    H3040026   3.972   3.925   1.225  0.1481 -1.1499  2.1097
  199MOL    H3140027   3.984   4.101   1.250 -0.3289 -0.8603 -1.1274
  199MOL    C3240028   3.900   4.179   1.536  0.1006  0.0130 -0.4403
  199MOL    C3340029   3.773   4.124   1.599 -0.0335  0.4598 -0.5586
  199MOL    O3440030   3.787   4.100   1.736 -0.1245  0.3509  0.2863
  199MOL    C3540031   3.693   3.994   1.777  1.0244  0.0313  0.5540
  199MOL    H3640032   3.884   4.226   1.438  0.3747 -1.3652 -1.1534
  199MOL    H3740033   3.937   4.267   1.589  0.9857 -0.2750 -0.5713
  199MOL    H3840034   3.753   4.033   1.544 -1.7128  0.6794 -0.3180
  199MOL    H3940035   3.597   4.046   1.776  0.1984 -1.4809 -0.3095
  199MOL    H4040036   3.695   3.904   1.716 -1.4532 -0.3071  0.9095
  199MOL    H4140037   3.717   3.969   1.881  1.8077  0.0169  0.3652
  199MOL    C4240038   3.650   4.222   1.587 -1.4082  0.0456  0.0755
  199MOL    C4340039   3.643   4.347   1.686  0.1546 -0.2354 -1.2495
  199MOL    O4440040   3.760   4.422   1.686  0.2986  0.4795 -0.0415
  199MOL    C4540041   3.801   4.469   1.819 -0.3799  0.1305 -0.3075
  199MOL    H4640042   3.562   4.165   1.615  0.1178 -2.1675  0.4567
  199MOL    H4740043   3.637   4.267   1.489  1.2043  1.4502  0.3166
  199MOL    H4840044   3.634   4.304   1.786 -1.3846  0.7360 -0.9678
  199MOL    H4940045   3.890   4.530   1.805  1.3793 -1.9518  1.4769
  199MOL    H5040046   3.736   4.541   1.870  1.0652  0.9682  0.3916
  199MOL    H5140047   3.830   4.391   1.889  0.0643  0.5356 -0.0368
  199MOL    C5240048   3.524   4.437   1.650 -0.0426 -0.4355 -1.2245
  199MOL    C5340049   3.538   4.530   1.521 -0.5928  0.5852 -0.3475
  199MOL    O5440050   3.405   4.548   1.474  0.3104 -0.5340 -0.1704
  199MOL    C5540051   3.351   4.440   1.392 -0.4930  0.0312 -0.1323
  199MOL    H5640052   3.490   4.499   1.733 -1.7402 -1.1200 -1.3759
  199MOL    H5740053   3.440   4.368   1.638  1.1328 -2.0687 -0.3607
  199MOL    H5840054   3.597   4.478   1.446 -2.2510 -1.6338 -0.1682
  199MOL    H5940055   3.423   4.382   1.335 -0.1336 -0.1653  0.5106
  199MOL    H6040056   3.296   4.363   1.446 -2.2124  1.6185  0.4454
  199MOL    H6140057   3.278   4.489   1.327  0.2696 -0.3916 -1.3086
  199MOL    C6240058   3.603   4.666   1.551 -0.4461 -0.1764  0.4220
  199MOL    C6340059   3.616   4.753   1.416 -0.8074 -0.0537 -0.4883
  199MOL    O6440060   3.665   4.656   1.315  0.2326 -0.3704 -0.4299
  199MOL    C6540061   3.802   4.643   1.325  0.0026  0.1033  0.4486
  199MOL    H6640062   3.704   4.667   1.592 -0.0067 -1.0876 -0.5927
  199MOL    H6740063   3.543   4.720   1.624  0.0786 -1.2265  1.6458
  199MOL    H6840064   3.692   4.831   1.416  1.6195 -2.3831 -1.3495
  199MOL    H6940065   3.847   4.739   1.301  2.7202 -1.9839 -3.4516
  199MOL    H7040066   3.848   4.616   1.420  1.8580  1.3790 -0.0752
  199MOL    H7140067   3.843   4.569   1.255 -1.2000  1.3424 -1.6198
  199MOL    C7240068   3.481   4.815   1.371 -0.5739  0.9116 -0.4351
  199MOL    C7340069   3.490   4.925   1.258  0.3722 -0.4740  0.1391
  199MOL    O7440070   3.571   5.028   1.307  0.1114 -0.0795  0.2591
  199MOL    C7540071   3.525   5.157   1.268  0.1727 -0.1377  0.5671
  199MOL    H7640072   3.433   4.864   1.455 -2.1644  2.9947 -2.4860
  199MOL    H7740073   3.414   4.739   1.329  0.9459 -0.9125  0.3888
  199MOL    H7840074   3.390   4.967   1.263  0.3739 -0.6412  2.4591
  199MOL    H7940075   3.496   5.153   1.163 -4.2015 -2.5764  1.7172
  199MOL    H8040076   3.432   5.179   1.322  0.2379  0.2206  0.5313
  199MOL    H8140077   3.592   5.238   1.294  0.9291 -1.0718  1.5620
  199MOL    C8240078   3.534   4.879   1.114  0.6667  0.7850 -0.2296
  199MOL    C8340079   3.432   4.785   1.040 -0.3211  0.4433  0.2328
  199MOL    O8440080   3.302   4.837   1.018 -0.1749  0.0652  0.4440
  199MOL    C8540081   3.286   4.972   0.968 -0.8063  1.1714  0.5549
  199MOL    H8640082   3.635   4.843   1.133  0.3813  0.3742  0.5494
  199MOL    H8740083   3.541   4.968   1.052  0.1453 -0.4774 -2.1514
  199MOL    H8840084   3.426   4.696   1.103  1.1101  0.8582  0.9824
  199MOL    H8940085   3.179   4.993   0.964 -1.2417 -1.1592 -0.4657
  199MOL    H9040086   3.327   5.039   1.044 -1.1739  3.1709 -0.9649
  199MOL    H9140087   3.327   4.998   0.871 -1.9245  1.6603  0.2023
  199MOL    C9240088   3.493   4.747   0.904 -0.1111  0.5799 -0.4390
  199MOL    C9340089   3.614   4.643   0.905 -0.2105  0.0221  0.3172
  199MOL    O9440090   3.541   4.518   0.934 -0.5586  0.6790  0.4255
  199MOL    C9540091   3.592   4.442   1.043 -0.6155  0.7129  0.3456
  199MOL    H9640092   3.522   4.838   0.851 -1.7955  2.6224  2.0382
  199MOL    H9740093   3.415   4.716   0.834 -1.8773  0.0137  1.7363
  199MOL    H9840094   3.684   4.670   0.984  0.0782  1.6407 -0.4677
  199MOL    H9940095   3.695   4.408   1.036 -1.0814 -0.5063 -0.9875
  199MOL   H10040096   3.599   4.503   1.133  1.4470  0.0878  0.6373
  199MOL   H10140097   3.525   4.364   1.081 -0.1854  0.3139  0.2860
  199MOL   C10240098   3.689   4.624   0.774 -1.2227 -0.6521 -0.2664
  199MOL   C10340099   3.782   4.751   0.743 -0.3851 -0.8725  0.0367
  199MOL   O10440100   3.854   4.766   0.868 -0.0119  0.1904 -0.1916
  199MOL   C10540101   3.880   4.898   0.896 -0.2989  0.2018  0.5119
  199MOL   H10640102   3.614   4.612   0.695 -0.3524 -2.6527 -0.7933
  199MOL   H10740103   3.741   4.529   0.780  0.4363  0.1486 -1.5414
  199MOL   H10840104   3.730   4.841   0.710 -1.5184 -0.9616  1.5352
  199MOL   H10940105   3.969   4.897   0.959  0.5946  1.0140 -0.7291
  199MOL   H11040106   3.904   4.954   0.806  2.0755  0.0130  1.0133
  199MOL   H11140107   3.793   4.942   0.944  0.2685  1.4485  0.3988
  199MOL   C11240108   3.880   4.725   0.624 -0.2708  0.4305 -0.5794
  199MOL   C11340109   3.812   4.681   0.494 -0.0902  0.5538 -0.1073
  199MOL   O11440110   3.735   4.785   0.441 -0.3711 -0.4082 -0.0956
  199MOL   C11540111   3.600   4.781   0.475  0.6206 -0.2377 -0.7891
  199MOL   H11640112   3.953   4.652   0.659  0.5800  3.1511  3.8606
  199MOL   H11740113   3.949   4.808   0.609  1.0647 -0.6311 -0.3588
  199MOL   H11840114   3.744   4.598   0.514  1.0293  0.1863  2.5093
  199MOL   H11940115   3.552   4.684   0.481  0.7672 -0.1708  1.9427
  199MOL   H12040116   3.577   4.845   0.560  0.7292  0.4277 -1.2562
  199MOL   H12140117   3.551   4.846   0.403  0.7514  0.6467 -0.0941
  199MOL   C12240118   3.919   4.641   0.388 -0.0525 -0.1217  0.1471
  199MOL   C12340119   3.863   4.587   0.260 -0.0351  0.3174  0.0417
  199MOL   O12440120   3.968   4.579   0.167 -0.6159 -0.2189 -0.0445
  199MOL   C12540121   4.009   4.697   0.106  0.2691  0.7306 -0.3655
  199MOL   H12640122   4.000   4.574   0.417  0.3743  0.1958 -0.2956
  199MOL   H12740123   3.967   4.735   0.360 -0.2686 -0.9922 -3.3776
  199MOL   H12840124   3.779   4.650   0.232  0.5333  1.2000  0.2971
  199MOL   H12940125   4.099   4.740   0.149 -0.1914  1.3910 -0.0453
  199MOL   H13040126   4.036   4.676   0.002  0.5109 -0.2287 -0.1184
  199MOL   H13140127   3.929   4.770   0.092 -0.9715 -0.4304  0.5620
  199MOL   C13240128   3.797   4.446   0.274 -0.3677  0.7340 -0.1143
  199MOL   C13340129   3.712   4.398   0.153  0.1675 -0.1503  1.1275
  199MOL   O13440130   3.744   4.264   0.123 -0.2752 -0.4986  0.5957
  199MOL   C13540131   3.802   4.234   7.806 -0.7935 -0.8989  0.0078
  199MOL   H13640132   3.723   4.445   0.354 -0.5743 -1.7589 -0.2856
  199MOL   H13740133   3.873   4.373   0.301 -0.8142 -0.2846 -1.5386
  199MOL   H13840134   3.739   4.462   0.069 -0.6767 -2.2737 -0.8120
  199MOL   H13940135   3.728   4.238   7.727 -0.6984  0.1646 -0.0331
  199MOL   H14040136   3.872   4.313   7.782  0.3086 -0.8495  3.1293
  199MOL   H14140137   3.855   4.138   7.800  0.8186 -0.1160  1.3828
  199MOL   C14240138   3.559   4.415   0.184 -0.0986  0.1661 -0.4752
  199MOL   C14340139   3.472   4.381   0.061  0.0477 -0.3613 -0.4142
  199MOL   O14440140   3.333   4.363   0.100  0.0352  0.2794  0.1309
  199MOL   C14540141   3.301   4.240   0.158 -0.5309 -0.4943  0.5914
  199MOL   H14640142   3.536   4.519   0.202  0.4640  0.4126 -1.1379
  199MOL   H14740143   3.529   4.355   0.270  2.0756 -0.8818 -0.4067
  199MOL   H14840144   3.505   4.281   0.030 -0.8176 -0.2788 -1.6330
  199MOL   H14940145   3.288   4.153   0.093  1.3790 -1.2507  1.1606
  199MOL   H15040146   3.368   4.207   0.238 -2.3788  0.1293  2.4560
  199MOL   H15140147   3.217   4.254   0.226  0.2083  0.2417  1.3650
  199MOL   C15240148   3.486   4.472   7.745  0.9646  0.2577  0.1625
  199MOL   C15340149   3.447   4.623   7.749 -0.3109 -0.2319 -0.2660
  199MOL   O15440150   3.531   4.688   0.034  0.1866  0.1208 -0.1347
  199MOL   C15540151   3.494   4.813   0.082 -0.6277  0.0670 -0.1884
  199MOL   H15640152   3.440   4.412   7.667 -1.2588  1.5991  0.4218
  199MOL   H15740153   3.594   4.459   7.729  1.0231  0.0591  0.7140
  199MOL   H15840154   3.344   4.633   7.783  0.4306  0.8905  1.6995
  199MOL   H15940155   3.474   4.879   7.809  0.5976  1.7835  0.8440
  199MOL   H16040156   3.404   4.796   0.141 -2.1758 -0.9536 -2.7948
  199MOL   H16140157   3.571   4.859   0.144  0.4164 -0.4695 -1.0668
  199MOL   C16240158   3.464   4.696   7.606 -0.2499 -0.5363  0.9122
  199MOL   C16340159   3.598   4.675   7.534  0.8396  0.0161  0.1902
  199MOL   O16440160   3.583   4.737   7.408 -0.3512 -0.1012  0.4632
  199MOL   C16540161   3.524   4.656   7.315  0.2469 -0.4031  0.1539
  199MOL   H16640162   3.467   4.804   7.623  0.1172 -0.0584 -1.9334
  199MOL   H16740163   3.376   4.688   7.542  0.2636  2.6737 -0.2902
  199MOL   H16840164   3.613   4.567   7.533 -1.5201 -0.3344  0.0955
  199MOL   H16940165   3.513   4.708   7.220 -3.1690 -0.8952  0.2057
  199MOL   H17040166   3.586   4.570   7.291 -1.2274 -1.6001  0.5025
  199MOL   H17140167   3.422   4.633   7.347  0.0219  1.3169  0.7086
  199MOL   C17240168   3.713   4.748   7.602 -0.3885 -0.4529  0.0284
  199MOL   C17340169   3.847   4.717   7.537 -0.7880 -0.7932  0.1423
  199MOL   O17440170   3.953   4.781   7.603 -0.3926 -0.1349 -0.6336
  199MOL   C17540171   3.957   4.924   7.583 -0.6357  0.1480  0.2051
  199MOL   H17640172   3.719   4.719   7.707  0.2894 -1.5852 -0.3044
  199MOL   H17740173   3.695   4.855   7.599 -4.1063 -0.8952  2.7677
  199MOL   H17840174   3.849   4.749   7.433 -0.6541 -1.7122 -0.1395
  199MOL   H17940175   3.875   4.981   7.625  0.8385  1.9386  0.7359
  199MOL   H18040176   4.043   4.969   7.633 -0.4454  0.0354 -0.0202
  199MOL   H18140177   3.959   4.949   7.477  0.6547  0.3338  0.2663
  199MOL   C18240178   3.886   4.569   7.559  0.3878  0.5693  0.0366
  199MOL   C18340179   4.000   4.513   7.475  0.3341  0.6245  0.3533
  199MOL   O18440180   4.041   4.392   7.542  0.0633  0.0254  0.6208
  199MOL   C18540181   4.178   4.401   7.579 -0.6540 -0.2713  0.3211
  199MOL   H18640182   3.803   4.498   7.556 -0.3008  1.3805 -0.2613
  199MOL   H18740183   3.935   4.560   7.656  1.6004 -0.4823 -0.6516
  199MOL   H18840184   4.080   4.581   7.446 -0.7548  1.1222 -1.5344
  199MOL   H18940185   4.257   4.407   7.504 -0.8976 -1.1118 -0.0099
  199MOL   H19040186   4.197   4.487   7.642 -1.7199  0.4382 -0.3009
  199MOL   H19140187   4.193   4.314   7.642 -4.1285 -0.8041  0.5060
  199MOL   C19240188   3.939   4.465   7.341  0.3285  0.3455  0.1626
  199MOL   C19340189   4.038   4.406   7.245 -0.4882 -0.3656 -0.5439
  199MOL   O19440190   3.988   4.422   7.110 -0.1532 -0.0930  0.1946
  199MOL   C19540191   4.067   4.355   7.021  0.5798 -0.0468 -0.2410
  199MOL   H19640192   3.895   4.552   7.291  0.1840 -0.7623 -1.7024
  199MOL   H19740193   3.856   4.396   7.351 -0.3871  0.7207 -2.6361
  199MOL   H19840194   4.057   4.301   7.270 -0.6153 -0.6137 -1.4684
  199MOL   H19940195   4.159   4.413   7.011  0.0433  0.6861 -0.9498
  199MOL   H20040196   4.092   4.257   7.061 -1.6176 -0.2053  0.8062
  199MOL   H20140197   4.020   4.354   6.923 -2.6561  1.1876  1.2112
  199MOL   H20240198   4.136   4.450   7.261  0.1293 -2.2432  1.0509
  200MOL     C140199   2.636   3.137   4.424  0.0850  0.1716 -0.5953
  200MOL     C240200   2.716   3.013   4.416  0.1166  0.1919 -0.3917
  200MOL     O340201   2.678   2.929   4.311 -0.2609 -1.0518  0.6291
  200MOL     C440202   2.567   2.853   4.357  0.2026  0.9068 -0.0477
  200MOL     H540203   2.530   3.112   4.432  0.5805 -1.5154  0.8735
  200MOL     H640204   2.658   3.208   4.503  3.0095 -0.5353 -0.7104
  200MOL     H740205   2.720   2.980   4.520 -2.5901  0.2664 -0.2526
  200MOL     H840206   2.609   2.808   4.447 -1.6662  2.8053  1.8243
  200MOL     H940207   2.476   2.905   4.385 -0.0626  0.2030  0.3930
  200MOL    H1040208   2.538   2.764   4.302 -0.0835 -0.3866  2.1152
  200MOL    H1140209   2.660   3.185   4.329  2.7218 -2.5296 -1.3570
  200MOL    C1240210   2.864   3.057   4.394  0.4247 -0.4549  0.4560
  200MOL    C1340211   2.972   2.947   4.415 -0.0200 -0.5360  0.5963
  200MOL    O1440212   3.098   2.993   4.359 -0.7916 -0.0301  0.1966
  200MOL    C1540213   3.118   2.950   4.224 -0.4498  0.2567 -0.0103
  200MOL    H1640214   2.888   3.140   4.460  2.2246 -1.2288  0.8016
  200MOL    H1740215   2.870   3.101   4.294 -2.7303  0.0876  0.4658
  200MOL    H1840216   2.936   2.863   4.355  0.8737  0.6888 -1.7131
  200MOL    H1940217   3.210   2.996   4.187 -0.9873  1.7241  0.4312
  200MOL    H2040218   3.119   2.841   4.225  0.5286  0.2262 -2.2220
  200MOL    H2140219   3.035   2.995   4.168 -0.7368 -0.1198  0.1173
  200MOL    C2240220   3.008   2.915   4.568 -0.4284  0.7881  0.2513
  200MOL    C2340221   3.103   2.802   4.583 -0.9131  0.0122  0.0442
  200MOL    O2440222   3.151   2.798   4.718 -0.3763  0.0471 -0.2357
  200MOL    C2540223   3.248   2.899   4.749 -0.3348  0.5356  0.2440
  200MOL    H2640224   2.920   2.903   4.632  1.1576 -0.4424  2.2440
  200MOL    H2740225   3.049   3.010   4.600  0.2542  0.8858 -0.8834
  200MOL    H2840226   3.188   2.816   4.516  0.1222 -1.5525  1.0038
  200MOL    H2940227   3.338   2.873   4.693  0.1699  2.3481  0.1953
  200MOL    H3040228   3.220   3.001   4.723 -1.4037  0.3516  0.6778
  200MOL    H3140229   3.281   2.899   4.853  1.2403 -0.1952 -0.2266
  200MOL    C3240230   3.038   2.671   4.546  0.1268  0.8396 -0.0753
  200MOL    C3340231   3.138   2.548   4.548 -0.1602  0.4714  0.2860
  200MOL    O3440232   3.078   2.424   4.510  0.6190  1.0354 -0.5037
  200MOL    C3540233   2.994   2.355   4.603  0.2401 -0.2994  0.0229
  200MOL    H3640234   2.991   2.668   4.447  1.1287 -0.7329 -0.5228
  200MOL    H3740235   2.955   2.652   4.614 -0.0847 -1.1010 -0.8560
  200MOL    H3840236   3.159   2.536   4.654  2.3720  0.1164 -0.2231
  200MOL    H3940237   2.956   2.262   4.561  1.6893 -0.4098 -1.0556
  200MOL    H4040238   3.042   2.325   4.696  2.5856  0.0731 -1.0426
  200MOL    H4140239   2.906   2.411   4.635  1.6367  2.3768 -0.7019
  200MOL    C4240240   3.275   2.581   4.484  0.1579 -0.1618 -0.3337
  200MOL    C4340241   3.275   2.614   4.335 -0.1513 -0.1484 -0.4728
  200MOL    O4440242   3.381   2.705   4.289 -0.4138 -0.3980 -0.2714
  200MOL    C4540243   3.509   2.690   4.352  0.6798  0.1511  0.3165
  200MOL    H4640244   3.343   2.496   4.491  0.0946 -0.2187 -0.4167
  200MOL    H4740245   3.329   2.660   4.537 -0.1214 -0.4361  0.3675
  200MOL    H4840246   3.187   2.663   4.295 -0.1570 -1.9356 -2.7248
  200MOL    H4940247   3.519   2.741   4.448 -2.8834  0.9472  0.3278
  200MOL    H5040248   3.513   2.585   4.380 -0.0353  0.1626  0.4727
  200MOL    H5140249   3.587   2.710   4.279  0.8536 -1.0162  0.1640
  200MOL    C5240250   3.301   2.492   4.247 -0.2549 -0.3399 -0.9435
  200MOL    C5340251   3.260   2.513   4.099 -0.2722 -0.0509  0.3262
  200MOL    O5440252   3.328   2.427   4.013  0.1617  0.0500 -0.0461
  200MOL    C5540253   3.466   2.459   3.996  0.0733  0.1700 -0.3466
  200MOL    H5640254   3.238   2.412   4.286 -0.8885  1.0825  1.0434
  200MOL    H5740255   3.402   2.452   4.252 -0.1635 -0.0251 -0.1339
  200MOL    H5840256   3.289   2.614   4.071  2.8013 -1.4263 -1.7086
  200MOL    H5940257   3.461   2.533   3.916  0.6826 -0.8589 -1.3521
  200MOL    H6040258   3.526   2.508   4.072  0.1476 -0.4665  0.0072
  200MOL    H6140259   3.515   2.369   3.958  1.9623  0.4753  1.2862
  200MOL    C6240260   3.109   2.489   4.072 -0.1054  0.2564 -0.1440
  200MOL    C6340261   3.052   2.542   3.938  0.3568  0.1884 -0.5047
  200MOL    O6440262   2.916   2.506   3.939 -0.3201  0.1812  0.2449
  200MOL    C6540263   2.894   2.376   3.886  0.0554  0.1842 -0.0641
  200MOL    H6640264   3.048   2.546   4.142 -2.5055 -2.6964  0.2607
  200MOL    H6740265   3.092   2.389   4.110  1.3534 -0.2894 -0.9022
  200MOL    H6840266   3.105   2.491   3.856 -0.9803  0.3371 -1.4722
  200MOL    H6940267   2.790   2.344   3.885  0.6138 -1.7095 -1.3266
  200MOL    H7040268   2.929   2.344   3.788  1.2665 -1.2782  0.8062
  200MOL    H7140269   2.942   2.303   3.951 -0.6955 -0.5183 -0.2831
  200MOL    C7240270   3.052   2.695   3.917 -0.2209 -0.2203  0.3953
  200MOL    C7340271   3.022   2.745   3.778  1.0551 -0.1927  0.0892
  200MOL    O7440272   2.882   2.731   3.738 -0.2898  0.1448  0.2512
  200MOL    C7540273   2.868   2.624   3.645  0.1582  0.7325  0.3921
  200MOL    H7640274   3.146   2.741   3.948  0.6462 -1.4827 -0.3205
  200MOL    H7740275   2.976   2.739   3.981  0.4651  0.9860  0.3904
  200MOL    H7840276   3.080   2.695   3.701  0.8121 -3.1796  1.7971
  200MOL    H7940277   2.771   2.626   3.595 -1.1274  1.3107  2.8204
  200MOL    H8040278   2.930   2.636   3.556 -0.4657 -0.2624 -0.1904
  200MOL    H8140279   2.886   2.523   3.682  1.0192  0.9007  0.4318
  200MOL    C8240280   3.054   2.894   3.751  0.0791  0.3343  0.2625
  200MOL    C8340281   3.201   2.941   3.783  0.0904 -0.1866 -0.6543
  200MOL    O8440282   3.287   2.847   3.710 -0.1455 -0.0394 -0.1130
  200MOL    C8540283   3.376   2.765   3.786  0.5341 -0.5802 -0.1091
  200MOL    H8640284   2.982   2.964   3.795 -0.7518 -0.3634  0.0341
  200MOL    H8740285   3.042   2.901   3.642 -1.6120  1.8296  0.5081
  200MOL    H8840286   3.222   2.932   3.890 -0.1788 -0.2678 -0.6069
  200MOL    H8940287   3.438   2.811   3.862  0.2353  0.6602 -0.6025
  200MOL    H9040288   3.318   2.693   3.844 -0.1796 -0.4140 -0.6174
  200MOL    H9140289   3.440   2.706   3.720  2.1151  1.0497 -0.0758
  200MOL    C9240290   3.238   3.081   3.725 -0.3261  0.1411 -0.2021
  200MOL    C9340291   3.379   3.140   3.766 -0.5499  0.9827  0.5817
  200MOL    O9440292   3.414   3.253   3.685  0.1511 -0.2330  0.3377
  200MOL    C9540293   3.461   3.227   3.558 -0.0776  0.3129  0.5705
  200MOL    H9640294   3.172   3.156   3.768  0.8528  1.0449  0.0502
  200MOL    H9740295   3.231   3.082   3.616  2.6747 -0.2995 -0.4338
  200MOL    H9840296   3.457   3.069   3.743 -0.3001  2.2123 -2.6162
  200MOL    H9940297   3.487   3.319   3.505  0.3778  0.4769  1.0849
  200MOL   H10040298   3.561   3.184   3.559  1.1984  3.1905  0.7066
  200MOL   H10140299   3.389   3.178   3.492  0.8820  0.0411 -0.2829
  200MOL   C10240300   3.386   3.181   3.914  0.5277  0.4753  0.3206
  200MOL   C10340301   3.528   3.190   3.978 -0.6012  0.3999 -0.0942
  200MOL   O10440302   3.608   3.074   3.949  0.0034 -0.1184  0.3004
  200MOL   C10540303   3.604   2.966   4.039 -0.3506  0.0965  0.0232
  200MOL   H10640304   3.324   3.127   3.986 -1.7236 -0.8146 -2.4794
  200MOL   H10740305   3.341   3.279   3.926 -0.4795 -0.1464  1.6840
  200MOL   H10840306   3.519   3.204   4.086  2.1882  1.7397  0.0304
  200MOL   H10940307   3.650   2.985   4.136  0.1488  1.2623 -0.4390
  200MOL   H11040308   3.500   2.934   4.047  0.1806 -1.5195  0.6216
  200MOL   H11140309   3.642   2.876   3.992 -1.5177 -0.8193  0.7939
  200MOL   C11240310   3.608   3.314   3.917  0.3129 -0.7137  0.1439
  200MOL   C11340311   3.760   3.328   3.971 -0.0272 -0.7726 -0.5143
  200MOL   O11440312   3.820   3.441   3.907 -0.3277 -0.0659  0.2751
  200MOL   C11540313   3.872   3.427   3.772 -0.0178 -0.4173  0.4972
  200MOL   H11640314   3.553   3.406   3.940 -0.9587 -0.6686 -2.9391
  200MOL   H11740315   3.614   3.308   3.809 -3.4879  0.7531 -0.2377
  200MOL   H11840316   3.814   3.240   3.938  3.5875  0.2555  2.3999
  200MOL   H11940317   3.932   3.514   3.744 -1.8127  1.3482  2.0154
  200MOL   H12040318   3.927   3.335   3.754 -1.2480 -0.9239 -0.7713
  200MOL   H12140319   3.784   3.418   3.708 -0.2171 -1.1685  0.8730
  200MOL   C12240320   3.775   3.337   4.126  0.0289 -0.9130 -0.1421
  200MOL   C12340321   3.919   3.357   4.182  0.2005 -1.1173 -0.1597
  200MOL   O12440322   3.933   3.474   4.258  0.2870 -0.0090  0.1961
  200MOL   C12540323   3.903   3.598   4.198  0.6885 -0.8042  0.5851
  200MOL   H12640324   3.721   3.254   4.172 -1.6413  0.7351  0.8878
  200MOL   H12740325   3.718   3.422   4.162 -0.5538 -1.0912 -0.6427
  200MOL   H12840326   3.988   3.365   4.097 -1.0051 -1.0957 -1.1478
  200MOL   H12940327   3.797   3.621   4.209  1.1804  2.1398 -0.2588
  200MOL   H13040328   3.952   3.676   4.257  0.6985 -2.0609  2.2806
  200MOL   H13140329   3.936   3.601   4.094 -1.2899 -4.2683 -0.2313
  200MOL   C13240330   3.972   3.240   4.272  0.3379 -0.4841 -0.1029
  200MOL   C13340331   4.033   3.109   4.212  0.5973 -0.2584 -0.2162
  200MOL   O13440332   3.941   3.023   4.161  0.7975 -0.3107  0.4294
  200MOL   C13540333   3.878   2.935   4.259 -0.2729  1.1183 -0.0311
  200MOL   H13640334   3.886   3.221   4.337  1.1539  2.0984  1.7890
  200MOL   H13740335   4.058   3.278   4.328  1.7734 -0.5082 -2.2332
  200MOL   H13840336   4.095   3.059   4.286  1.4729 -0.5691 -1.1512
  200MOL   H13940337   3.964   2.892   4.310 -1.2100 -1.0065 -0.1880
  200MOL   H14040338   3.824   2.994   4.334 -1.3608 -0.3442  0.3544
  200MOL   H14140339   3.818   2.856   4.214  0.0734  0.1781  1.1322
  200MOL   C14240340   4.136   3.128   4.097  0.1314 -0.3421  0.2599
  200MOL   C14340341   4.265   3.208   4.138  0.3938 -0.0198 -0.1938
  200MOL   O14440342   4.323   3.134   4.245  0.1331  0.5575 -0.6992
  200MOL   C14540343   4.384   3.211   4.346 -0.4249  0.1371 -0.5280
  200MOL   H14640344   4.083   3.180   4.017  1.6422  0.1028 -0.4821
  200MOL   H14740345   4.174   3.030   4.065  0.3053 -0.6436  1.3739
  200MOL   H14840346   4.241   3.303   4.186  1.1811 -1.2182  2.6632
  200MOL   H14940347   4.301   3.261   4.396 -0.1382 -0.5366  0.6382
  200MOL   H15040348   4.441   3.152   4.417  1.3469  2.1227 -0.2452
  200MOL   H15140349   4.455   3.282   4.303  1.0032 -1.5355 -0.9911
  200MOL   C15240350   4.361   3.238   4.022  0.4091 -0.2049  0.5686
  200MOL   C15340351   4.316   3.363   3.941  0.0949 -0.1750  0.3477
  200MOL   O15440352   4.374   3.475   4.008  0.7692  0.8489 -0.2660
  200MOL   C15540353   4.300   3.591   4.022 -0.1893  0.0861  0.2060
  200MOL   H15640354   4.371   3.148   3.962  1.5110 -0.7007  1.4743
  200MOL   H15740355   4.464   3.248   4.056  0.8456  0.0796 -0.8328
  200MOL   H15840356   4.207   3.371   3.945 -0.1900 -2.9025 -1.1941
  200MOL   H15940357   4.257   3.636   3.932  2.4473 -0.8417 -1.5841
  200MOL   H16040358   4.213   3.574   4.085 -0.2394  0.6174  0.2796
  200MOL   H16140359   4.361   3.661   4.079  0.4033  0.5781 -1.0028
  200MOL   C16240360   4.354   3.379   3.793  0.3066  0.1653  0.5425
  200MOL   C16340361   4.504   3.390   3.772  0.2547  0.6254 -0.5791
  200MOL   O16440362   4.539   3.359   3.643 -0.3024 -0.7387  0.4118
  200MOL   C16540363   4.648   3.272   3.623  0.2635 -0.1192 -0.4926
  200MOL   H16640364   4.308   3.469   3.753 -0.7823 -1.4461 -1.9336
  200MOL   H16740365   4.316   3.293   3.738  1.0228  0.7628 -0.9126
  200MOL   H16840366   4.563   3.322   3.832 -1.9824  0.0440  1.0003
  200MOL   H16940367   4.634   3.178   3.676  1.5021 -1.1182 -1.8698
  200MOL   H17040368   4.657   3.259   3.515  1.4768 -0.3446 -0.3761
  200MOL   H17140369   4.732   3.332   3.657 -0.6099  2.3254 -2.5141
  200MOL   C17240370   4.560   3.524   3.792 -0.0949  0.5282 -0.6197
  200MOL   C17340371   4.500   3.645   3.722  0.7471 -0.6122  0.2636
  200MOL   O17440372   4.572   3.770   3.750 -0.2162  0.1473  0.1942
  200MOL   C17540373   4.538   3.834   3.875 -0.5351 -0.3176  0.8565
  200MOL   H17640374   4.662   3.522   3.755  0.4700 -3.0164  0.8871
  200MOL   H17740375   4.571   3.540   3.900 -2.4829  2.4200 -0.6117
  200MOL   H17840376   4.404   3.665   3.771  2.3302  2.9351  2.0654
  200MOL   H17940377   4.631   3.859   3.927  0.4987 -1.3838 -0.4414
  200MOL   H18040378   4.470   3.919   3.865 -2.5136 -1.8609  0.9611
  200MOL   H18140379   4.483   3.782   3.954  2.7758 -2.4717  1.8326
  200MOL   C18240380   4.475   3.639   3.570 -0.7966  1.0518  0.2947
  200MOL   C18340381   4.406   3.760   3.504 -0.6886  0.2598  0.1571
  200MOL   O18440382   4.367   3.720   3.378 -0.1063  0.1940 -0.4543
  200MOL   C18540383   4.465   3.733   3.275  0.2075  0.2095  0.1372
  200MOL   H18640384   4.408   3.554   3.553 -1.1359  1.3729  0.0001
  200MOL   H18740385   4.566   3.628   3.511 -1.3782 -1.0898 -0.2513
  200MOL   H18840386   4.477   3.842   3.499 -0.8613  0.3420 -1.1340
  200MOL   H18940387   4.563   3.688   3.289  0.6933  1.2145 -0.0328
  200MOL   H19040388   4.426   3.691   3.183  0.4600  0.5879 -0.1391
  200MOL   H19140389   4.471   3.838   3.246 -2.4066 -0.2710 -2.3341
  200MOL   C19240390   4.279   3.810   3.579 -0.0406 -0.5749  0.0013
  200MOL   C19340391   4.208   3.912   3.496 -0.2456 -0.6929 -0.0446
  200MOL   O19440392   4.117   3.970   3.587 -0.0021  0.3418 -0.2205
  200MOL   C19540393   3.981   3.927   3.592 -0.6604 -0.6634 -0.1500
  200MOL   H19640394   4.308   3.853   3.674 -3.3431 -1.0329  1.2742
  200MOL   H19740395   4.221   3.719   3.595 -0.0736 -0.4255  0.7145
  200MOL   H19840396   4.173   3.883   3.397 -0.6315 -2.3617  0.5640
  200MOL   H19940397   3.907   3.973   3.527 -1.0789  1.0361  1.4713
  200MOL   H20040398   3.975   3.820   3.576  1.0691 -0.7967 -0.0776
  200MOL   H20140399   3.957   3.946   3.697  0.2365 -0.2849 -0.0029
  200MOL   H20240400   4.274   3.997   3.481 -0.1850 -1.2540 -3.1619
  201MOL     C140401   0.264   2.609   1.663 -0.2806 -0.1485 -0.2872
  201MOL     C240402   0.398   2.585   1.582 -0.2937  0.3955 -0.1382
  201MOL     O340403   0.469   2.707   1.604 -0.5951 -0.5720  0.2830
  201MOL     C440404   0.460   2.802   1.495  0.1368 -0.2926  0.6274
  201MOL     H540405   0.290   2.618   1.768  0.1868  1.1396 -0.5058
  201MOL     H640406   0.212   2.696   1.624 -0.4476 -0.8910 -1.7448
  201MOL     H740407   0.384   2.572   1.475  0.4437 -0.8058 -0.0951
  201MOL     H840408   0.514   2.892   1.524 -1.0655  1.7353 -3.1365
  201MOL     H940409   0.506   2.768   1.402  1.1466  1.6088  0.4257
  201MOL    H1040410   0.356   2.829   1.484 -0.0806 -0.7352  1.4698
  201MOL    H1140411   0.199   2.522   1.654  0.3488 -0.7880  1.1907
  201MOL    C1240412   0.466   2.464   1.636  0.4416 -0.4784 -0.2364
  201MOL    C1340413   0.417   2.332   1.577  0.0028  0.6385  0.5340
  201MOL    O1440414   0.473   2.317   1.446  0.2043  0.4251  0.0621
  201MOL    C1540415   0.446   2.198   1.376 -0.4487  0.1637  0.5489
  201MOL    H1640416   0.473   2.454   1.745 -1.0119  0.0487 -0.0775
  201MOL    H1740417   0.573   2.464   1.620  0.1163 -0.0202 -2.6430
  201MOL    H1840418   0.309   2.326   1.560  0.5108 -0.8138 -2.4351
  201MOL    H1940419   0.514   2.116   1.400  1.1521  1.2638 -0.1297
  201MOL    H2040420   0.344   2.161   1.391 -0.5586  0.3289  0.2209
  201MOL    H2140421   0.461   2.214   1.269 -1.5389 -1.1154  0.1806
  201MOL    C2240422   0.467   2.212   1.668  0.2548 -0.2019 -0.6780
  201MOL    C2340423   0.404   2.168   1.812 -0.0860  0.0265 -0.1611
  201MOL    O2440424   0.486   2.215   1.918 -0.3722  0.4594  0.2980
  201MOL    C2540425   0.570   2.113   1.968  0.2181 -0.6596 -0.2540
  201MOL    H2640426   0.576   2.205   1.672  0.2344 -1.0569 -1.5071
  201MOL    H2740427   0.432   2.124   1.614 -1.9750 -0.1453  0.5991
  201MOL    H2840428   0.396   2.060   1.815  0.0008  0.0510  1.1317
  201MOL    H2940429   0.515   2.023   1.993  0.5103 -0.6740  0.3387
  201MOL    H3040430   0.661   2.106   1.908 -0.8609 -1.2645 -1.8530
  201MOL    H3140431   0.592   2.161   2.064 -2.2830  0.2932 -0.0937
  201MOL    C3240432   0.266   2.222   1.837 -0.5960  0.4592  0.0045
  201MOL    C3340433   0.197   2.167   1.969  0.3383  0.2045  0.4672
  201MOL    O3440434   0.197   2.273   2.063  0.3895 -0.1780  0.2035
  201MOL    C3540435   0.178   2.236   2.200 -0.6647  0.1777  0.0720
  201MOL    H3640436   0.203   2.199   1.751 -1.9193 -2.0784  1.6013
  201MOL    H3740437   0.268   2.331   1.833 -0.5310  0.5638  2.6015
  201MOL    H3840438   0.248   2.079   2.007 -0.4393 -0.8390 -0.8584
  201MOL    H3940439   0.095   2.169   2.219 -0.7083 -0.1448 -1.2040
  201MOL    H4040440   0.272   2.198   2.240  0.2184 -0.7261 -2.7619
  201MOL    H4140441   0.137   2.325   2.249 -0.2251  1.3057 -1.5477
  201MOL    C4240442   0.053   2.118   1.945 -0.4812 -0.5018  0.5100
  201MOL    C4340443   0.030   1.982   1.873  0.1191 -0.0306  0.4497
  201MOL    O4440444   0.039   1.889   1.974 -0.2607 -0.0846  0.6552
  201MOL    C4540445   0.034   1.755   1.930  0.4695 -0.4785  0.0012
  201MOL    H4640446   0.014   2.195   1.877 -0.5890 -2.4176 -1.6668
  201MOL    H4740447   7.803   2.119   2.035 -0.4379  0.8410  0.5420
  201MOL    H4840448   0.115   1.964   1.808 -0.4050 -3.5840  0.6552
  201MOL    H4940449   0.085   1.725   1.839 -1.1285 -0.1331 -1.0242
  201MOL    H5040450   0.062   1.694   2.016  2.4544  2.9980  1.9134
  201MOL    H5140451   7.745   1.728   1.893 -0.6212  0.6613  2.0209
  201MOL    C5240452   7.700   1.976   1.811  0.6041  0.1961  0.4615
  201MOL    C5340453   7.678   2.071   1.693  0.4420  0.6874  0.1545
  201MOL    O5440454   7.770   2.032   1.588  0.3261 -0.1468 -0.4272
  201MOL    C5540455   7.807   2.143   1.500 -0.3137  0.0809 -0.7067
  201MOL    H5640456   7.621   1.977   1.886 -0.3424  0.4032 -0.5199
  201MOL    H5740457   7.674   1.879   1.769 -1.5864  0.6977  0.5945
  201MOL    H5840458   7.694   2.173   1.729  1.2537  0.7592 -0.3959
  201MOL    H5940459   0.047   2.098   1.415 -1.8142  0.2792 -1.7200
  201MOL    H6040460   7.727   2.207   1.464  1.6512  3.1059  0.1051
  201MOL    H6140461   0.073   2.207   1.545 -0.7179 -0.0894  0.2423
  201MOL    C6240462   7.539   2.090   1.640 -0.1803  0.6814 -0.0119
  201MOL    C6340463   7.484   1.960   1.591 -0.5783 -0.1516  0.4179
  201MOL    O6440464   7.422   1.901   1.704 -0.2915  0.3854 -0.1869
  201MOL    C6540465   7.394   1.757   1.687  0.6093  0.4175 -0.2408
  201MOL    H6640466   7.524   2.167   1.564 -0.9963 -1.2978 -1.9168
  201MOL    H6740467   7.478   2.123   1.724 -0.6533 -3.2545  1.2956
  201MOL    H6840468   7.554   1.887   1.550  0.1977  1.3718 -1.0183
  201MOL    H6940469   7.298   1.749   1.636 -0.2151 -0.7371  1.4405
  201MOL    H7040470   7.470   1.712   1.625  0.6405 -1.0226  0.8242
  201MOL    H7140471   7.387   1.701   1.780 -1.0731 -1.2627 -1.3466
  201MOL    C7240472   7.374   1.980   1.478 -0.4769 -0.1771 -0.3296
  201MOL    C7340473   7.413   2.048   1.347  0.1559 -0.1823 -0.8645
  201MOL    O7440474   7.478   1.957   1.262 -0.1667 -0.6363 -0.2068
  201MOL    C7540475   7.624   1.950   1.273 -0.1771 -0.9116  0.0287
  201MOL    H7640476   7.305   2.050   1.524 -1.8342  1.2027 -4.3042
  201MOL    H7740477   7.321   1.889   1.448  0.1516 -0.1219 -1.6678
  201MOL    H7840478   7.466   2.141   1.367  1.2183 -0.9471 -0.0680
  201MOL    H7940479   7.660   1.857   1.229 -1.0085 -2.5725  2.7475
  201MOL    H8040480   7.678   2.037   1.237 -1.2022 -0.0393  0.5801
  201MOL    H8140481   7.659   1.929   1.374 -1.9183 -0.3428  0.7780
  201MOL    C8240482   7.286   2.094   1.267  0.3718 -0.5349 -0.4154
  201MOL    C8340483   7.194   2.200   1.326 -0.7283  0.1196 -0.3233
  201MOL    O8440484   7.275   2.321   1.330  0.7226 -0.0841  0.8473
  201MOL    C8540485   7.289   2.379   1.461  0.0690  0.1273  0.0555
  201MOL    H8640486   7.233   2.006   1.231 -1.9034  1.9033 -3.3661
  201MOL    H8740487   7.318   2.134   1.170  2.1079  0.0885  0.3886
  201MOL    H8840488   7.156   2.176   1.425 -0.2204  1.1337  0.1265
  201MOL    H8940489   7.194   2.407   1.506 -0.4815 -0.0033 -1.0100
  201MOL    H9040490   7.341   2.315   1.532 -0.5176 -1.2808 -0.7579
  201MOL    H9140491   7.360   2.462   1.462  0.3498 -0.0996 -0.4898
  201MOL    C9240492   7.069   2.236   1.234 -0.2526 -0.2266 -0.0662
  201MOL    C9340493   6.970   2.123   1.194  0.2800  0.1424  0.6843
  201MOL    O9440494   6.894   2.088   1.304 -0.5104  0.1069  0.1148
  201MOL    C9540495   6.920   1.957   1.349 -0.0578  0.2743  0.9935
  201MOL    H9640496   7.107   2.281   1.143 -0.7496 -1.3680 -0.8468
  201MOL    H9740497   7.012   2.312   1.288 -0.5548 -1.7498  1.8442
  201MOL    H9840498   7.020   2.035   1.153 -1.0688 -0.2324 -0.1660
  201MOL    H9940499   6.875   1.882   1.283  0.4815 -0.5856  1.5927
  201MOL   H10040500   7.022   1.941   1.385 -0.2904 -0.9035  1.1801
  201MOL   H10140501   6.868   1.939   1.443 -0.3347 -0.7071  0.6624
  201MOL   C10240502   6.872   2.175   1.096  0.3271 -0.5149  0.6233
  201MOL   C10340503   6.929   2.188   0.949 -0.4414  0.5081 -0.3361
  201MOL   O10440504   6.903   2.058   0.900 -0.0916 -0.6441 -0.3699
  201MOL   C10540505   6.959   1.994   0.785  0.3721 -0.4239  0.1936
  201MOL   H10640506   6.852   2.279   1.125 -0.1707 -0.3716 -0.2169
  201MOL   H10740507   6.782   2.115   1.101  0.7465 -1.1560  0.5754
  201MOL   H10840508   7.035   2.212   0.946 -0.0830 -0.8789  1.1320
  201MOL   H10940509   6.984   2.068   0.709 -0.4511 -0.6560 -0.3194
  201MOL   H11040510   7.058   1.954   0.806  0.3109 -0.3942  0.5480
  201MOL   H11140511   6.893   1.918   0.744 -0.7609 -0.1563  1.4789
  201MOL   C11240512   6.854   2.292   0.862  0.5388  0.2994  0.1886
  201MOL   C11340513   6.890   2.436   0.881 -0.8942 -0.0020 -0.2020
  201MOL   O11440514   7.024   2.466   0.842  0.0592  0.4859  0.0581
  201MOL   C11540515   7.130   2.520   0.932  0.1690  0.7469  0.7650
  201MOL   H11640516   6.747   2.285   0.878  0.3980  0.1469 -0.8130
  201MOL   H11740517   6.874   2.271   0.757 -0.8650 -1.1227  0.1862
  201MOL   H11840518   6.878   2.468   0.984 -1.1388 -0.7011 -0.0102
  201MOL   H11940519   7.220   2.518   0.870 -0.7463 -1.3904 -0.5727
  201MOL   H12040520   7.110   2.626   0.942  0.9162  0.9705 -0.0878
  201MOL   H12140521   7.141   2.459   1.022  0.1768 -0.6626 -0.1596
  201MOL   C12240522   6.793   2.525   0.793  0.1682 -0.6372 -0.7442
  201MOL   C12340523   6.796   2.680   0.815 -0.5530 -0.2914 -0.5051
  201MOL   O12440524   6.844   2.726   0.695  0.1386  0.1929 -0.1468
  201MOL   C12540525   6.985   2.723   0.682  0.1716 -0.8987 -0.3720
  201MOL   H12640526   6.693   2.490   0.820 -1.0950  4.8406  2.5173
  201MOL   H12740527   6.797   2.498   0.687 -0.1126  0.3622 -1.0148
  201MOL   H12840528   6.863   2.706   0.897  0.3107  0.8949 -1.5663
  201MOL   H12940529   7.020   2.798   0.611 -0.9131 -0.4813 -0.4814
  201MOL   H13040530   7.025   2.748   0.780  0.1208  3.5651 -1.4167
  201MOL   H13140531   7.014   2.621   0.653 -0.6125 -1.5202  1.0021
  201MOL   C13240532   6.659   2.742   0.836 -0.1173 -0.1098 -0.2118
  201MOL   C13340533   6.647   2.897   0.824  0.5454  0.2668  0.1435
  201MOL   O13440534   6.502   2.928   0.812 -0.4655  0.5078  0.2522
  201MOL   C13540535   6.447   2.906   0.682 -0.0912  0.0773  0.3543
  201MOL   H13640536   6.630   2.703   0.934  0.8772  1.1903  0.6169
  201MOL   H13740537   6.593   2.687   0.769 -1.2923  1.3674 -0.2950
  201MOL   H13840538   6.686   2.927   0.727  1.5264 -1.0572  0.1071
  201MOL   H13940539   6.443   2.800   0.660  2.0117 -0.3504  1.8536
  201MOL   H14040540   6.344   2.942   0.690 -0.3839  0.2396 -3.0642
  201MOL   H14140541   6.502   2.948   0.597  0.4481 -3.2133 -0.9977
  201MOL   C14240542   6.708   2.979   0.943 -0.1079 -0.0101 -0.5067
  201MOL   C14340543   6.856   3.012   0.924 -0.1436 -0.3074 -0.7840
  201MOL   O14440544   6.852   3.115   0.825  0.6059  0.3703 -0.2038
  201MOL   C14540545   6.955   3.119   0.715  0.4785  0.0407 -0.5006
  201MOL   H14640546   6.699   2.920   1.033  1.3741 -0.6781 -0.7722
  201MOL   H14740547   6.638   3.062   0.953  0.4673  0.3158  0.9986
  201MOL   H14840548   6.917   2.930   0.888  0.8742  1.6506 -3.7009
  201MOL   H14940549   7.056   3.148   0.745  1.0917 -2.1724 -0.3371
  201MOL   H15040550   6.963   3.022   0.666  1.1508 -0.5445  0.7430
  201MOL   H15140551   6.927   3.190   0.638  1.6193  1.0091 -0.0439
  201MOL   C15240552   6.920   3.068   1.050 -0.1469 -0.0676  0.3281
  201MOL   C15340553   7.063   3.020   1.076  0.2706  0.7906 -0.4627
  201MOL   O15440554   7.121   3.098   1.173 -0.4644 -0.4133  0.3072
  201MOL   C15540555   7.183   3.213   1.126  0.5727  0.8500  0.0597
  201MOL   H15640556   6.855   3.052   1.137 -1.2674 -1.8045 -0.8046
  201MOL   H15740557   6.905   3.176   1.051  1.8331  0.2149  0.6199
  201MOL   H15840558   7.102   3.022   0.974  1.4213 -1.9416 -0.1304
  201MOL   H15940559   7.179   3.253   1.024 -0.9684 -0.6204 -0.4993
  201MOL   H16040560   7.137   3.291   1.186  2.1253  1.0635  0.9675
  201MOL   H16140561   7.282   3.210   1.171 -0.3898 -1.2435  2.1628
  201MOL   C16240562   7.072   2.878   1.132 -0.1677  0.3795  0.1183
  201MOL   C16340563   7.212   2.819   1.171 -0.4853 -0.5962  0.2036
  201MOL   O16440564   7.203   2.678   1.196  0.0556 -0.6348  0.1638
  201MOL   C16540565   7.128   2.638   1.312  0.2842  0.6726  0.6222
  201MOL   H16640566   7.029   2.804   1.065  1.7949  0.4669 -1.2905
  201MOL   H16740567   7.007   2.871   1.219 -1.3711 -1.4433 -0.9010
  201MOL   H16840568   7.253   2.869   1.258  0.4430  1.2799 -1.2949
  201MOL   H16940569   7.146   2.530   1.311  1.1566  0.8235 -0.2797
  201MOL   H17040570   7.173   2.691   1.396  1.5437  0.4516  0.1027
  201MOL   H17140571   7.021   2.659   1.308  0.1434 -0.0106  0.6034
  201MOL   C17240572   7.308   2.834   1.060  0.0350  0.9630  0.4946
  201MOL   C17340573   7.446   2.773   1.090  0.1744  0.7235 -0.0791
  201MOL   O17440574   7.519   2.819   0.984  0.3493 -0.2249  0.7608
  201MOL   C17540575   7.595   2.714   0.918  0.3377 -0.3735  0.2348
  201MOL   H17640576   7.334   2.939   1.043 -0.2832  0.6251 -2.4352
  201MOL   H17740577   7.266   2.801   0.965 -2.0505  1.9643  1.0478
  201MOL   H17840578   7.432   2.665   1.081 -0.5612  0.5840  2.3939
  201MOL   H17940579   7.681   2.685   0.977  1.2225  0.4602 -0.6204
  201MOL   H18040580   7.542   2.622   0.893 -2.2617  1.3457 -0.9434
  201MOL   H18140581   7.635   2.754   0.825 -2.7841  2.6540  0.0728
  201MOL   C18240582   7.510   2.820   1.225 -0.5367 -0.6913  0.2106
  201MOL   C18340583   7.648   2.758   1.252 -0.2042 -0.9044 -0.5808
  201MOL   O18440584   7.704   2.817   1.371  0.2372 -0.0929  0.2040
  201MOL   C18540585   7.781   2.928   1.347 -0.8909 -0.2581 -0.1003
  201MOL   H18640586   7.447   2.788   1.307 -1.1284  0.5786  0.2591
  201MOL   H18740587   7.517   2.929   1.221  1.3623 -0.8009 -0.2770
  201MOL   H18840588   7.721   2.782   1.174 -2.2301 -0.4344 -2.3686
  201MOL   H18940589   0.063   2.899   1.297 -2.0636 -1.3034 -1.6916
  201MOL   H19040590   7.735   3.012   1.295 -1.2349 -1.7579 -2.2472
  201MOL   H19140591   7.803   2.978   1.442 -0.4908  0.0366 -0.3449
  201MOL   C19240592   7.638   2.613   1.279  0.0011 -0.3005 -0.4878
  201MOL   C19340593   7.774   2.550   1.293  0.1678 -0.7662  0.0932
  201MOL   O19440594   7.754   2.412   1.265 -0.2573  0.0635 -0.0248
  201MOL   C19540595   0.057   2.353   1.214  0.7431 -0.2195  0.2167
  201MOL   H19640596   7.592   2.569   1.190  2.8169  1.8280 -3.1017
  201MOL   H19740597   7.566   2.603   1.361 -0.0797 -1.2065 -0.6613
  201MOL   H19840598   7.810   2.578   1.392  1.4686 -3.3850  0.4063
  201MOL   H19940599   0.132   2.355   1.293  1.7233 -1.1850 -0.6629
  201MOL   H20040600   0.043   2.247   1.194 -1.4265 -0.0912  1.0165
  201MOL   H20140601   0.095   2.398   1.122  2.0188  2.2852  1.9167
  201MOL   H20240602   0.041   2.600   1.235  1.5150 -0.1397  2.3577
  202MOL     C140603   7.476   6.320   1.293 -1.0046  0.2838  0.4745
  202MOL     C240604   7.446   6.206   1.389  0.1882 -0.3083 -0.1905
  202MOL     O340605   7.423   6.257   1.513  0.3814 -0.0706 -0.3775
  202MOL     C440606   7.506   6.203   1.619  0.2905 -0.1937  0.9215
  202MOL     H540607   7.557   6.378   1.336 -0.9334  1.5959 -1.3972
  202MOL     H640608   7.500   6.274   1.197  0.0638 -1.3118  1.4744
  202MOL     H740609   7.522   6.128   1.384 -0.1119 -0.5358 -1.2845
  202MOL     H840610   7.486   6.095   1.617 -0.9178  0.0367 -0.1546
  202MOL     H940611   7.611   6.221   1.599  0.4227 -0.6544  1.1945
  202MOL    H1040612   7.491   6.240   1.720  0.7642  1.7843  0.2779
  202MOL    H1140613   7.397   6.394   1.285  0.4257  1.9839  1.6526
  202MOL    C1240614   7.317   6.142   1.345 -0.0715  0.4639 -0.2181
  202MOL    C1340615   7.274   6.015   1.420 -0.7727 -0.4525  0.5339
  202MOL    O1440616   7.218   6.068   1.540 -0.0088  0.8991 -0.7593
  202MOL    C1540617   7.216   5.995   1.652 -0.1015  0.4020  0.8230
  202MOL    H1640618   7.313   6.117   1.239  0.2287  0.6214 -0.2670
  202MOL    H1740619   7.241   6.220   1.352  0.0704  0.9715 -3.5093
  202MOL    H1840620   7.361   5.952   1.437  0.1641  0.5680 -0.3671
  202MOL    H1940621   7.140   5.917   1.660  0.4434 -0.2315 -0.1250
  202MOL    H2040622   7.302   5.929   1.650 -1.0253 -0.7945 -0.0989
  202MOL    H2140623   7.221   6.056   1.742 -1.8590  1.9689 -0.1217
  202MOL    C2240624   7.167   5.940   1.343 -0.4117  0.4182  0.1803
  202MOL    C2340625   7.153   5.788   1.383 -0.5214 -0.3912  0.2704
  202MOL    O2440626   7.046   5.719   1.314  0.3708 -0.0502 -0.2084
  202MOL    C2540627   6.920   5.779   1.310  0.7457  0.7142 -0.4525
  202MOL    H2640628   7.178   5.939   1.235 -1.9913  1.0440 -0.0005
  202MOL    H2740629   7.074   5.990   1.368  0.3728  1.0428  1.9599
  202MOL    H2840630   7.118   5.772   1.484  1.0465 -3.3931  0.3834
  202MOL    H2940631   6.876   5.787   1.409 -1.4259  0.5428 -1.3543
  202MOL    H3040632   6.920   5.866   1.244  0.0247  0.9626 -0.1328
  202MOL    H3140633   6.859   5.719   1.242  0.6917  1.1685 -0.8168
  202MOL    C3240634   7.287   5.707   1.351  0.8532  0.4175  0.2555
  202MOL    C3340635   7.282   5.576   1.418 -0.0555  0.1896 -1.3088
  202MOL    O3440636   7.374   5.495   1.345 -0.3250 -0.3881  0.0049
  202MOL    C3540637   7.317   5.393   1.264  0.1642  1.0612  0.9189
  202MOL    H3640638   7.384   5.746   1.385  1.5678 -0.7456 -0.4114
  202MOL    H3740639   7.295   5.689   1.244 -1.6190  1.2756 -0.0972
  202MOL    H3840640   7.184   5.529   1.408 -0.0390 -0.1755  0.1367
  202MOL    H3940641   7.391   5.347   1.200 -0.3007  0.5226  0.7668
  202MOL    H4040642   7.263   5.326   1.331 -1.4368  1.2671 -0.1322
  202MOL    H4140643   7.248   5.434   1.190  0.6295  2.3412  1.1750
  202MOL    C4240644   7.320   5.586   1.568 -0.3501  0.3911 -0.3951
  202MOL    C4340645   7.294   5.454   1.648 -0.0512 -0.3205  0.4952
  202MOL    O4440646   7.423   5.431   1.720  0.4451  0.7053  0.4693
  202MOL    C4540647   7.464   5.302   1.747  0.2021  0.1916 -0.4334
  202MOL    H4640648   7.275   5.674   1.614  0.3513 -0.3022  1.7151
  202MOL    H4740649   7.426   5.609   1.565  0.2992 -2.5559 -1.1608
  202MOL    H4840650   7.285   5.378   1.570  2.4374 -0.7596  0.5962
  202MOL    H4940651   7.409   5.259   1.832  0.2524 -0.7461 -0.8704
  202MOL    H5040652   7.449   5.246   1.655  1.2825 -1.3631  0.3303
  202MOL    H5140653   7.572   5.298   1.759  0.3418  1.6558 -1.1117
  202MOL    C5240654   7.169   5.443   1.737 -0.0901 -0.2818 -0.1358
  202MOL    C5340655   7.035   5.434   1.654  0.4052 -0.3021 -0.0884
  202MOL    O5440656   7.044   5.336   1.549  0.4709  0.0300 -0.4208
  202MOL    C5540657   6.928   5.304   1.477  0.3692  0.1427  0.3042
  202MOL    H5640658   7.156   5.525   1.808 -0.2391 -1.2658  1.0073
  202MOL    H5740659   7.168   5.345   1.785 -2.5144 -0.5171 -0.6430
  202MOL    H5840660   7.019   5.530   1.606 -3.1603 -0.6511  0.2546
  202MOL    H5940661   6.917   5.386   1.406  1.2338  0.6606  0.7541
  202MOL    H6040662   6.940   5.216   1.414  0.3391  0.2785  0.1070
  202MOL    H6140663   6.840   5.276   1.535 -1.0773  1.9413 -0.9482
  202MOL    C6240664   6.908   5.416   1.747 -0.6381  0.6520 -0.6439
  202MOL    C6340665   6.771   5.469   1.707 -0.1847  0.1511 -0.0439
  202MOL    O6440666   6.691   5.425   1.805  0.1548 -0.3565 -0.1121
  202MOL    C6540667   6.565   5.368   1.776 -0.2627  0.6796  0.6767
  202MOL    H6640668   6.932   5.468   1.840 -1.6309 -0.0869  0.0318
  202MOL    H6740669   6.900   5.312   1.779  3.3136  0.7159  0.7539
  202MOL    H6840670   6.738   5.425   1.614 -0.4184 -0.1586  0.1851
  202MOL    H6940671   6.574   5.281   1.712  0.6410  1.0922  0.2304
  202MOL    H7040672   6.518   5.331   1.867 -1.7074  0.1123 -0.2701
  202MOL    H7140673   6.499   5.433   1.718  0.5057  2.3160  1.6008
  202MOL    C7240674   6.754   5.624   1.695  0.6309  0.2029 -0.4359
  202MOL    C7340675   6.773   5.706   1.820  0.0225  0.4706 -0.2752
  202MOL    O7440676   6.905   5.705   1.864  0.0992  0.0077 -0.1512
  202MOL    C7540677   6.919   5.711   2.008  0.1814 -0.3324 -0.0737
  202MOL    H7640678   6.650   5.649   1.675  0.3208  1.0116  1.9256
  202MOL    H7740679   6.824   5.670   1.626  1.3445 -0.6053 -0.2636
  202MOL    H7840680   6.707   5.674   1.901  1.6524  1.2129  1.4149
  202MOL    H7940681   6.880   5.798   2.060  1.4858 -0.1668  0.6514
  202MOL    H8040682   6.868   5.622   2.044  0.2620 -1.1863 -2.0276
  202MOL    H8140683   7.024   5.690   2.030  0.1355 -0.1504  0.3295
  202MOL    C8240684   6.746   5.858   1.795 -0.1866 -1.0181 -0.2216
  202MOL    C8340685   6.596   5.891   1.763  0.4179  0.7048 -0.2512
  202MOL    O8440686   6.512   5.839   1.868  0.2930 -0.0832  0.1849
  202MOL    C8540687   6.376   5.793   1.825 -0.0354 -0.3432 -0.5383
  202MOL    H8640688   6.817   5.900   1.724 -1.1322 -1.1608 -1.2575
  202MOL    H8740689   6.773   5.913   1.886  2.4898 -2.8065  0.1256
  202MOL    H8840690   6.553   5.840   1.677  0.3982 -2.6127  1.6383
  202MOL    H8940691   6.318   5.869   1.773  2.0822  0.7331 -1.3612
  202MOL    H9040692   6.381   5.708   1.756  1.2468 -1.2740  0.6747
  202MOL    H9140693   6.335   5.747   1.915 -0.3450  1.4776  0.2730
  202MOL    C9240694   6.567   6.037   1.754  0.3099 -0.0472  0.0843
  202MOL    C9340695   6.629   6.093   1.630  0.2554 -0.2885  0.2939
  202MOL    O9440696   6.547   6.051   1.517 -0.1472  0.8833 -0.5347
  202MOL    C9540697   6.608   6.048   1.391  0.6983 -0.0684 -1.1378
  202MOL    H9640698   6.594   6.101   1.838  1.1843 -0.0217 -0.2136
  202MOL    H9740699   6.460   6.054   1.743  0.6631 -0.4570 -4.8219
  202MOL    H9840700   6.732   6.059   1.624  0.3158 -0.2475  1.0399
  202MOL    H9940701   6.551   5.999   1.312 -1.1802  0.9629 -0.4716
  202MOL   H10040702   6.625   6.151   1.357 -0.2657 -0.0856 -1.7078
  202MOL   H10140703   6.691   5.983   1.418  1.8080  1.5696 -0.5208
  202MOL   C10240704   6.628   6.248   1.627 -0.6594  0.5851 -0.3997
  202MOL   C10340705   6.748   6.313   1.701 -0.0359  0.0329 -0.1380
  202MOL   O10440706   6.872   6.284   1.636  0.3895 -0.2181 -0.3432
  202MOL   C10540707   6.963   6.204   1.700  0.2900 -0.1450  0.2729
  202MOL   H10640708   6.538   6.288   1.673 -1.4118 -0.9573 -0.5115
  202MOL   H10740709   6.632   6.279   1.523  0.8531  0.8821 -0.2720
  202MOL   H10840710   6.755   6.280   1.804  1.1410  0.5065 -0.0533
  202MOL   H10940711   6.964   6.236   1.804  2.2758  1.2943 -0.1643
  202MOL   H11040712   6.932   6.099   1.697  0.7537 -0.2519 -1.8614
  202MOL   H11140713   7.057   6.210   1.645  0.0314 -1.5328 -0.3515
  202MOL   C11240714   6.732   6.464   1.704  0.5342 -0.2140 -0.6812
  202MOL   C11340715   6.836   6.560   1.773 -0.3407 -0.6209 -0.7638
  202MOL   O11440716   6.804   6.699   1.738 -0.3603 -0.6161 -0.1469
  202MOL   C11540717   6.873   6.752   1.617 -0.0371 -0.1634 -0.4407
  202MOL   H11640718   6.637   6.486   1.752  1.2511  2.6150 -0.5024
  202MOL   H11740719   6.717   6.487   1.598 -1.7058  0.7783 -0.1588
  202MOL   H11840720   6.933   6.538   1.728 -0.1550  0.7980 -1.0877
  202MOL   H11940721   6.980   6.744   1.599 -0.3020 -0.2593 -2.0577
  202MOL   H12040722   6.830   6.698   1.533 -0.2405  0.2084 -0.5793
  202MOL   H12140723   6.838   6.854   1.604  1.3529  0.3989  0.1420
  202MOL   C12240724   6.858   6.525   1.924  0.7932 -1.0820 -0.1074
  202MOL   C12340725   6.957   6.617   2.001  0.8599  0.3014  0.6841
  202MOL   O12440726   7.006   6.529   2.108 -0.3619 -0.1403  0.2967
  202MOL   C12540727   6.919   6.527   2.229 -0.1234 -0.3647 -0.7075
  202MOL   H12640728   6.898   6.424   1.933 -0.1405 -1.5629 -1.2864
  202MOL   H12740729   6.760   6.510   1.971  1.1877 -1.7995  0.5068
  202MOL   H12840730   6.906   6.705   2.041  1.6453  0.9443  0.2734
  202MOL   H12940731   6.973   6.512   2.322 -2.1095  0.6866  0.6376
  202MOL   H13040732   6.870   6.622   2.251 -1.1727 -0.8463 -0.9650
  202MOL   H13140733   6.831   6.463   2.222 -1.3700  1.3156 -0.7652
  202MOL   C13240734   7.078   6.672   1.923  0.1296 -0.1258  0.3082
  202MOL   C13340735   7.181   6.754   2.001 -0.2437  0.2567 -0.3342
  202MOL   O13440736   7.113   6.885   2.037  0.1987  0.1199 -0.2001
  202MOL   C13540737   7.188   6.967   2.121  0.5717 -0.0827  0.6458
  202MOL   H13640738   7.043   6.747   1.851  0.2658  0.4220  0.8117
  202MOL   H13740739   7.128   6.597   1.862 -0.0651  1.7244 -2.2027
  202MOL   H13840740   7.263   6.781   1.935  0.0094  1.9355  0.6526
  202MOL   H13940741   7.274   6.997   2.061 -0.6661  1.3616 -0.4375
  202MOL   H14040742   7.129   7.059   2.126 -1.0764 -1.1545  1.0918
  202MOL   H14140743   7.220   6.929   2.218 -0.4149  1.2300  1.5077
  202MOL   C14240744   7.255   6.676   2.118 -0.1810 -0.0367 -0.2454
  202MOL   C14340745   7.339   6.546   2.083  0.7611  0.5470  0.6866
  202MOL   O14440746   7.467   6.578   2.016  0.4974 -0.0327  0.8338
  202MOL   C14540747   7.477   6.554   1.876  0.0072  0.0649 -0.1461
  202MOL   H14640748   7.188   6.660   2.202  0.0478 -0.0209 -0.0612
  202MOL   H14740749   7.328   6.745   2.158  0.5958  0.1797 -1.9671
  202MOL   H14840750   7.270   6.491   2.020  2.9018 -0.4568 -0.8625
  202MOL   H14940751   7.472   6.447   1.859  1.4264  0.2339 -1.7860
  202MOL   H15040752   7.396   6.608   1.828  0.7203  0.8359 -0.5113
  202MOL   H15140753   7.567   6.602   1.836  0.3463  0.7726  1.4233
  202MOL   C15240754   7.374   6.451   2.204  0.7522  0.2954  0.4433
  202MOL   C15340755   7.433   6.308   2.171 -0.9567  0.0077 -0.3792
  202MOL   O15440756   7.489   6.263   2.296  0.3415  0.2944  0.4579
  202MOL   C15540757   7.612   6.331   2.323  0.0141  0.1000  0.1188
  202MOL   H15640758   7.284   6.443   2.266  0.8217 -2.9354  0.2457
  202MOL   H15740759   7.445   6.510   2.261  0.6893 -0.0094  0.8427
  202MOL   H15840760   7.502   6.313   2.088 -1.6389  0.2424 -0.9401
  202MOL   H15940761   7.670   6.352   2.233 -0.7312  2.3810  0.1495
  202MOL   H16040762   7.597   6.429   2.370  1.4716  0.0478  0.7170
  202MOL   H16140763   7.664   6.273   2.400 -0.3217  0.0328  0.2968
  202MOL   C16240764   7.320   6.211   2.128 -0.1373 -0.7584  0.1981
  202MOL   C16340765   7.373   6.071   2.101  0.3501  0.0034  0.0909
  202MOL   O16440766   7.272   5.980   2.064 -0.2173 -0.1503 -0.0910
  202MOL   C16540767   7.180   5.950   2.169 -0.4320 -0.0420 -0.8128
  202MOL   H16640768   7.274   6.250   2.037  1.3065 -0.4372 -0.4055
  202MOL   H16740769   7.234   6.214   2.195  0.5959  1.2607  1.0890
  202MOL   H16840770   7.426   6.040   2.191  2.1927 -0.2057 -1.0151
  202MOL   H16940771   7.103   6.026   2.177  2.2210  2.6007  0.8098
  202MOL   H17040772   7.116   5.863   2.154  0.0271 -1.0004  2.3333
  202MOL   H17140773   7.233   5.947   2.265  0.4019  2.4986 -1.1452
  202MOL   C17240774   7.462   6.063   1.967 -0.8464  0.3548 -0.2892
  202MOL   C17340775   7.514   5.929   1.934 -0.1625  0.7623 -0.1152
  202MOL   O17440776   7.585   5.947   1.813 -0.2836 -0.4508 -0.4252
  202MOL   C17540777   7.590   5.833   1.731 -0.0566 -0.5998 -0.7581
  202MOL   H17640778   7.549   6.128   1.976  0.2275 -0.9554 -1.0806
  202MOL   H17740779   7.390   6.103   1.896 -0.6202 -1.9585 -1.8757
  202MOL   H17840780   7.422   5.869   1.929  0.6419 -0.5927  0.8992
  202MOL   H17940781   7.637   5.859   1.636 -0.9685 -1.5956 -1.4862
  202MOL   H18040782   7.642   5.752   1.781  0.4069 -0.6056 -1.2465
  202MOL   H18140783   7.488   5.803   1.708 -0.5850  0.2296  0.4583
  202MOL   C18240784   7.614   5.866   2.034  0.4223  0.1022 -0.3706
  202MOL   C18340785   7.549   5.768   2.135  1.2155 -0.1198  0.7485
  202MOL   O18440786   7.531   5.633   2.089  0.6871 -0.2470  0.6314
  202MOL   C18540787   7.424   5.610   1.996 -0.3477  0.3567 -0.5033
  202MOL   H18640788   7.654   5.938   2.105 -1.0574 -0.3708  0.9919
  202MOL   H18740789   7.700   5.817   1.989  0.6738 -1.8726  2.1580
  202MOL   H18840790   7.450   5.801   2.167 -0.4855 -2.5133 -1.8416
  202MOL   H18940791   7.332   5.660   2.026  0.6721  2.3209 -0.5708
  202MOL   H19040792   7.451   5.642   1.895 -1.3674  0.4663 -0.7412
  202MOL   H19140793   7.410   5.503   1.983  1.5880 -0.0074  0.1717
  202MOL   C19240794   7.637   5.750   2.258  0.5898  0.3665  0.0046
  202MOL   C19340795   7.627   5.862   2.366 -0.0895  0.1818  0.4748
  202MOL   O19440796   7.733   5.832   2.452  0.2296  0.4665  0.7599
  202MOL   C19540797   7.703   5.883   2.579 -1.1891  0.4929  0.4316
  202MOL   H19640798   7.739   5.735   2.221  0.7089  3.7254 -1.1432
  202MOL   H19740799   7.626   5.652   2.305  1.4900  1.1592  1.9455
  202MOL   H19840800   7.535   5.863   2.423  1.2678 -2.6599  2.8610
  202MOL   H19940801   7.800   5.896   2.626 -0.0631 -0.8325 -1.4394
  202MOL   H20040802   7.634   5.968   2.583  1.1792  2.4271  1.4353
  202MOL   H20140803   7.654   5.800   2.629  0.5746 -1.1651 -0.5046
  202MOL   H20240804   7.650   5.962   2.330  1.1855 -0.6884 -1.2126
  203MOL     C140805   2.416   1.113   5.406 -0.5925 -0.2030 -0.0731
  203MOL     C240806   2.273   1.080   5.459  0.7597  0.3248  0.3696
  203MOL     O340807   2.222   0.973   5.388 -0.5634  0.2544 -0.3426
  203MOL     C440808   2.178   0.991   5.256 -0.2151  0.0757 -0.2292
  203MOL     H540809   2.482   1.027   5.397  0.4446  0.8303 -3.1795
  203MOL     H640810   2.413   1.149   5.303 -0.4760  0.1962  0.0625
  203MOL     H740811   2.229   1.177   5.436  0.5060  0.0603 -0.2683
  203MOL     H840812   2.096   1.063   5.256 -1.4987 -1.3333  2.3823
  203MOL     H940813   2.246   1.040   5.186  0.6881 -0.3830  0.3195
  203MOL    H1040814   2.153   0.893   5.216 -2.8778  0.0973  1.2515
  203MOL    H1140815   2.464   1.191   5.465  0.0534  0.8705 -1.9918
  203MOL    C1240816   2.260   1.046   5.609 -0.5713  0.1105  0.2889
  203MOL    C1340817   2.121   1.071   5.676  0.3573  0.6898  0.0470
  203MOL    O1440818   2.116   1.010   5.805  0.9083 -0.0861  0.3913
  203MOL    C1540819   2.073   0.871   5.810 -0.0204 -0.2818  0.2506
  203MOL    H1640820   2.337   1.098   5.666 -1.7431 -0.6811  2.6631
  203MOL    H1740821   2.290   0.942   5.616  0.5477  0.4326  0.3646
  203MOL    H1840822   2.043   1.028   5.613  0.6435  0.8507 -0.4171
  203MOL    H1940823   2.157   0.803   5.821  0.7812  0.3720 -1.6420
  203MOL    H2040824   2.000   0.844   5.886  0.1173  0.2542  0.5805
  203MOL    H2140825   2.027   0.839   5.716 -0.9460 -0.9349  0.9173
  203MOL    C2240826   2.096   1.223   5.686  0.5417 -0.3173 -0.4346
  203MOL    C2340827   1.966   1.266   5.751  0.8783 -0.3033  0.3307
  203MOL    O2440828   1.974   1.404   5.797  0.0054  0.3942  0.4146
  203MOL    C2540829   2.032   1.410   5.928  0.0069 -0.3674 -0.0220
  203MOL    H2640830   2.103   1.270   5.588  1.4854 -0.2177 -0.3268
  203MOL    H2740831   2.184   1.259   5.740 -0.4470 -1.5326  2.0721
  203MOL    H2840832   1.947   1.197   5.834 -0.5966  0.5092  0.7011
  203MOL    H2940833   2.126   1.357   5.944  0.8892  1.2135  0.1131
  203MOL    H3040834   2.027   1.511   5.968 -1.3392 -0.2111 -0.5754
  203MOL    H3140835   1.966   1.355   5.995  1.5799 -1.5492  0.6118
  203MOL    C3240836   1.843   1.255   5.655  0.1094 -0.2540 -0.4815
  203MOL    C3340837   1.714   1.326   5.703  0.5739 -0.5138  0.0092
  203MOL    O3440838   1.626   1.321   5.602  0.5975  0.4774  0.5818
  203MOL    C3540839   1.623   1.433   5.508  0.4553  0.5367 -0.3378
  203MOL    H3640840   1.828   1.147   5.657  1.6500 -0.4848 -0.6748
  203MOL    H3740841   1.866   1.289   5.554  1.3751  1.2125  0.2805
  203MOL    H3840842   1.732   1.432   5.718  0.1248 -0.2683 -1.1377
  203MOL    H3940843   1.704   1.431   5.435  0.2034  1.3566 -0.6394
  203MOL    H4040844   1.531   1.432   5.450  0.8379  1.2541 -0.9554
  203MOL    H4140845   1.641   1.528   5.557  0.9887  1.1477 -1.6967
  203MOL    C4240846   1.640   1.263   5.826  0.2136 -0.3106  0.9791
  203MOL    C4340847   1.551   1.365   5.900  0.1431  0.0417  0.2006
  203MOL    O4440848   1.446   1.297   5.977  0.2183 -0.1394  0.4096
  203MOL    C4540849   1.335   1.258   5.906  0.3146 -0.3282 -1.0471
  203MOL    H4640850   1.711   1.235   5.904 -0.7437 -2.1027  1.2213
  203MOL    H4740851   1.591   1.168   5.804 -1.9165  0.6809  1.3903
  203MOL    H4840852   1.510   1.434   5.826 -1.2075 -0.5027  0.4399
  203MOL    H4940853   1.356   1.171   5.844  0.5529 -1.2572  0.2898
  203MOL    H5040854   1.262   1.227   5.982 -0.5454  0.6217 -1.4744
  203MOL    H5140855   1.311   1.335   5.833  1.0602  0.4681 -0.4630
  203MOL    C5240856   1.629   1.459   5.990 -0.2638  0.4400  0.0713
  203MOL    C5340857   1.547   1.585   6.023 -0.0889  0.6255 -0.1300
  203MOL    O5440858   1.472   1.552   6.139  0.1495 -0.0935 -0.4983
  203MOL    C5540859   1.335   1.592   6.130  0.2684 -0.2934 -0.3872
  203MOL    H5640860   1.707   1.495   5.923 -2.2396  0.6038 -2.2188
  203MOL    H5740861   1.682   1.413   6.073 -2.8430  0.0926  1.5513
  203MOL    H5840862   1.477   1.606   5.941  1.5585 -0.9703 -1.9977
  203MOL    H5940863   1.289   1.582   6.229  3.5066 -0.8429  1.1097
  203MOL    H6040864   1.318   1.699   6.121  1.3355 -0.0252  0.6901
  203MOL    H6140865   1.279   1.536   6.054  1.6614 -1.3422 -0.6570
  203MOL    C6240866   1.613   1.719   6.053 -0.5967  0.3085 -0.0451
  203MOL    C6340867   1.748   1.735   6.140  0.1621  0.7649  0.2728
  203MOL    O6440868   1.778   1.876   6.135  0.2227  0.1219 -0.0156
  203MOL    C6540869   1.900   1.911   6.067  0.3720 -0.3924 -0.3178
  203MOL    H6640870   1.539   1.788   6.094  0.2838  0.1446  1.9039
  203MOL    H6740871   1.641   1.767   5.959 -0.2146 -3.3010 -1.8775
  203MOL    H6840872   1.827   1.684   6.085 -0.6771 -0.0647 -0.1728
  203MOL    H6940873   1.879   1.883   5.964 -0.2055 -2.2544  0.2981
  203MOL    H7040874   1.911   2.017   6.090 -0.6938 -0.4635  0.5650
  203MOL    H7140875   1.989   1.867   6.111 -1.1946 -1.1596  2.1618
  203MOL    C7240876   1.720   1.688   6.285  0.3315 -0.3892 -0.4512
  203MOL    C7340877   1.828   1.708   6.386 -0.1385 -0.3570  0.0633
  203MOL    O7440878   1.953   1.652   6.344 -0.1185  0.2457  0.0311
  203MOL    C7540879   1.968   1.514   6.346  0.5451  0.1676  0.0123
  203MOL    H7640880   1.688   1.584   6.279  2.0032 -0.9869  0.4456
  203MOL    H7740881   1.626   1.733   6.317 -0.1485 -1.0686 -0.8941
  203MOL    H7840882   1.794   1.647   6.470  0.3888 -2.0187 -0.9251
  203MOL    H7940883   1.876   1.465   6.378  1.4885 -2.0134 -0.5597
  203MOL    H8040884   1.970   1.475   6.244  0.8768  0.5339 -0.1231
  203MOL    H8140885   2.053   1.488   6.409  2.0883  0.7580 -1.7745
  203MOL    C8240886   1.845   1.857   6.430 -0.1807  0.3104 -0.5844
  203MOL    C8340887   1.894   1.880   6.578 -0.3311 -0.0663 -0.0408
  203MOL    O8440888   1.959   2.006   6.588  0.0446 -0.0389 -0.4489
  203MOL    C8540889   2.101   2.001   6.600 -0.3443 -0.6277 -0.2333
  203MOL    H8640890   1.758   1.917   6.406 -0.5265  0.3205  0.6353
  203MOL    H8740891   1.911   1.901   6.356 -0.4409 -0.8555 -1.5337
  203MOL    H8840892   1.959   1.798   6.607 -0.7452 -0.2558  0.3696
  203MOL    H8940893   2.146   1.967   6.506  0.3297 -1.7075  0.4795
  203MOL    H9040894   2.132   2.104   6.619  1.1296 -1.0419 -0.3252
  203MOL    H9140895   2.139   1.940   6.681  0.8894 -1.2464 -1.2618
  203MOL    C9240896   1.771   1.878   6.677 -0.0840 -0.4873 -0.7952
  203MOL    C9340897   1.801   1.876   6.827  0.9510  0.2191  0.4204
  203MOL    O9440898   1.679   1.872   6.906 -0.3186  0.0143 -0.2826
  203MOL    C9540899   1.639   1.991   6.950 -0.1693 -0.0221  0.1882
  203MOL    H9640900   1.701   1.803   6.641  0.9046 -1.1539 -1.3298
  203MOL    H9740901   1.720   1.972   6.658 -1.3004 -1.0367 -0.3156
  203MOL    H9840902   1.849   1.973   6.842  1.1886  0.1507  0.1093
  203MOL    H9940903   1.544   1.966   6.998 -0.8007  0.0160 -1.0225
  203MOL   H10040904   1.706   2.023   7.030  2.3778 -0.4532 -1.7370
  203MOL   H10140905   1.626   2.065   6.871 -2.3287 -0.5834 -0.0350
  203MOL   C10240906   1.890   1.761   6.874 -0.4944  0.0209  0.1411
  203MOL   C10340907   1.854   1.607   6.841  0.0923  0.3645  0.1504
  203MOL   O10440908   1.957   1.509   6.850 -0.9079 -0.4902  0.4748
  203MOL   C10540909   2.054   1.535   6.744  0.3780 -0.0316  0.5903
  203MOL   H10640910   1.923   1.773   6.978 -3.5010  1.0203  1.0367
  203MOL   H10740911   1.979   1.782   6.815 -0.9386 -0.8988 -0.8686
  203MOL   H10840912   1.819   1.601   6.738 -1.0592  0.5328  0.5212
  203MOL   H10940913   2.099   1.437   6.725 -0.6374 -0.8305  2.1552
  203MOL   H11040914   2.006   1.572   6.654 -1.4316 -1.1775  1.0571
  203MOL   H11140915   2.130   1.607   6.775 -0.4182  1.2038 -0.2910
  203MOL   C11240916   1.738   1.557   6.934 -0.0983 -0.1027 -0.0387
  203MOL   C11340917   1.685   1.419   6.887  0.1285  0.4024 -0.7326
  203MOL   O11440918   1.634   1.354   7.005  0.2573 -0.4251 -0.0677
  203MOL   C11540919   1.721   1.265   7.075  0.0453  0.1430  0.1914
  203MOL   H11640920   1.656   1.628   6.932  0.5383  0.6277 -0.4229
  203MOL   H11740921   1.757   1.547   7.041 -0.1413  0.5217  0.0276
  203MOL   H11840922   1.766   1.355   6.854 -0.5838 -0.3565 -1.0262
  203MOL   H11940923   1.685   1.238   7.174  1.7151  3.7247  1.9082
  203MOL   H12040924   1.736   1.176   7.015 -0.4361 -0.8824  1.5798
  203MOL   H12140925   1.821   1.309   7.076  0.2545 -0.3304  1.9739
  203MOL   C12240926   1.570   1.428   6.786  0.4244 -0.4240 -0.2246
  203MOL   C12340927   1.523   1.300   6.716  0.0342 -0.7601  0.1644
  203MOL   O12440928   1.398   1.337   6.656  0.1340 -0.3184  0.4429
  203MOL   C12540929   1.279   1.295   6.714  0.2223  0.3783  0.1364
  203MOL   H12640930   1.596   1.506   6.715 -0.9801  1.4439  1.2458
  203MOL   H12740931   1.487   1.469   6.843  0.6499 -0.8933  0.4518
  203MOL   H12840932   1.523   1.222   6.793  2.0830  0.7103  1.7082
  203MOL   H12940933   1.268   1.189   6.694 -0.1140  0.3632  0.3859
  203MOL   H13040934   1.254   1.335   6.812 -0.9168  4.6835 -1.7556
  203MOL   H13140935   1.215   1.345   6.640  1.5414 -0.7814 -1.8353
  203MOL   C13240936   1.630   1.268   6.609 -0.0709 -0.0674 -0.0238
  203MOL   C13340937   1.603   1.138   6.522 -0.2765 -0.2494 -0.9281
  203MOL   O13440938   1.695   1.140   6.415  0.2134 -0.0946 -0.1064
  203MOL   C13540939   1.641   1.220   6.302 -0.5293  0.7104 -0.2245
  203MOL   H13640940   1.729   1.250   6.652 -0.6916 -2.3322  0.5083
  203MOL   H13740941   1.635   1.346   6.533  0.8604 -1.0560 -0.9948
  203MOL   H13840942   1.498   1.142   6.492 -0.6659 -1.1329  0.3184
  203MOL   H13940943   1.540   1.191   6.277 -0.5294  0.2422  0.3156
  203MOL   H14040944   1.628   1.327   6.322  0.9127  0.9031 -0.2698
  203MOL   H14140945   1.710   1.221   6.218 -0.5921 -0.3768 -0.2915
  203MOL   C14240946   1.632   1.008   6.595 -0.6232 -0.3442 -0.6626
  203MOL   C14340947   1.590   0.874   6.530  0.1217 -0.4859  0.0594
  203MOL   O14440948   1.647   0.771   6.606 -0.1760  0.0697 -0.0321
  203MOL   C14540949   1.781   0.735   6.583  0.8093  0.3172 -0.8340
  203MOL   H14640950   1.583   1.009   6.693 -0.6976 -2.6425 -0.6367
  203MOL   H14740951   1.740   1.003   6.604 -0.6898 -1.1055 -0.2190
  203MOL   H14840952   1.618   0.868   6.425 -0.4801 -0.3505 -0.1105
  203MOL   H14940953   1.800   0.699   6.482  0.6881  1.1841 -1.1743
  203MOL   H15040954   1.858   0.809   6.605  2.8388 -1.5048 -1.6114
  203MOL   H15140955   1.797   0.657   6.658 -2.6861  0.9752  0.6779
  203MOL   C15240956   1.432   0.857   6.538 -0.2112 -0.2294 -0.5733
  203MOL   C15340957   1.368   0.735   6.473 -0.3634  1.0524  0.5068
  203MOL   O15440958   1.412   0.618   6.554 -0.0138 -0.4541 -0.0625
  203MOL   C15540959   1.452   0.502   6.483 -0.4397 -0.9618  0.1959
  203MOL   H15640960   1.388   0.943   6.488 -0.7121  1.0572  2.0351
  203MOL   H15740961   1.412   0.876   6.643  1.3696 -0.6028 -0.1906
  203MOL   H15840962   1.402   0.729   6.369  0.2858  0.9850  0.7192
  203MOL   H15940963   1.363   0.442   6.462 -0.7697  0.0910 -1.5524
  203MOL   H16040964   1.496   0.532   6.388 -1.6805 -2.4432 -0.8730
  203MOL   H16140965   1.527   0.444   6.536  0.8398  0.1978 -0.3143
  203MOL   C16240966   1.213   0.750   6.476 -0.1424  0.4529  0.7173
  203MOL   C16340967   1.138   0.845   6.376  0.4326  0.5710  0.3046
  203MOL   O16440968   1.150   0.795   6.244 -0.1726  0.1594 -0.4444
  203MOL   C16540969   1.221   0.873   6.156 -0.4001 -0.2175 -0.2145
  203MOL   H16640970   1.186   0.762   6.581 -0.7875 -2.1062  0.8805
  203MOL   H16740971   1.166   0.654   6.459 -2.6515  1.6764  0.5441
  203MOL   H16840972   1.158   0.952   6.375  0.6174  0.5417  0.8684
  203MOL   H16940973   1.157   0.952   6.117 -0.8397 -0.0698  0.7928
  203MOL   H17040974   1.319   0.907   6.188 -1.4360  2.4683  0.2382
  203MOL   H17140975   1.239   0.816   6.065 -0.6918  0.9682 -1.0329
  203MOL   C17240976   0.979   0.838   6.402 -0.0427 -0.3757 -0.9052
  203MOL   C17340977   0.898   0.921   6.310 -0.4449 -1.3158  0.6847
  203MOL   O17440978   0.814   0.852   6.216 -0.1548 -0.1459  0.0098
  203MOL   C17540979   0.865   0.815   6.088 -0.3213  0.2038  0.3168
  203MOL   H17640980   0.976   0.881   6.502 -1.7910 -2.1756 -0.1458
  203MOL   H17740981   0.951   0.732   6.403  2.0217 -0.9584 -1.9638
  203MOL   H17840982   0.963   0.988   6.254 -0.4206 -1.6910  0.2564
  203MOL   H17940983   0.783   0.783   6.025  0.9849 -0.6590 -0.9911
  203MOL   H18040984   0.923   0.893   6.038 -0.3542 -0.9820 -1.6157
  203MOL   H18140985   0.926   0.724   6.091  1.7558  1.5192 -0.8255
  203MOL   C18240986   0.787   1.006   6.384 -0.1362  0.2017 -0.5241
  203MOL   C18340987   0.690   0.930   6.477 -0.1011  0.1518  0.0306
  203MOL   O18440988   0.753   0.893   6.598 -0.4110 -0.1436 -0.0117
  203MOL   C18540989   0.752   0.758   6.638  0.1351  0.2143  0.1878
  203MOL   H18640990   0.729   1.057   6.307  2.2640  0.9419 -1.8793
  203MOL   H18740991   0.841   1.089   6.428 -1.3106  1.1452 -0.8224
  203MOL   H18840992   0.661   0.839   6.424  2.9073  0.0903 -1.6792
  203MOL   H18940993   0.800   0.746   6.736  0.9827 -2.8189 -0.5495
  203MOL   H19040994   0.651   0.718   6.644  0.2386  0.1475  1.9005
  203MOL   H19140995   0.791   0.689   6.563 -2.7820  0.2275 -1.4188
  203MOL   C19240996   0.578   1.024   6.516 -0.4432 -0.0644 -0.8189
  203MOL   C19340997   0.458   0.949   6.566  0.0570 -0.2769  0.0365
  203MOL   O19440998   0.353   1.047   6.578 -0.1742  0.0017 -0.6377
  203MOL   C19540999   0.219   0.993   6.578  0.8028 -0.6297 -0.0294
  203MOL   H19641000   0.555   1.077   6.423  0.8439 -0.7364 -1.5244
  203MOL   H19741001   0.617   1.097   6.587  0.1274 -0.3628 -0.8236
  203MOL   H19841002   0.489   0.897   6.657 -2.0768  2.1701  2.2632
  203MOL   H19941003   0.208   0.941   6.483 -0.8331 -2.2228  1.0026
  203MOL   H20041004   0.205   0.922   6.659  1.9947 -1.0062 -0.1438
  203MOL   H20141005   0.163   1.086   6.582 -2.1773 -2.3751  0.2573
  203MOL   H20241006   0.432   0.882   6.485  0.7096  1.6504 -1.8122
  204MOL     C141007   0.605   1.280   7.466  0.2585  0.1913 -0.8494
  204MOL     C241008   0.623   1.347   7.598 -1.1910 -0.4690  0.0221
  204MOL     O341009   0.557   1.268   7.693 -0.0521 -0.0510 -0.0251
  204MOL     C441010   0.419   1.298   7.706  0.0739  0.9480 -0.0346
  204MOL     H541011   0.656   1.337   7.388 -1.1977 -0.4519 -2.2750
  204MOL     H641012   0.642   1.178   7.475 -1.9551 -0.4363  1.8836
  204MOL     H741013   0.576   1.445   7.590 -0.2915 -0.1045 -0.8655
  204MOL     H841014   0.367   1.299   7.610  3.0495  0.5554 -1.7169
  204MOL     H941015   0.381   1.230   7.782 -1.9143  0.9590 -0.9799
  204MOL    H1041016   0.401   1.401   7.739 -1.3922  0.7284 -0.0899
  204MOL    H1141017   0.499   1.275   7.441  0.9444 -0.0874 -3.8908
  204MOL    C1241018   0.771   1.355   7.634 -0.1297 -0.4869 -0.2402
  204MOL    C1341019   0.851   1.462   7.551 -0.2069  0.4387 -0.2422
  204MOL    O1441020   0.784   1.588   7.561 -0.1400 -0.0539  0.0284
  204MOL    C1541021   0.776   1.645   7.691  0.0762 -0.0217 -0.4783
  204MOL    H1641022   0.819   1.260   7.609  1.8189  0.5783 -0.6250
  204MOL    H1741023   0.782   1.382   7.739 -0.7218 -1.1821 -0.0002
  204MOL    H1841024   0.846   1.441   7.444 -0.2380  0.9830 -0.3500
  204MOL    H1941025   0.732   1.744   7.678  0.4003  0.7069  3.2824
  204MOL    H2041026   0.732   1.585   7.771 -0.2924  1.5927  0.5661
  204MOL    H2141027   0.876   1.671   7.725 -0.2982  1.2268 -0.3000
  204MOL    C2241028   0.994   1.471   7.598  0.0971 -0.5149  0.3462
  204MOL    C2341029   1.084   1.534   7.491  0.3626  0.0899 -0.5309
  204MOL    O2441030   1.213   1.578   7.532  0.0632 -0.0101 -1.0770
  204MOL    C2541031   1.208   1.700   7.606  0.7253  0.0127 -0.5800
  204MOL    H2641032   1.040   1.373   7.610 -0.7970 -0.9467  0.2139
  204MOL    H2741033   1.004   1.522   7.694 -1.4395  0.7869 -0.1727
  204MOL    H2841034   1.026   1.607   7.435  0.0598 -0.0787 -0.4430
  204MOL    H2941035   1.307   1.729   7.641  1.2119 -0.5551 -1.4396
  204MOL    H3041036   1.167   1.779   7.543 -2.6278  0.0132  1.4783
  204MOL    H3141037   1.147   1.696   7.696  1.4682 -1.9915 -0.1330
  204MOL    C3241038   1.121   1.430   7.381  0.1384  0.1368 -0.9498
  204MOL    C3341039   1.203   1.493   7.261  0.7842 -1.0087  0.6724
  204MOL    O3441040   1.248   1.378   7.197  0.0901 -0.5305 -0.1343
  204MOL    C3541041   1.369   1.387   7.124  0.6203  0.1364  0.5719
  204MOL    H3641042   1.027   1.394   7.341 -1.0525  1.6322  0.4354
  204MOL    H3741043   1.177   1.349   7.428  0.1723  0.6685 -0.0538
  204MOL    H3841044   1.289   1.552   7.289  0.0507  0.3918  0.0237
  204MOL    H3941045   1.448   1.420   7.192 -0.6351  2.0670  1.1448
  204MOL    H4041046   1.398   1.294   7.075 -0.3837  0.0372  0.1509
  204MOL    H4141047   1.362   1.465   7.048  0.8550 -1.4722 -1.1167
  204MOL    C4241048   1.113   1.558   7.150  0.0806 -0.2655 -0.3069
  204MOL    C4341049   1.167   1.690   7.091 -0.3039 -0.4092  0.1603
  204MOL    O4441050   1.116   1.708   6.960  0.6822  0.6234 -0.1119
  204MOL    C4541051   1.187   1.626   6.867  0.2593 -0.2245  0.3466
  204MOL    H4641052   1.016   1.577   7.197  0.0614  1.0603 -0.8618
  204MOL    H4741053   1.092   1.491   7.067 -0.3150 -0.8216  0.2364
  204MOL    H4841054   1.275   1.687   7.073 -0.2400  0.2560  0.4356
  204MOL    H4941055   1.151   1.654   6.768  0.3931  2.2500  0.9731
  204MOL    H5041056   1.296   1.631   6.871  0.3420 -0.2809 -1.3910
  204MOL    H5141057   1.156   1.521   6.871  1.3344 -0.5833 -0.4523
  204MOL    C5241058   1.122   1.814   7.181  0.5377  0.2837  1.0782
  204MOL    C5341059   1.178   1.950   7.133 -0.0147  0.4277  0.6017
  204MOL    O5441060   1.134   1.988   7.005  0.3522 -0.0364 -0.3053
  204MOL    C5541061   1.224   1.986   6.896  0.1806  0.4606 -0.3714
  204MOL    H5641062   1.143   1.791   7.285  0.6986 -0.3370  0.9086
  204MOL    H5741063   1.013   1.825   7.179  0.7763  2.7990 -0.7935
  204MOL    H5841064   1.287   1.948   7.142  0.0275 -2.2997  0.1262
  204MOL    H5941065   1.259   1.885   6.879 -1.3016 -0.4843  1.9458
  204MOL    H6041066   1.187   2.012   6.797  1.5620  0.7698 -0.8236
  204MOL    H6141067   1.315   2.042   6.920  1.0943 -1.3064  0.3844
  204MOL    C6241068   1.129   2.061   7.232  1.2182 -0.2282 -0.1636
  204MOL    C6341069   1.199   2.078   7.367  0.6221 -0.2945 -0.8102
  204MOL    O6441070   1.332   2.103   7.323  0.3372 -0.0789  0.2069
  204MOL    C6541071   1.433   2.076   7.417  0.1028  0.8794  0.2673
  204MOL    H6641072   1.021   2.058   7.250  1.7441 -0.1700  3.3183
  204MOL    H6741073   1.143   2.158   7.184  0.4278 -0.2652 -0.4775
  204MOL    H6841074   1.199   1.984   7.422  0.8882  0.7704  1.0622
  204MOL    H6941075   1.414   1.973   7.449 -0.4380  1.3840  1.6199
  204MOL    H7041076   1.529   2.066   7.366 -0.2748 -1.4738 -0.0775
  204MOL    H7141077   1.429   2.124   7.515 -0.3687  0.6242  0.3737
  204MOL    C7241078   1.161   2.197   7.464  0.5228 -0.6250  0.0271
  204MOL    C7341079   1.020   2.180   7.533  0.5410 -0.1002 -0.2514
  204MOL    O7441080   1.022   2.075   7.624 -0.7952  0.3315  0.1960
  204MOL    C7541081   0.951   1.963   7.597  0.0086 -0.4539 -0.1388
  204MOL    H7641082   1.161   2.292   7.412  2.8248 -0.9612 -0.6349
  204MOL    H7741083   1.233   2.205   7.546 -0.6419 -0.3371  1.0368
  204MOL    H7841084   0.959   2.151   7.448  1.6597 -3.3722  0.0026
  204MOL    H7941085   0.948   1.902   7.687 -2.0824  1.5794  1.2399
  204MOL    H8041086   0.848   1.988   7.572  0.4872  0.8707 -0.8922
  204MOL    H8141087   0.987   1.900   7.516  1.3853 -1.6554  1.3837
  204MOL    C8241088   0.976   2.306   7.602  0.4691 -0.6050  0.4853
  204MOL    C8341089   0.831   2.304   7.650 -0.0536  0.3216 -0.0248
  204MOL    O8441090   0.823   2.426   7.722  0.3799 -0.2614  0.3025
  204MOL    C8541091   0.848   2.411   0.053 -0.1264 -0.9593  0.2627
  204MOL    H8641092   0.995   2.392   7.537 -0.4029  1.1952  2.5331
  204MOL    H8741093   1.042   2.327   7.686 -2.1405 -1.6722  2.8418
  204MOL    H8841094   0.811   2.219   7.715 -2.6190  0.2606 -0.8576
  204MOL    H8941095   0.752   2.408   0.105 -0.0209  2.0609  0.7513
  204MOL    H9041096   0.920   2.333   0.078  0.7739 -0.3393 -0.3467
  204MOL    H9141097   0.901   2.503   0.078 -2.2778 -0.3405  2.8501
  204MOL    C9241098   0.726   2.315   7.539  0.2762 -0.3495 -0.4575
  204MOL    C9341099   0.583   2.322   7.598  0.3466  0.5698 -0.0317
  204MOL    O9441100   0.500   2.377   7.494 -0.3326  0.5433 -1.0236
  204MOL    C9541101   0.439   2.493   7.541 -0.6932 -0.2663  0.4787
  204MOL    H9641102   0.740   2.235   7.467  0.2361  0.1731 -1.0426
  204MOL    H9741103   0.752   2.410   7.494 -2.7123 -0.3157 -2.2620
  204MOL    H9841104   0.566   2.375   7.691 -0.4750 -1.0393  0.7463
  204MOL    H9941105   0.369   2.471   7.621 -0.8030 -1.0164  0.1818
  204MOL   H10041106   0.503   2.573   7.579  1.4020 -1.1324 -1.0953
  204MOL   H10141107   0.387   2.537   7.457 -2.5466 -1.3456  1.0296
  204MOL   C10241108   0.539   2.183   7.624  0.6822 -0.0920 -0.5723
  204MOL   C10341109   0.410   2.166   7.712 -0.5155 -0.2752  0.2298
  204MOL   O10441110   0.368   2.032   7.708 -0.2964 -0.5804 -0.0747
  204MOL   C10541111   0.256   2.021   7.620 -0.2431 -0.0853 -0.0928
  204MOL   H10641112   0.612   2.110   7.661 -0.9622 -2.2421 -1.4375
  204MOL   H10741113   0.504   2.148   7.526  1.3531 -0.2397 -0.7665
  204MOL   H10841114   0.333   2.241   7.689 -0.6750 -0.1310  1.2056
  204MOL   H10941115   0.252   1.915   7.596 -0.7632 -0.4169  1.4469
  204MOL   H11041116   0.165   2.035   7.678 -0.7534 -1.0543 -0.6582
  204MOL   H11141117   0.269   2.084   7.532 -0.4521 -1.1234 -0.8735
  204MOL   C11241118   0.435   2.187   0.052  0.1593  0.3389  0.5168
  204MOL   C11341119   0.514   2.079   0.134  0.3928  0.4327 -0.5046
  204MOL   O11441120   0.649   2.071   0.084 -0.0316  0.0845 -0.5368
  204MOL   C11541121   0.708   1.944   0.108  0.2303  0.2740 -0.5398
  204MOL   H11641122   0.337   2.190   0.101 -0.2356  2.8569 -0.3678
  204MOL   H11741123   0.475   2.287   0.071 -3.6428  2.4310 -1.7805
  204MOL   H11841124   0.462   1.985   0.114  1.0334  0.0176 -0.2224
  204MOL   H11941125   0.662   1.870   0.043  2.0963 -0.0380 -1.5442
  204MOL   H12041126   0.807   1.959   0.066  0.5132  2.4445  0.8138
  204MOL   H12141127   0.720   1.911   0.211  0.0531 -3.6150 -1.7159
  204MOL   C12241128   0.518   2.092   0.285 -0.4278 -0.2158 -0.0126
  204MOL   C12341129   0.602   2.218   0.339 -0.1719 -0.3013  0.0993
  204MOL   O12441130   0.502   2.323   0.348  0.0179  0.1181 -0.7690
  204MOL   C12541131   0.564   2.451   0.341 -0.2224 -0.1074 -0.0724
  204MOL   H12641132   0.558   1.996   0.318  1.2950  0.9521  1.3933
  204MOL   H12741133   0.415   2.094   0.320 -0.7309  3.8161 -0.8864
  204MOL   H12841134   0.664   2.253   0.256 -0.7482  0.3023 -0.0861
  204MOL   H12941135   0.502   2.527   0.294  0.7486 -0.4738 -1.9825
  204MOL   H13041136   0.607   2.481   0.437  1.7987 -0.3653 -0.8585
  204MOL   H13141137   0.649   2.459   0.274 -0.2973  0.9419 -0.0602
  204MOL   C13241138   0.681   2.198   0.474  0.1510  0.2161  0.4357
  204MOL   C13341139   0.808   2.120   0.469  0.5011 -0.0148 -0.0910
  204MOL   O13441140   0.781   1.981   0.453  0.5353  0.1439  0.1956
  204MOL   C13541141   0.730   1.915   0.563  0.5135  0.3077 -0.1360
  204MOL   H13641142   0.619   2.149   0.549  0.4039  0.9304  1.1212
  204MOL   H13741143   0.704   2.297   0.516  0.2670 -0.2198  1.4161
  204MOL   H13841144   0.856   2.140   0.565  1.0461 -1.6760 -0.0156
  204MOL   H13941145   0.661   1.971   0.626  0.0812  1.0537 -1.2467
  204MOL   H14041146   0.681   1.820   0.539 -4.3433  2.5106  0.4594
  204MOL   H14141147   0.813   1.886   0.628 -0.9992 -1.3557  1.1188
  204MOL   C14241148   0.912   2.174   0.359  1.1365  0.6147  0.5946
  204MOL   C14341149   1.048   2.111   0.357 -0.3692  0.7224 -0.2123
  204MOL   O14441150   1.132   2.164   0.251  0.2210 -0.3897 -0.2759
  204MOL   C14541151   1.111   2.095   0.124 -0.0849 -0.4647  0.3526
  204MOL   H14641152   0.928   2.281   0.375 -1.3889  1.4802 -2.1619
  204MOL   H14741153   0.864   2.167   0.262  1.4479 -1.7285  0.5932
  204MOL   H14841154   1.031   2.004   0.346  1.0796  0.5795 -1.1705
  204MOL   H14941155   1.016   2.126   0.079  0.9486  2.1080 -0.1433
  204MOL   H15041156   1.182   2.130   0.049  0.7634 -0.4380  1.1622
  204MOL   H15141157   1.128   1.987   0.124 -1.1550 -0.6706  3.5090
  204MOL   C15241158   1.136   2.146   0.484  0.3971 -0.0507 -0.1701
  204MOL   C15341159   1.282   2.106   0.479 -0.9961  0.1073 -0.1609
  204MOL   O15441160   1.334   2.167   0.599  0.4840  0.9489  0.2358
  204MOL   C15541161   1.381   2.298   0.583 -0.0606 -0.2945  0.1755
  204MOL   H15641162   1.096   2.111   0.579 -2.1787 -0.0828 -1.2219
  204MOL   H15741163   1.129   2.255   0.488 -0.9096 -0.1804  1.7187
  204MOL   H15841164   1.323   2.149   0.388  0.7474  0.0496  0.5895
  204MOL   H15941165   1.488   2.289   0.562 -0.4010 -3.5837 -0.4457
  204MOL   H16041166   1.326   2.356   0.508  1.5457  1.4073  0.2671
  204MOL   H16141167   1.364   2.347   0.679  0.0334 -1.2083  0.6566
  204MOL   C16241168   1.302   1.957   0.483  0.4494 -0.0928  0.1779
  204MOL   C16341169   1.443   1.901   0.451  0.5959 -0.5626  0.1192
  204MOL   O16441170   1.461   1.790   0.542 -0.2148 -0.4246 -0.0013
  204MOL   C16541171   1.553   1.824   0.643 -0.1756  0.0141  0.0409
  204MOL   H16641172   1.231   1.916   0.411  1.1994 -0.9190 -0.1066
  204MOL   H16741173   1.266   1.915   0.577  0.2596 -0.2743  0.0257
  204MOL   H16841174   1.520   1.976   0.466  0.2676 -0.5527  1.8829
  204MOL   H16941175   1.646   1.840   0.588  0.2233  0.5193  0.8478
  204MOL   H17041176   1.530   1.909   0.707  2.3125  0.6996  0.0906
  204MOL   H17141177   1.575   1.739   0.708  0.6728  0.2494  0.0688
  204MOL   C17241178   1.462   1.848   0.310 -0.0519  0.4345 -0.0569
  204MOL   C17341179   1.373   1.737   0.260  0.4162  0.1224 -0.1488
  204MOL   O17441180   1.254   1.790   0.201 -0.0490 -0.5174  0.0007
  204MOL   C17541181   1.139   1.703   0.227  0.3907 -0.2371 -0.2521
  204MOL   H17641182   1.563   1.810   0.302 -0.6287 -1.5729  1.9066
  204MOL   H17741183   1.462   1.934   0.243  1.1101  0.6954  0.2697
  204MOL   H17841184   1.345   1.672   0.343 -1.2474 -0.2012 -0.9458
  204MOL   H17941185   1.137   1.608   0.174  2.4209 -0.6663  0.3920
  204MOL   H18041186   1.123   1.686   0.334 -1.2320  3.5750  0.2023
  204MOL   H18141187   1.050   1.762   0.205 -0.0423 -0.5782  0.5798
  204MOL   C18241188   1.438   1.647   0.147  0.1238  0.0791 -0.4996
  204MOL   C18341189   1.447   1.495   0.166 -0.1602 -0.0182 -0.6737
  204MOL   O18441190   1.468   1.444   0.037 -0.0439  0.0446 -0.4025
  204MOL   C18541191   1.345   1.400   7.780 -0.1240 -0.9129  0.0342
  204MOL   H18641192   1.540   1.678   0.125  0.2226  1.9222  2.2540
  204MOL   H18741193   1.375   1.664   0.059 -2.5983 -1.8069  1.0027
  204MOL   H18841194   1.358   1.458   0.218  0.0715 -1.6851 -1.4250
  204MOL   H18941195   1.306   1.305   0.005  1.1274 -2.1772 -1.8665
  204MOL   H19041196   1.271   1.478   7.797  1.1855 -0.1751  2.7147
  204MOL   H19141197   1.363   1.399   7.673 -1.1184  0.9744 -0.1749
  204MOL   C19241198   1.572   1.455   0.249  0.1125  0.1409  0.6492
  204MOL   C19341199   1.595   1.508   0.393 -0.1653  0.3416 -0.3363
  204MOL   O19441200   1.690   1.425   0.452 -0.0292  0.2964  0.2312
  204MOL   C19541201   1.687   1.466   0.590 -0.5616  0.1660 -0.6978
  204MOL   H19641202   1.656   1.487   0.187  0.4463  0.0034  1.0315
  204MOL   H19741203   1.568   1.346   0.249 -0.8030  0.1191 -2.1337
  204MOL   H19841204   1.500   1.493   0.444  1.0606 -2.9136  1.1284
  204MOL   H19941205   1.715   1.569   0.612  1.6891 -0.9137  1.7128
  204MOL   H20041206   1.591   1.437   0.633  0.2576 -2.2347 -0.4279
  204MOL   H20141207   1.748   1.399   0.650 -0.9183  0.6529  0.2110
  204MOL   H20241208   1.630   1.611   0.394  2.6334 -0.4260 -4.7591
  205MOL     C141209   6.406   5.345   0.109 -0.2943  0.1107  0.2555
  205MOL     C241210   6.540   5.400   0.060 -0.1788 -0.2702 -0.4436
  205MOL     O341211   6.611   5.440   0.174  0.0169 -0.0815  0.3153
  205MOL     C441212   6.550   5.550   0.242 -0.8753  0.5316 -0.8931
  205MOL     H541213   6.340   5.420   0.151  1.5995  1.9051  0.1044
  205MOL     H641214   6.350   5.297   0.028 -2.0667 -0.0071  1.5213
  205MOL     H741215   6.528   5.482   7.799 -1.5941  0.6478  0.8272
  205MOL     H841216   6.619   5.595   0.313 -3.4695 -2.2453  3.6524
  205MOL     H941217   6.511   5.620   0.167 -1.3171  2.5995  1.2071
  205MOL    H1041218   6.465   5.514   0.300  0.3370  0.2214  0.7034
  205MOL    H1141219   6.413   5.265   0.183  0.0521 -0.1112 -0.0190
  205MOL    C1241220   6.623   5.287   7.798  0.2621  0.0801 -0.0587
  205MOL    C1341221   6.765   5.325   7.770  0.0741 -0.0660  0.2374
  205MOL    O1441222   6.838   5.211   7.722 -0.6437  0.0193  0.2187
  205MOL    C1541223   6.960   5.174   7.795 -0.4986 -0.3556 -0.0427
  205MOL    H1641224   6.561   5.263   7.711 -2.2337  1.1094  1.3706
  205MOL    H1741225   6.611   5.194   0.044  0.6940  0.5494  0.8080
  205MOL    H1841226   6.804   5.356   0.057  0.3757 -0.0696  0.1178
  205MOL    H1941227   6.950   5.103   0.066  0.4682 -1.1140 -0.5691
  205MOL    H2041228   7.015   5.112   7.724 -0.8232  1.3956 -1.8589
  205MOL    H2141229   7.013   5.267   0.004  0.4727 -0.6080 -1.4197
  205MOL    C2241230   6.774   5.439   7.663 -0.1602  0.8242  0.2128
  205MOL    C2341231   6.746   5.389   7.520  0.0121  0.3213 -0.1834
  205MOL    O2441232   6.695   5.499   7.440  0.4920  0.0222  0.1401
  205MOL    C2541233   6.555   5.495   7.426 -0.4304 -0.0200  0.2280
  205MOL    H2641234   6.871   5.487   7.666  0.9025 -1.2564  0.1983
  205MOL    H2741235   6.712   5.524   7.689  0.0946  0.7931  0.9321
  205MOL    H2841236   6.675   5.306   7.518 -1.2952  1.4235 -3.8275
  205MOL    H2941237   6.488   5.452   7.501  1.5846 -1.4752  1.2430
  205MOL    H3041238   6.524   5.599   7.415  0.5370  0.0874 -1.6519
  205MOL    H3141239   6.534   5.439   7.335  1.2193 -1.8820  0.9528
  205MOL    C3241240   6.886   5.353   7.450 -0.4872 -0.2875 -0.3744
  205MOL    C3341241   6.867   5.299   7.309 -0.1398  0.3232 -0.6593
  205MOL    O3441242   6.993   5.312   7.240 -0.7530 -0.5350 -0.5496
  205MOL    C3541243   6.977   5.384   7.114  0.6652 -0.1592 -0.0098
  205MOL    H3641244   6.956   5.293   7.508  0.0178  0.6744  0.0379
  205MOL    H3741245   6.941   5.447   7.436  0.3865 -0.6131  0.7455
  205MOL    H3841246   6.784   5.352   7.265 -1.1187 -1.3131 -0.8209
  205MOL    H3941247   7.070   5.388   7.057  1.7569 -0.0716  1.7454
  205MOL    H4041248   6.900   5.336   7.054 -0.9553  0.0691  1.8363
  205MOL    H4141249   6.952   5.486   7.144 -0.8677 -0.7410  0.7636
  205MOL    C4241250   6.826   5.147   7.309  1.0611  0.4059 -0.2898
  205MOL    C4341251   6.812   5.065   7.181  0.1171 -0.4392 -0.0750
  205MOL    O4441252   6.910   4.967   7.173  0.6103  0.0421  0.2272
  205MOL    C4541253   7.046   4.998   7.170 -0.7782 -0.0916  0.9822
  205MOL    H4641254   6.734   5.133   7.367 -0.3434 -0.7186 -2.7036
  205MOL    H4741255   6.907   5.107   7.370  0.5237  0.4490  0.4599
  205MOL    H4841256   6.823   5.137   7.100  3.5216  0.5956  1.2270
  205MOL    H4941257   7.112   4.911   7.167  0.4774  0.8668  0.4601
  205MOL    H5041258   7.069   5.055   7.080  1.5172  1.9276  2.7778
  205MOL    H5141259   7.073   5.063   7.253 -0.7492 -0.6436  1.4075
  205MOL    C5241260   6.676   4.997   7.161 -0.4575  0.3944  0.2689
  205MOL    C5341261   6.561   5.088   7.158  0.0182  0.6378  0.1635
  205MOL    O5441262   6.544   5.139   7.028 -0.4678  0.8023  0.9812
  205MOL    C5541263   6.585   5.277   7.018  0.5239 -0.1174 -0.0692
  205MOL    H5641264   6.671   4.928   7.246  0.0872  0.2592  0.1924
  205MOL    H5741265   6.678   4.938   7.069  0.0575  0.1162  0.4591
  205MOL    H5841266   6.565   5.165   7.235  0.8889 -0.2744  1.0446
  205MOL    H5941267   6.537   5.336   7.097  3.1870  1.8161  0.1625
  205MOL    H6041268   6.692   5.295   7.030  0.0582  2.1682  0.8349
  205MOL    H6141269   6.547   5.321   6.926 -2.4844  2.2089  2.1720
  205MOL    C6241270   6.430   5.011   7.190 -0.2045 -0.3742 -0.3815
  205MOL    C6341271   6.411   4.985   7.340 -0.6240 -0.4584 -0.3543
  205MOL    O6441272   6.313   5.075   7.400 -0.6144  0.0316  0.6236
  205MOL    C6541273   6.370   5.153   7.509  0.0514 -0.0767  0.2658
  205MOL    H6641274   6.434   4.915   7.137  0.9094 -0.8287  0.5165
  205MOL    H6741275   6.344   5.060   7.144 -0.3645 -0.7825 -0.5259
  205MOL    H6841276   6.507   4.992   7.392 -0.4437  0.0838 -0.7647
  205MOL    H6941277   6.463   5.194   7.471 -1.6754  3.1974 -0.5818
  205MOL    H7041278   6.306   5.237   7.537  1.4459  2.0510 -2.6733
  205MOL    H7141279   6.383   5.090   7.598  0.8014 -2.2682 -1.3471
  205MOL    C7241280   6.346   4.847   7.349  0.8142 -0.6091  0.8398
  205MOL    C7341281   6.444   4.727   7.343 -0.2833 -0.3213 -0.0062
  205MOL    O7441282   6.533   4.737   7.457 -0.4755  0.0565 -0.1366
  205MOL    C7541283   6.667   4.684   7.436  0.8877  0.3185 -0.0576
  205MOL    H7641284   6.272   4.834   7.270  1.7787 -0.8679 -0.0332
  205MOL    H7741285   6.289   4.840   7.442 -1.8018 -0.3352 -0.6842
  205MOL    H7841286   6.520   4.748   7.268  0.5664 -0.6392  0.7482
  205MOL    H7941287   6.662   4.575   7.428  1.0496  0.3533 -0.6639
  205MOL    H8041288   6.733   4.715   7.355  2.8720 -0.5458  1.1777
  205MOL    H8141289   6.723   4.690   7.530 -0.5153  0.3316  0.7970
  205MOL    C8241290   6.379   4.587   7.318 -0.1840  0.1822  0.4072
  205MOL    C8341291   6.254   4.556   7.410 -0.3919  0.1936 -0.0607
  205MOL    O8441292   6.227   4.421   7.382 -0.2563  0.1481 -0.1066
  205MOL    C8541293   6.085   4.388   7.383  0.5467  0.1049  0.3969
  205MOL    H8641294   6.451   4.505   7.327  0.0994  0.3324 -0.5137
  205MOL    H8741295   6.340   4.569   7.218  2.2047 -1.4083 -0.2804
  205MOL    H8841296   6.173   4.626   7.389 -0.6078  0.2085  0.8022
  205MOL    H8941297   6.049   4.406   7.484 -2.5595  0.7367 -0.7680
  205MOL    H9041298   6.014   4.444   7.322  0.2400  0.8807  1.4590
  205MOL    H9141299   6.071   4.282   7.362 -0.7250  0.4804 -0.7695
  205MOL    C9241300   6.295   4.553   7.569 -0.0939 -0.1091  0.3505
  205MOL    C9341301   6.225   4.652   7.660  0.3319 -0.6001 -0.4974
  205MOL    O9441302   6.081   4.631   7.646 -0.1008 -0.3151  0.0077
  205MOL    C9541303   5.997   4.749   7.663  0.6886 -0.0650 -0.0052
  205MOL    H9641304   6.403   4.561   7.580  0.0852  0.9371 -1.9536
  205MOL    H9741305   6.277   4.455   7.613 -3.3670  1.0017  1.6346
  205MOL    H9841306   6.236   4.754   7.625 -0.3047 -0.2445  0.3193
  205MOL    H9941307   6.015   4.833   7.596 -0.6467 -0.7634 -1.2632
  205MOL   H10041308   5.894   4.721   7.640  0.1349  1.6634  0.3048
  205MOL   H10141309   6.007   4.783   7.766  0.1393  0.3262 -0.0782
  205MOL   C10241310   6.274   4.639   7.810  0.0055  0.5872  0.0902
  205MOL   C10341311   6.389   4.726   0.036  0.0717  0.4406 -0.4731
  205MOL   O10441312   6.346   4.862   0.026 -0.2506  0.7749 -0.2116
  205MOL   C10541313   6.457   4.950   0.020 -0.1120 -0.1613 -0.1361
  205MOL   H10641314   6.298   4.533   0.014 -1.7362  0.4346  2.1376
  205MOL   H10741315   6.195   4.660   0.072  1.3837  2.4530  1.0884
  205MOL   H10841316   6.463   4.707   7.769 -0.3314  1.4825 -1.1275
  205MOL   H10941317   6.509   4.967   0.114  1.0672 -0.1619 -0.7765
  205MOL   H11041318   6.529   4.925   7.753  0.3007 -0.9019  0.4797
  205MOL   H11141319   6.419   5.048   7.802 -0.7223  0.3558  2.3117
  205MOL   C11241320   6.447   4.694   0.180  0.1293 -0.0055  0.6037
  205MOL   C11341321   6.362   4.741   0.305 -0.4162  0.1894 -0.0862
  205MOL   O11441322   6.253   4.648   0.326  0.4900 -0.1942  0.0967
  205MOL   C11541323   6.118   4.705   0.356 -0.5012 -0.6283  0.0873
  205MOL   H11641324   6.550   4.724   0.199  0.2841  0.0312 -0.2747
  205MOL   H11741325   6.450   4.586   0.188 -1.1194 -0.3202 -2.4799
  205MOL   H11841326   6.329   4.845   0.295  0.6070  0.5481  0.2945
  205MOL   H11941327   6.099   4.773   0.273  1.7966  0.2809  0.2446
  205MOL   H12041328   6.044   4.626   0.346  1.1706 -2.1042 -0.8690
  205MOL   H12141329   6.118   4.756   0.453 -1.4853 -1.0305  0.2994
  205MOL   C12241330   6.451   4.745   0.437 -0.5179 -0.1532  0.1576
  205MOL   C12341331   6.399   4.842   0.544 -0.2424  0.5830  0.5572
  205MOL   O12441332   6.454   4.814   0.675  0.4758 -0.1668 -0.7495
  205MOL   C12541333   6.368   4.856   0.778 -0.3796 -0.0009 -0.0163
  205MOL   H12641334   6.544   4.791   0.405 -1.0347  1.1516  0.5125
  205MOL   H12741335   6.478   4.650   0.485 -1.5475 -0.7141 -0.3575
  205MOL   H12841336   6.292   4.822   0.539 -0.4497  2.1624 -1.9192
  205MOL   H12941337   6.373   4.959   0.811  1.3531 -0.1646  0.2909
  205MOL   H13041338   6.267   4.821   0.754 -1.1233  3.1523 -1.7285
  205MOL   H13141339   6.389   4.809   0.874 -3.4962  0.3949  0.8894
  205MOL   C13241340   6.416   4.989   0.513  0.0670  0.8593 -0.4956
  205MOL   C13341341   6.562   5.045   0.488  0.4153  0.1826 -0.0684
  205MOL   O13441342   6.582   5.034   0.341 -0.1999  0.4988 -0.4099
  205MOL   C13541343   6.720   5.032   0.306 -1.1101  0.5758  0.2674
  205MOL   H13641344   6.376   5.047   0.596 -0.4379 -0.0132 -0.1282
  205MOL   H13741345   6.362   5.017   0.422  1.7030  2.4802 -1.0114
  205MOL   H13841346   6.634   4.982   0.539 -1.0063 -2.2898 -1.0549
  205MOL   H13941347   6.770   4.937   0.329  1.0930  1.7638  0.4825
  205MOL   H14041348   6.724   5.055   0.199  0.0843 -0.7589 -0.0029
  205MOL   H14141349   6.787   5.105   0.351  0.8104 -1.6105  1.1091
  205MOL   C14241350   6.581   5.198   0.522 -0.0910 -0.4183 -0.3239
  205MOL   C14341351   6.572   5.222   0.675  0.0861  0.2123  0.0424
  205MOL   O14441352   6.693   5.181   0.741 -0.0312  0.2424 -0.5043
  205MOL   C14541353   6.699   5.064   0.818  0.3896  0.1323 -0.3346
  205MOL   H14641354   6.514   5.269   0.472 -0.2815 -0.9476 -0.8144
  205MOL   H14741355   6.683   5.225   0.497  0.1109 -0.3407  0.5444
  205MOL   H14841356   6.485   5.171   0.716 -0.8660  1.5752 -0.2421
  205MOL   H14941357   6.651   4.980   0.767  1.5405 -1.8358  1.7596
  205MOL   H15041358   6.797   5.028   0.850  0.1255  0.1060  0.4630
  205MOL   H15141359   6.641   5.093   0.906 -2.6029 -0.7343 -1.9443
  205MOL   C15241360   6.560   5.365   0.729  0.4125  0.2049  0.2547
  205MOL   C15341361   6.667   5.467   0.674 -0.0524  0.6148  0.2815
  205MOL   O15441362   6.627   5.589   0.716 -0.5417  0.1187 -0.1010
  205MOL   C15541363   6.581   5.671   0.608  0.1304  0.4369 -0.2781
  205MOL   H15641364   6.577   5.365   0.837  1.3581 -0.9185  0.1196
  205MOL   H15741365   6.458   5.396   0.705  1.2024  1.4507 -1.6313
  205MOL   H15841366   6.663   5.457   0.565 -0.1345 -0.5447  0.3803
  205MOL   H15941367   6.656   5.705   0.537  0.7507  1.1449  0.6938
  205MOL   H16041368   6.507   5.614   0.552 -0.3732  1.0717 -0.2550
  205MOL   H16141369   6.524   5.756   0.644 -1.3075  0.6510 -3.0065
  205MOL   C16241370   6.815   5.449   0.709  0.4309  0.5729 -0.2801
  205MOL   C16341371   6.910   5.534   0.627 -0.3130  0.0154  0.3014
  205MOL   O16441372   7.039   5.558   0.686  0.4965  0.2083 -0.7592
  205MOL   C16541373   7.046   5.681   0.763  0.0997 -0.5968  0.4518
  205MOL   H16641374   6.840   5.344   0.693 -1.5499  0.1915 -0.9708
  205MOL   H16741375   6.839   5.471   0.814  0.2864  1.1058 -0.3595
  205MOL   H16841376   6.864   5.629   0.600 -2.0903 -1.0656 -0.5211
  205MOL   H16941377   7.126   5.684   0.837  0.5101  1.2280 -0.0467
  205MOL   H17041378   7.067   5.777   0.716  0.8199 -1.6266 -1.3698
  205MOL   H17141379   6.962   5.689   0.832 -0.9027  2.8491 -1.0255
  205MOL   C17241380   6.939   5.453   0.495 -0.3970 -0.5568 -0.6250
  205MOL   C17341381   7.047   5.501   0.400  0.5571 -0.1723 -0.4851
  205MOL   O17441382   7.061   5.416   0.290  0.5292  0.4402 -0.6259
  205MOL   C17541383   7.093   5.277   0.307 -0.4008 -0.2075  0.2974
  205MOL   H17641384   6.850   5.445   0.432 -0.3344 -0.1847 -0.7604
  205MOL   H17741385   6.967   5.351   0.520 -1.6338 -1.1136 -1.4404
  205MOL   H17841386   7.147   5.484   0.440  0.2586  0.6979  0.6500
  205MOL   H17941387   7.023   5.219   0.367  1.0938 -2.4062 -0.0046
  205MOL   H18041388   7.089   5.235   0.206 -0.9957  1.2297 -0.3005
  205MOL   H18141389   7.185   5.261   0.363  0.0685 -0.4672 -0.5420
  205MOL   C18241390   7.008   5.645   0.352  0.0577  0.2850  0.3517
  205MOL   C18341391   7.120   5.709   0.271 -1.2685 -0.5953  0.3028
  205MOL   O18441392   7.062   5.773   0.155 -0.1948  0.0192  0.5607
  205MOL   C18541393   6.990   5.701   0.053  0.6420  0.9156 -0.5429
  205MOL   H18641394   6.984   5.701   0.443  0.2014  0.7257  0.1213
  205MOL   H18741395   6.921   5.618   0.292  0.8863 -0.3480 -0.5756
  205MOL   H18841396   7.179   5.628   0.229 -1.4815 -0.4904 -0.2082
  205MOL   H18941397   6.888   5.677   0.082  0.9246 -0.7646 -0.8798
  205MOL   H19041398   6.981   5.768   7.778  1.9143 -2.1341 -3.2023
  205MOL   H19141399   7.055   5.622   0.012  1.1326  0.8169  0.4164
  205MOL   C19241400   7.212   5.812   0.339 -0.3182  0.0878  0.3827
  205MOL   C19341401   7.341   5.841   0.260  0.3337  0.8329  0.1138
  205MOL   O19441402   7.430   5.937   0.324  0.0385  0.5453 -0.2918
  205MOL   C19541403   7.461   5.909   0.457  0.5551  0.6751 -0.6139
  205MOL   H19641404   7.240   5.787   0.441 -1.3653 -1.0015  0.4265
  205MOL   H19741405   7.147   5.899   0.340  2.2209  2.0185  1.5086
  205MOL   H19841406   7.310   5.890   0.168 -0.4737  0.2828  0.0862
  205MOL   H19941407   7.559   5.953   0.477  1.8026 -2.2183 -0.1235
  205MOL   H20041408   7.392   5.966   0.520 -0.6183 -2.0957  0.6970
  205MOL   H20141409   7.469   5.803   0.480 -0.6817  0.1003 -2.7450
  205MOL   H20241410   7.395   5.753   0.228  0.1109  1.1078 -1.0491
  206MOL     C141411   3.776   1.446   1.951  0.3195 -0.1323  0.4644
  206MOL     C241412   3.909   1.384   1.997  0.5255  0.6028 -0.5881
  206MOL     O341413   3.891   1.310   2.118 -1.2571  0.4118 -0.0577
  206MOL     C441414   3.861   1.390   2.232 -0.4684 -0.1742  0.6336
  206MOL     H541415   3.802   1.525   1.881  0.3679 -0.9591 -0.4620
  206MOL     H641416   3.719   1.369   1.898 -2.2564  1.9127  0.1064
  206MOL     H741417   3.982   1.461   2.023  0.3344  0.4284  0.4850
  206MOL     H841418   3.846   1.497   2.218  2.4596  0.1427 -0.5577
  206MOL     H941419   3.770   1.353   2.279 -0.2933 -2.4829 -0.7582
  206MOL    H1041420   3.941   1.370   2.303  1.6626  0.3385 -1.5264
  206MOL    H1141421   3.710   1.494   2.024 -2.4769 -2.1579 -0.6245
  206MOL    C1241422   3.975   1.300   1.893 -0.2069  0.1639  0.2477
  206MOL    C1341423   3.996   1.369   1.753 -0.7111  0.4186 -0.5402
  206MOL    O1441424   4.116   1.442   1.784  0.1213 -0.4848 -0.2771
  206MOL    C1541425   4.112   1.583   1.770  0.1271  0.2632 -0.3846
  206MOL    H1641426   3.904   1.218   1.875 -1.8579  1.4065  0.9637
  206MOL    H1741427   4.064   1.256   1.937 -1.4524 -1.0056  1.6817
  206MOL    H1841428   3.911   1.427   1.717 -2.6924 -0.6230  2.2768
  206MOL    H1941429   4.079   1.636   1.859 -0.9633  2.0814 -1.8354
  206MOL    H2041430   4.215   1.609   1.747  0.5417  1.3907  2.5525
  206MOL    H2141431   4.052   1.615   1.684  1.8032  1.1701 -1.2325
  206MOL    C2241432   4.043   1.263   1.651  0.2760 -0.4280 -0.2833
  206MOL    C2341433   4.053   1.305   1.503 -0.0749  0.4973 -0.0629
  206MOL    O2441434   4.056   1.192   1.418 -0.4084 -0.0101  0.5301
  206MOL    C2541435   4.159   1.098   1.442  0.3949 -0.5146  0.5687
  206MOL    H2641436   3.976   1.178   1.661 -0.5042  0.4174  2.0684
  206MOL    H2741437   4.135   1.223   1.693 -1.0355 -0.9532  2.2111
  206MOL    H2841438   4.141   1.366   1.487  0.1919  0.7744  2.2458
  206MOL    H2941439   4.247   1.153   1.408  1.7103 -2.2812  1.0266
  206MOL    H3041440   4.164   1.052   1.541  0.8353  1.9868  1.7604
  206MOL    H3141441   4.146   1.013   1.375 -0.8349  1.2114 -1.4190
  206MOL    C3241442   3.937   1.391   1.453 -0.8210 -0.0907 -0.4462
  206MOL    C3341443   3.796   1.330   1.458  0.1628 -0.5482 -0.2930
  206MOL    O3441444   3.731   1.350   1.581  0.6233 -0.3776 -0.3997
  206MOL    C3541445   3.658   1.244   1.633  0.2053 -0.2101  0.0341
  206MOL    H3641446   3.959   1.416   1.350  0.9526  0.9828  0.1834
  206MOL    H3741447   3.938   1.485   1.507  2.4441 -1.5254  2.1596
  206MOL    H3841448   3.799   1.223   1.439 -0.5884 -1.3539  3.7390
  206MOL    H3941449   3.723   1.166   1.671  0.5865  0.7193  1.3253
  206MOL    H4041450   3.597   1.291   1.711  0.5141  1.3253 -0.6199
  206MOL    H4141451   3.595   1.204   1.554  2.3262 -1.5307 -1.0297
  206MOL    C4241452   3.704   1.400   1.359  0.2647  0.4334  0.1592
  206MOL    C4341453   3.736   1.340   1.224  1.0937  0.1769 -0.3994
  206MOL    O4441454   3.679   1.210   1.212  0.6011  0.3889 -0.7181
  206MOL    C4541455   3.761   1.103   1.175  0.1982  0.2138  0.0958
  206MOL    H4641456   3.728   1.506   1.353 -0.6449  0.6851  0.8743
  206MOL    H4741457   3.598   1.389   1.383  0.9472 -0.6798  2.7857
  206MOL    H4841458   3.844   1.328   1.217  0.8866 -0.9543 -1.8087
  206MOL    H4941459   3.801   1.130   1.077  1.1278  0.0919  0.4414
  206MOL    H5041460   3.854   1.094   1.230  0.5530 -2.9980 -0.9310
  206MOL    H5141461   3.722   1.002   1.173  0.5130 -0.0295  3.5944
  206MOL    C5241462   3.685   1.430   1.106 -0.6950 -0.6534 -0.7265
  206MOL    C5341463   3.748   1.391   0.968 -0.1550  0.4398  0.2878
  206MOL    O5441464   3.663   1.447   0.872  0.5939 -0.0116 -0.0251
  206MOL    C5541465   3.673   1.383   0.743  0.7068  0.4635  0.5743
  206MOL    H5641466   3.727   1.529   1.123 -1.2955 -0.4433 -0.4905
  206MOL    H5741467   3.577   1.442   1.111 -0.4354  0.7663  4.3412
  206MOL    H5841468   3.726   1.286   0.954  0.3992  0.4679 -0.8290
  206MOL    H5941469   3.756   1.415   0.680 -0.5494 -1.1706 -2.0145
  206MOL    H6041470   3.639   1.280   0.734 -1.8579  1.1014  2.3099
  206MOL    H6141471   3.590   1.432   0.692  0.7080 -0.7230 -0.5915
  206MOL    C6241472   3.898   1.428   0.952 -0.1463  0.6594 -0.1494
  206MOL    C6341473   3.922   1.584   0.970 -0.2303  0.7503  0.3554
  206MOL    O6441474   3.960   1.602   1.108  0.5463 -0.1593  0.4446
  206MOL    C6541475   3.954   1.738   1.145 -0.1229 -0.1394 -0.3205
  206MOL    H6641476   3.932   1.390   0.856 -0.3314  2.1992 -0.8401
  206MOL    H6741477   3.949   1.367   1.027 -0.1329  0.0267 -0.6658
  206MOL    H6841478   3.834   1.641   0.942 -0.6223  0.4904  1.0406
  206MOL    H6941479   3.874   1.799   1.104 -0.0738 -1.9001 -3.1867
  206MOL    H7041480   3.943   1.739   1.253 -0.4129  1.0206 -0.3571
  206MOL    H7141481   4.049   1.785   1.120  0.4145 -0.1443  1.6464
  206MOL    C7241482   4.031   1.638   0.880 -0.2726  0.7149 -0.0006
  206MOL    C7341483   4.000   1.762   0.798  0.1381 -0.1612  0.4465
  206MOL    O7441484   4.020   1.880   0.879 -0.3081  0.0179  0.1390
  206MOL    C7541485   3.935   1.994   0.847 -0.5311 -0.3537  0.2054
  206MOL    H7641486   4.043   1.563   0.801 -2.4510 -0.1923  0.4932
  206MOL    H7741487   4.124   1.650   0.936  0.9373 -1.0601 -1.5359
  206MOL    H7841488   3.896   1.748   0.768  0.0096 -1.6579  1.5245
  206MOL    H7941489   3.837   1.991   0.893  0.9140  0.3602  3.4897
  206MOL    H8041490   3.974   2.090   0.882  2.1504 -0.9028 -1.0782
  206MOL    H8141491   3.920   2.010   0.740  0.5559  1.8557  0.3377
  206MOL    C8241492   4.069   1.778   0.661 -0.3850  0.1567  0.4954
  206MOL    C8341493   4.009   1.689   0.555  0.4029  0.2660  0.7999
  206MOL    O8441494   3.927   1.761   0.459 -0.1241  0.5503  0.1070
  206MOL    C8541495   3.800   1.807   0.507 -0.8960 -0.1752 -0.0543
  206MOL    H8641496   4.178   1.775   0.665 -0.2337 -0.2616 -2.6357
  206MOL    H8741497   4.045   1.877   0.621 -3.1114 -0.4087  0.6197
  206MOL    H8841498   3.959   1.603   0.598 -0.6344 -0.5281 -1.8658
  206MOL    H8941499   3.735   1.721   0.521 -1.7162  0.0969 -2.0390
  206MOL    H9041500   3.812   1.870   0.595  1.1334  0.2917 -0.6232
  206MOL    H9141501   3.754   1.850   0.419  0.5620 -1.1925 -1.3494
  206MOL    C9241502   4.121   1.618   0.476  0.0153 -0.3519 -0.4075
  206MOL    C9341503   4.077   1.521   0.361  0.1386  0.3698 -0.2041
  206MOL    O9441504   4.204   1.495   0.287 -0.3805 -0.2662 -0.2280
  206MOL    C9541505   4.219   1.541   0.158  0.6524 -0.1738 -0.6014
  206MOL    H9641506   4.190   1.563   0.540  0.6409 -0.7277 -1.3882
  206MOL    H9741507   4.180   1.699   0.435 -2.2476  1.1807 -0.7223
  206MOL    H9841508   4.006   1.570   0.294  1.6004  2.2592 -0.4353
  206MOL    H9941509   4.153   1.488   0.090 -2.5168  2.1112  0.5732
  206MOL   H10041510   4.199   1.648   0.153 -0.5364 -0.3200  0.6602
  206MOL   H10141511   4.322   1.535   0.123 -0.1526  0.2175 -3.1382
  206MOL   C10241512   4.026   1.392   0.424  0.3053  0.6816  0.0231
  206MOL   C10341513   3.966   1.307   0.311  0.1949  0.1372  0.2515
  206MOL   O10441514   3.990   1.170   0.337 -0.4827 -0.0463  0.4432
  206MOL   C10541515   4.055   1.090   0.233  0.0337  0.3168  0.4208
  206MOL   H10641516   3.954   1.397   0.505 -1.3406 -2.5588 -1.1339
  206MOL   H10741517   4.115   1.340   0.460 -1.2909 -1.2453  1.3325
  206MOL   H10841518   4.017   1.336   0.219  1.4845 -0.4107  0.7824
  206MOL   H10941519   4.095   0.998   0.277 -0.9761 -0.4504 -0.2460
  206MOL   H11041520   3.993   1.062   0.148 -3.1712 -0.2218  2.8346
  206MOL   H11141521   4.147   1.129   0.190  1.8602 -2.7226  1.4025
  206MOL   C11241522   3.818   1.337   0.289  0.0649 -0.0454  1.4214
  206MOL   C11341523   3.757   1.271   0.160 -0.5544 -0.0967  0.2132
  206MOL   O11441524   3.618   1.279   0.162 -0.0320 -0.0600  0.1539
  206MOL   C11541525   3.548   1.192   0.081 -0.5786  1.2283 -0.0529
  206MOL   H11641526   3.807   1.446   0.282 -1.6389 -0.2332  0.8433
  206MOL   H11741527   3.759   1.304   0.374 -2.2492 -1.3180 -0.6316
  206MOL   H11841528   3.757   1.164   0.178 -4.5725 -0.2008  0.1353
  206MOL   H11941529   3.444   1.213   0.059 -1.1752 -2.1557 -0.7234
  206MOL   H12041530   3.593   1.171   7.794  1.6644  1.2410  0.9502
  206MOL   H12141531   3.544   1.097   0.133  0.1870 -0.0831 -2.3003
  206MOL   C12241532   3.827   1.316   0.023 -0.2500  0.3738  0.6605
  206MOL   C12341533   3.809   1.465   7.793  0.5090 -0.3108  0.9808
  206MOL   O12441534   3.883   1.556   0.061 -0.0326  0.4950  0.2583
  206MOL   C12541535   3.812   1.666   0.110  0.2186  0.4124  0.1118
  206MOL   H12641536   3.780   1.260   7.752  0.0029 -0.1591  0.8755
  206MOL   H12741537   3.932   1.285   0.032 -0.3580  0.1230  1.0571
  206MOL   H12841538   3.704   1.493   7.786  0.5233 -0.8608 -2.1457
  206MOL   H12941539   3.769   1.734   0.037  1.1309  0.1538 -0.6704
  206MOL   H13041540   3.724   1.637   0.168  0.5016  0.0001  0.3386
  206MOL   H13141541   3.865   1.720   0.188  1.3283 -0.3929 -0.0848
  206MOL   C13241542   3.872   1.500   7.652 -0.3068  0.1860  0.1460
  206MOL   C13341543   3.788   1.454   7.536 -0.0383  0.3393 -0.0206
  206MOL   O13441544   3.793   1.554   7.433  0.1714  0.2137 -0.2534
  206MOL   C13541545   3.717   1.671   7.462  1.0842  0.1672  0.1376
  206MOL   H13641546   3.973   1.461   7.647 -0.4216 -0.3940  2.1837
  206MOL   H13741547   3.888   1.607   7.644  0.0518  0.1478  0.3498
  206MOL   H13841548   3.683   1.443   7.564  0.5349 -1.6922  1.4591
  206MOL   H13941549   3.720   1.733   7.373  2.0948  0.1973  0.1806
  206MOL   H14041550   3.616   1.635   7.480  0.6090  0.2296 -2.2935
  206MOL   H14141551   3.742   1.737   7.545 -0.7379  0.5898  0.3722
  206MOL   C14241552   3.831   1.328   7.467  0.5049 -0.0315 -0.1054
  206MOL   C14341553   3.721   1.255   7.392 -0.3602 -0.4794  0.6706
  206MOL   O14441554   3.608   1.224   7.473 -0.1142 -0.2893  0.7245
  206MOL   C14541555   3.568   1.089   7.451  0.2625 -0.2305  0.5069
  206MOL   H14641556   3.871   1.260   7.541  1.2031 -1.4919 -1.7910
  206MOL   H14741557   3.907   1.346   7.391  0.8899  0.6218  0.4354
  206MOL   H14841558   3.768   1.165   7.353  1.6755  1.0422 -0.4664
  206MOL   H14941559   3.636   1.016   7.494 -0.8937 -1.3838  0.4375
  206MOL   H15041560   3.465   1.075   7.487 -0.0652 -0.9392 -0.6715
  206MOL   H15141561   3.558   1.059   7.347  1.1535 -0.3862  0.4660
  206MOL   C15241562   3.677   1.340   7.267 -0.4607  0.2337 -0.1186
  206MOL   C15341563   3.585   1.272   7.161 -0.6212 -0.2902  0.5653
  206MOL   O15441564   3.517   1.358   7.073  0.2700  0.0543  0.0301
  206MOL   C15541565   3.394   1.419   7.123  0.0098 -0.4454  0.0461
  206MOL   H15641566   3.760   1.387   7.213  0.2632 -1.6833 -0.7007
  206MOL   H15741567   3.615   1.417   7.313  1.7435  1.3173  1.0958
  206MOL   H15841568   3.509   1.221   7.220 -1.0488  0.7489  0.9204
  206MOL   H15941569   3.429   1.493   7.195  0.4254 -1.0858  0.5071
  206MOL   H16041570   3.343   1.468   7.040 -1.7703  0.7383  1.7930
  206MOL   H16141571   3.327   1.348   7.171  0.7035 -0.6745  0.6947
  206MOL   C16241572   3.647   1.176   7.068  0.0889  0.0750  0.6842
  206MOL   C16341573   3.752   1.243   6.976  0.0041  0.5561  0.8268
  206MOL   O16441574   3.875   1.257   7.033 -0.3811  0.4512  0.1859
  206MOL   C16541575   3.945   1.359   6.967 -1.0227  0.9270 -0.3121
  206MOL   H16641576   3.566   1.123   7.019  0.2625 -2.0208  2.5910
  206MOL   H16741577   3.705   1.108   7.131  0.9293 -1.8180 -2.0301
  206MOL   H16841578   3.721   1.343   6.947  1.0490  0.4504 -0.6998
  206MOL   H16941579   3.911   1.462   6.968  3.8616  2.6256 -0.0427
  206MOL   H17041580   4.047   1.361   7.005 -0.0907  0.2835 -2.6988
  206MOL   H17141581   3.957   1.331   6.862  2.2347  2.2439 -0.3332
  206MOL   C17241582   3.757   1.162   6.838  0.3086  0.1210 -0.9342
  206MOL   C17341583   3.685   1.229   6.725 -0.2130  0.1161  0.1242
  206MOL   O17441584   3.697   1.165   6.601  0.1932 -0.2828  0.0489
  206MOL   C17541585   3.773   1.239   6.508  0.1455 -0.0366  0.0824
  206MOL   H17641586   3.733   1.057   6.852 -1.1609  0.5867  0.1260
  206MOL   H17741587   3.862   1.142   6.814  0.8280  0.9805  0.5585
  206MOL   H17841588   3.732   1.327   6.721 -0.1504  0.0553 -0.6333
  206MOL   H17941589   3.750   1.345   6.517  1.5727  0.4318 -1.5179
  206MOL   H18041590   3.876   1.232   6.544 -0.0867 -0.0784  0.7532
  206MOL   H18141591   3.764   1.198   6.407  0.8922 -1.1881  0.4715
  206MOL   C18241592   3.535   1.244   6.755  0.4010 -0.1475  0.0781
  206MOL   C18341593   3.464   1.336   6.649 -0.6970 -0.4687  0.1792
  206MOL   O18441594   3.350   1.267   6.607  0.3119  0.0143 -0.0606
  206MOL   C18541595   3.374   1.165   6.514  0.8400  0.4279  0.0242
  206MOL   H18641596   3.511   1.286   6.852  1.6704  0.6511  0.0596
  206MOL   H18741597   3.491   1.144   6.762 -0.9944  0.5496  1.3048
  206MOL   H18841598   3.530   1.359   6.566  0.5027 -0.7950  1.0266
  206MOL   H18941599   3.446   1.187   6.435  1.0764  2.3112  0.7367
  206MOL   H19041600   3.399   1.063   6.542  1.7503 -0.2104 -2.9106
  206MOL   H19141601   3.281   1.161   6.457  1.3265 -0.6357 -0.6950
  206MOL   C19241602   3.414   1.480   6.703  0.5384  0.2206 -1.1539
  206MOL   C19341603   3.526   1.566   6.762 -0.0242 -0.4803  0.3391
  206MOL   O19441604   3.631   1.601   6.667 -0.0267 -0.1266  0.0218
  206MOL   C19541605   3.748   1.628   6.740 -0.3762 -0.1208 -0.6676
  206MOL   H19641606   3.333   1.463   6.773  1.7299  1.0054  0.4344
  206MOL   H19741607   3.375   1.541   6.621  0.3071  0.2181 -1.0426
  206MOL   H19841608   3.569   1.529   6.855  1.1791  1.2431  0.4983
  206MOL   H19941609   3.729   1.715   6.803 -1.4316 -0.0479 -1.0658
  206MOL   H20041610   3.786   1.552   6.808  0.6351  0.5951 -0.4302
  206MOL   H20141611   3.828   1.655   6.671  1.1012 -1.6858  0.3999
  206MOL   H20241612   3.485   1.659   6.800 -0.2449 -0.2417 -0.4573
  207MOL     C141613   7.050   3.291   6.381 -0.5837  0.0937 -0.1791
  207MOL     C241614   6.910   3.264   6.342  0.0773 -0.1085  0.4679
  207MOL     O341615   6.849   3.240   6.467  0.1427  0.1322  0.0817
  207MOL     C441616   6.743   3.152   6.463  0.6146  0.4056  0.1681
  207MOL     H541617   7.054   3.377   6.449  1.5070 -0.0294 -0.1015
  207MOL     H641618   7.102   3.207   6.427 -0.4575 -1.1617 -2.5324
  207MOL     H741619   6.915   3.173   6.283 -1.3544  0.7788 -1.0591
  207MOL     H841620   6.779   3.051   6.443 -0.1981  0.6625 -2.7414
  207MOL     H941621   6.684   3.140   6.554 -0.7478 -1.5984 -0.9231
  207MOL    H1041622   6.671   3.170   6.383 -2.0515 -0.2765  2.3188
  207MOL    H1141623   7.101   3.333   6.294 -0.1540  2.1309  0.9992
  207MOL    C1241624   6.832   3.380   6.266 -0.4215  0.5931  0.3181
  207MOL    C1341625   6.891   3.422   6.125 -0.2253  0.3285  0.1553
  207MOL    O1441626   6.927   3.294   6.073 -0.1204 -0.4045  0.2571
  207MOL    C1541627   7.022   3.297   5.963  0.5695  0.3122 -0.2078
  207MOL    H1641628   6.824   3.462   6.338  0.2801  2.2154 -1.3853
  207MOL    H1741629   6.732   3.338   6.258 -1.1222  1.7590  2.3886
  207MOL    H1841630   6.984   3.475   6.144 -1.0637  1.0157  2.5178
  207MOL    H1941631   7.003   3.372   5.887  2.3837  1.7178  0.6790
  207MOL    H2041632   7.118   3.319   6.010  1.2118 -2.3616 -0.1744
  207MOL    H2141633   7.035   3.196   5.924  2.6345  0.1284  0.8685
  207MOL    C2241634   6.779   3.494   6.042 -0.5171 -0.7675 -0.0413
  207MOL    C2341635   6.754   3.646   6.077  0.1915  0.6239 -0.4419
  207MOL    O2441636   6.740   3.653   6.214 -0.1237 -0.0240  0.5511
  207MOL    C2541637   6.612   3.657   6.271  0.3918 -0.7571 -0.0379
  207MOL    H2641638   6.690   3.432   6.053 -1.2331  0.0122 -1.3916
  207MOL    H2741639   6.805   3.486   5.936  0.5233 -0.6551  0.2041
  207MOL    H2841640   6.659   3.674   6.032 -0.9375 -1.7496  0.3796
  207MOL    H2941641   6.564   3.561   6.253 -1.1259 -0.3123  1.5107
  207MOL    H3041642   6.623   3.673   6.378  0.1823 -0.3230 -0.0822
  207MOL    H3141643   6.555   3.742   6.233  1.1257 -0.9837 -1.7054
  207MOL    C3241644   6.857   3.742   6.036 -0.3077  0.4094  0.4099
  207MOL    C3341645   6.796   3.879   6.035 -0.0421 -1.0219 -0.2653
  207MOL    O3441646   6.903   3.972   6.048  0.7765 -0.0727 -0.0044
  207MOL    C3541647   6.929   4.014   6.176 -0.4435 -0.6009 -1.0240
  207MOL    H3641648   6.881   3.710   5.935 -3.5466 -1.1096  0.0506
  207MOL    H3741649   6.947   3.735   6.098 -0.8280  2.2063  1.3948
  207MOL    H3841650   6.729   3.898   6.119  0.1654 -1.7947  0.0785
  207MOL    H3941651   6.976   3.934   6.234  0.1583 -2.8849 -4.4890
  207MOL    H4041652   6.997   4.099   6.173 -0.7713 -0.2732  0.2661
  207MOL    H4141653   6.836   4.050   6.221  0.4601 -1.3381  1.5553
  207MOL    C4241654   6.727   3.907   5.895  0.2287 -0.3171  0.5225
  207MOL    C4341655   6.660   4.046   5.887  0.7488  0.6556 -0.6554
  207MOL    O4441656   6.629   4.063   5.751 -0.4007  0.0559  0.1026
  207MOL    C4541657   6.629   4.197   5.715 -0.0187  0.1886  0.2648
  207MOL    H4641658   6.668   3.823   5.860  1.4904 -0.5275 -1.1359
  207MOL    H4741659   6.806   3.909   5.820  0.4491  1.6191  0.7702
  207MOL    H4841660   6.742   4.111   5.919  1.6039 -0.0899 -1.3018
  207MOL    H4941661   6.564   4.253   5.783 -1.2600  0.2383 -0.9419
  207MOL    H5041662   6.722   4.251   5.697  0.1271 -0.0104  0.4255
  207MOL    H5141663   6.586   4.202   5.615  0.7188  0.9223 -0.0252
  207MOL    C5241664   6.530   4.060   5.968 -0.1871  0.8544 -0.2136
  207MOL    C5341665   6.539   4.153   6.091  0.1293  0.3255 -0.2323
  207MOL    O5441666   6.590   4.281   6.056 -0.5229 -0.0137  0.6752
  207MOL    C5541667   6.712   4.326   6.121  0.1766  0.2567  0.3434
  207MOL    H5641668   6.510   3.957   5.998 -0.6525  1.0743  0.2355
  207MOL    H5741669   6.443   4.078   5.905 -0.0428 -1.2787 -1.0585
  207MOL    H5841670   6.604   4.106   6.166 -2.6853 -1.2365  1.3072
  207MOL    H5941671   6.740   4.430   6.102  0.2704  0.2936  0.6913
  207MOL    H6041672   6.711   4.309   6.228 -3.7551 -1.7453  0.0764
  207MOL    H6141673   6.802   4.268   6.099 -0.6383 -0.9895  0.2371
  207MOL    C6241674   6.395   4.167   6.154  0.5184 -0.4497 -0.2720
  207MOL    C6341675   6.350   4.041   6.237 -0.4172 -0.7262 -0.0223
  207MOL    O6441676   6.415   4.041   6.364 -0.1847 -0.0413  0.2756
  207MOL    C6541677   6.403   3.926   6.442 -0.2646 -0.2211  0.2014
  207MOL    H6641678   6.327   4.197   6.075 -0.3393 -0.2084  0.5592
  207MOL    H6741679   6.393   4.258   6.214  0.8479  0.4370 -1.5845
  207MOL    H6841680   6.374   3.955   6.175 -0.7036 -1.1346  0.4279
  207MOL    H6941681   6.452   3.962   6.533 -1.6796  0.7554  0.5825
  207MOL    H7041682   6.304   3.894   6.472 -0.0016 -1.3207 -0.0710
  207MOL    H7141683   6.457   3.835   6.412  0.4339  0.8352 -1.8278
  207MOL    C7241684   6.196   4.049   6.268 -0.7694  0.9255 -0.0178
  207MOL    C7341685   6.106   4.025   6.140  0.3462  0.0955  0.1234
  207MOL    O7441686   6.145   3.902   6.074 -0.1164 -0.3469 -0.1569
  207MOL    C7541687   6.169   3.910   5.933  0.2531  0.6286 -0.8372
  207MOL    H7641688   6.157   4.132   6.327 -1.6805  0.5929 -0.1544
  207MOL    H7741689   6.176   3.963   6.332  2.0074  1.5530  1.8215
  207MOL    H7841690   6.117   4.113   6.077 -0.1386 -0.8511 -1.3089
  207MOL    H7941691   6.238   3.993   5.917  0.7450  0.5054  0.6498
  207MOL    H8041692   6.221   3.827   5.885  2.1786  1.0311  0.5171
  207MOL    H8141693   6.080   3.923   5.871  1.7602  0.9590 -2.9870
  207MOL    C8241694   5.950   4.017   6.184  0.1475 -0.4437  0.4776
  207MOL    C8341695   5.852   3.980   6.074 -0.0542  0.7747  0.3907
  207MOL    O8441696   5.742   3.907   6.127  0.3149 -0.1024 -0.5131
  207MOL    C8541697   5.746   3.762   6.127 -0.4583  0.2582 -0.1403
  207MOL    H8641698   5.928   4.107   6.241 -1.8121  0.0327 -1.0130
  207MOL    H8741699   5.949   3.941   6.262 -1.8572 -0.3687  0.5413
  207MOL    H8841700   5.901   3.911   6.005 -1.5546  0.3135 -0.2332
  207MOL    H8941701   5.738   3.725   6.024  3.4947 -2.0214  0.2583
  207MOL    H9041702   5.839   3.730   6.173 -0.7080 -1.3523 -0.7307
  207MOL    H9141703   5.663   3.724   6.186  0.9001 -0.7746  1.1441
  207MOL    C9241704   5.802   4.095   5.995  0.6396 -0.5800 -0.1125
  207MOL    C9341705   5.709   4.069   5.871 -0.0497 -0.0453 -0.8552
  207MOL    O9441706   5.623   4.180   5.836 -0.3259  0.2961 -0.0764
  207MOL    C9541707   5.513   4.195   5.928 -0.4564 -0.0732 -0.5647
  207MOL    H9641708   5.887   4.151   5.956  1.9790 -0.9499  2.1902
  207MOL    H9741709   5.745   4.164   6.057  1.8890  0.5339 -0.2054
  207MOL    H9841710   5.640   3.989   5.896  0.9420 -1.1076 -1.5250
  207MOL    H9941711   5.536   4.250   6.019 -3.5167  0.3482 -0.0065
  207MOL   H10041712   5.445   4.256   5.869 -1.7396 -0.7823  0.1545
  207MOL   H10141713   5.461   4.108   5.968  1.1924 -1.2755 -0.9793
  207MOL   C10241714   5.790   4.036   5.745  0.1949  0.2676  0.2877
  207MOL   C10341715   5.704   3.971   5.632  0.1859 -0.6011  0.1718
  207MOL   O10441716   5.786   3.966   5.515 -0.4011  0.3357  0.3733
  207MOL   C10541717   5.731   4.000   5.389  0.2628 -0.3060 -0.1959
  207MOL   H10641718   5.866   3.963   5.771 -1.5575 -1.2320  1.2955
  207MOL   H10741719   5.836   4.125   5.700 -2.5398  0.8889 -1.4356
  207MOL   H10841720   5.605   4.015   5.622  1.1700  1.7609  0.3641
  207MOL   H10941721   5.705   4.106   5.392  1.5175  0.0441 -1.3932
  207MOL   H11041722   5.790   3.982   5.299 -1.3130 -0.3650 -1.2522
  207MOL   H11141723   5.643   3.936   5.377 -0.9127  0.8730  1.8483
  207MOL   C11241724   5.691   3.817   5.673 -0.2395  0.0606  0.3444
  207MOL   C11341725   5.576   3.747   5.597 -0.1029 -0.2554 -0.3251
  207MOL   O11441726   5.586   3.607   5.634  0.0142 -0.0614  0.2241
  207MOL   C11541727   5.639   3.521   5.537 -0.0532 -0.4935 -0.8782
  207MOL   H11641728   5.667   3.789   5.775  1.5779 -0.3100  0.6864
  207MOL   H11741729   5.785   3.763   5.663  0.3239  1.2573 -0.8732
  207MOL   H11841730   5.590   3.754   5.489  2.5289 -0.7280 -0.0500
  207MOL   H11941731   5.614   3.415   5.545 -0.5509 -0.5817 -3.1042
  207MOL   H12041732   5.586   3.542   5.444 -0.8279  0.1813 -0.2860
  207MOL   H12141733   5.746   3.530   5.522 -0.2240  0.0050 -1.8182
  207MOL   C12241734   5.435   3.805   5.640 -0.4383 -0.0475  0.2612
  207MOL   C12341735   5.362   3.870   5.522  0.7748  0.0335 -0.3653
  207MOL   O12441736   5.329   3.762   5.427  0.0235 -1.1856  0.1195
  207MOL   C12541737   5.317   3.817   5.295  0.1829 -0.1938 -0.1146
  207MOL   H12641738   5.445   3.868   5.729 -1.3524 -1.4004  1.3357
  207MOL   H12741739   5.380   3.720   5.678  1.0377 -1.4744 -0.7247
  207MOL   H12841740   5.422   3.943   5.468  0.4394  0.1972 -0.5204
  207MOL   H12941741   5.415   3.827   5.247 -0.4581 -2.3766 -1.9510
  207MOL   H13041742   5.254   3.758   5.229  0.7653  0.6286 -1.4388
  207MOL   H13141743   5.279   3.919   5.303  1.9480  0.5177 -0.3897
  207MOL   C13241744   5.226   3.939   5.570  0.2071 -0.6903 -0.1101
  207MOL   C13341745   5.237   4.088   5.610 -0.7353  1.2143  0.8915
  207MOL   O13441746   5.265   4.155   5.496  0.0477  0.6008  0.0675
  207MOL   C13541747   5.380   4.230   5.504  0.2193  0.2402 -0.3659
  207MOL   H13641748   5.211   3.885   5.664  1.8731  0.6643  0.9718
  207MOL   H13741749   5.142   3.912   5.507 -0.9853  0.1867  1.0813
  207MOL   H13841750   5.306   4.098   5.694  1.5089 -0.7701 -0.6472
  207MOL   H13941751   5.375   4.303   5.585  0.3271  0.7151 -0.7822
  207MOL   H14041752   5.465   4.164   5.517  1.5079  1.9080 -0.1300
  207MOL   H14141753   5.400   4.299   5.422  1.9282  1.2802  0.8767
  207MOL   C14241754   5.098   4.141   5.653  0.3525  0.5097  0.5492
  207MOL   C14341755   5.066   4.105   5.794 -0.2565 -0.1308 -0.1247
  207MOL   O14441756   5.103   4.217   5.870  0.2082  0.2218  0.1072
  207MOL   C14541757   5.155   4.187   6.004  0.3448 -0.0024 -0.2319
  207MOL   H14641758   5.031   4.097   5.579 -0.6687 -1.2143  2.4618
  207MOL   H14741759   5.088   4.249   5.643 -2.6495  0.5492  3.2426
  207MOL   H14841760   5.129   4.021   5.823  0.4392  0.7464  0.9056
  207MOL   H14941761   5.247   4.128   6.001  1.1867  1.3458 -1.3549
  207MOL   H15041762   5.164   4.285   6.050 -0.6208 -0.5019  1.0367
  207MOL   H15141763   5.082   4.135   6.066  1.1047 -0.0294  0.6483
  207MOL   C15241764   4.910   4.069   5.808 -0.9160  0.2753 -0.3108
  207MOL   C15341765   4.818   4.187   5.773  0.7490 -0.6671 -0.2253
  207MOL   O15441766   4.697   4.139   5.727 -0.2306  0.5568  0.0294
  207MOL   C15541767   4.692   4.092   5.587 -0.0979  0.7191 -0.0984
  207MOL   H15641768   4.889   4.033   5.908 -1.0740 -0.5972 -0.6484
  207MOL   H15741769   4.886   3.987   5.740  0.8486  0.5025 -1.2531
  207MOL   H15841770   4.865   4.251   5.698  0.5769  1.8565  1.7312
  207MOL   H15941771   4.753   4.002   5.579  0.6561  1.1702  0.5529
  207MOL   H16041772   4.591   4.065   5.555 -0.2693  1.7905 -0.4962
  207MOL   H16141773   4.726   4.164   5.512 -2.4998  1.0607 -0.8947
  207MOL   C16241774   4.792   4.282   5.886  0.7354 -0.3257 -0.9854
  207MOL   C16341775   4.688   4.385   5.851 -0.2451  0.2264  0.2901
  207MOL   O16441776   4.595   4.381   5.957  0.5502 -0.0120  0.0996
  207MOL   C16541777   4.475   4.302   5.943 -0.0169 -0.1124 -0.2941
  207MOL   H16641778   4.883   4.326   5.927 -0.7056  2.4422 -0.6601
  207MOL   H16741779   4.757   4.219   5.968 -1.4397  1.2834 -0.6407
  207MOL   H16841780   4.642   4.374   5.753 -1.3316 -3.0561  1.1050
  207MOL   H16941781   4.427   4.331   5.850  1.1488  0.6788 -0.6547
  207MOL   H17041782   4.494   4.195   5.937  0.4668 -0.1382  1.4459
  207MOL   H17141783   4.398   4.314   6.019  0.4831  0.3012  0.1507
  207MOL   C17241784   4.749   4.528   5.859 -0.2935  0.2954  0.5371
  207MOL   C17341785   4.851   4.564   5.749 -0.1750  0.9976  0.4754
  207MOL   O17441786   4.788   4.559   5.620 -0.6931 -0.1440  0.6728
  207MOL   C17541787   4.877   4.515   5.520  0.4414 -0.0292 -0.6535
  207MOL   H17641788   4.796   4.525   5.957 -0.0660  0.5715  0.4365
  207MOL   H17741789   4.670   4.603   5.865 -2.0329 -1.4583  0.0104
  207MOL   H17841790   4.929   4.488   5.744  0.5601  1.8038 -0.3220
  207MOL   H17941791   4.903   4.411   5.535 -0.2693 -0.0380  0.6962
  207MOL   H18041792   4.817   4.533   5.431 -0.4818 -0.8222 -0.2008
  207MOL   H18141793   4.968   4.574   5.507  1.2651 -0.8515  1.1610
  207MOL   C18241794   4.921   4.698   5.765  0.9520 -0.0218 -0.2086
  207MOL   C18341795   5.028   4.697   5.882  0.3168  1.0494 -0.2685
  207MOL   O18441796   5.160   4.691   5.829 -0.1331  0.0741 -0.5916
  207MOL   C18541797   5.189   4.553   5.791 -0.1811  0.0191  0.4797
  207MOL   H18641798   4.851   4.782   5.766 -0.1711 -0.9018  2.7725
  207MOL   H18741799   4.991   4.714   5.683  1.5311  0.7533  0.4217
  207MOL   H18841800   5.023   4.618   5.957 -0.4705  3.0245  1.8195
  207MOL   H18941801   5.124   4.476   5.833 -2.2086  2.1622  1.3744
  207MOL   H19041802   5.192   4.555   5.682 -0.4229 -0.8975  0.4536
  207MOL   H19141803   5.293   4.529   5.815  0.8867  1.3562 -2.5392
  207MOL   C19241804   5.021   4.825   5.965 -0.3954  0.4508  0.7901
  207MOL   C19341805   4.920   4.820   6.083  0.0422 -0.4423  0.1982
  207MOL   O19441806   4.954   4.719   6.178 -0.3439 -0.3338 -0.0757
  207MOL   C19541807   4.883   4.734   6.296 -0.1181  0.1975  0.1487
  207MOL   H19641808   4.987   4.905   5.900 -1.4545 -0.4033  0.2779
  207MOL   H19741809   5.121   4.850   5.998  0.8128 -0.6745 -1.8991
  207MOL   H19841810   4.825   4.786   6.042 -0.6306  1.7070 -0.1008
  207MOL   H19941811   4.942   4.798   6.361 -0.2003 -0.8359  1.2582
  207MOL   H20041812   4.783   4.776   6.282  0.4332  1.6720  0.4770
  207MOL   H20141813   4.878   4.635   6.340 -1.3784 -0.4086 -1.3281
  207MOL   H20241814   4.924   4.916   6.135 -1.1463  0.6012 -1.5370
  208MOL     C141815   1.648   6.031   2.714 -0.4201  0.1267 -0.1793
  208MOL     C241816   1.519   6.118   2.721 -0.4962  0.4919  0.1506
  208MOL     O341817   1.457   6.083   2.842  0.0617 -0.4128 -0.3583
  208MOL     C441818   1.383   5.963   2.835  0.3266 -0.1828 -0.9973
  208MOL     H541819   1.672   6.005   2.817 -0.8672  0.4671  0.0130
  208MOL     H641820   1.615   5.941   2.661  1.7587 -0.5044 -0.5144
  208MOL     H741821   1.453   6.105   2.635  2.0108  1.7462 -2.0325
  208MOL     H841822   1.324   5.950   2.925  0.8481 -1.2187 -0.7986
  208MOL     H941823   1.305   5.961   2.759 -0.2850  1.3143 -0.4168
  208MOL    H1041824   1.440   5.870   2.828 -0.0114 -0.6687  2.1133
  208MOL    H1141825   1.737   6.071   2.666 -0.6597  1.2705  0.3250
  208MOL    C1241826   1.557   6.265   2.717 -1.3748  0.1485 -0.1229
  208MOL    C1341827   1.568   6.322   2.577 -0.2686  0.7026  0.0986
  208MOL    O1441828   1.434   6.354   2.542  0.4208  0.3571  0.3017
  208MOL    C1541829   1.380   6.333   2.411  0.1125  0.4498 -0.1511
  208MOL    H1641830   1.651   6.266   2.772 -1.9389  0.0065  0.8388
  208MOL    H1741831   1.481   6.327   2.764 -0.3822  2.3217 -1.3166
  208MOL    H1841832   1.616   6.241   2.522  0.6443  0.2186  1.5911
  208MOL    H1941833   1.400   6.230   2.385 -0.6754  0.4133 -0.6106
  208MOL    H2041834   1.272   6.348   2.408  0.3495  2.2416 -0.5840
  208MOL    H2141835   1.431   6.392   2.336  1.5802 -1.5470 -0.7563
  208MOL    C2241836   1.655   6.443   2.577 -0.4442  0.5859  0.1175
  208MOL    C2341837   1.667   6.512   2.439  0.3610  0.0771  0.2389
  208MOL    O2441838   1.752   6.620   2.469  0.0817 -0.1913 -0.3134
  208MOL    C2541839   1.707   6.747   2.526  0.4667 -0.3756 -0.0179
  208MOL    H2641840   1.754   6.417   2.615 -1.3413 -3.0058  0.1986
  208MOL    H2741841   1.622   6.515   2.652 -1.2545 -0.1135  0.4354
  208MOL    H2841842   1.570   6.550   2.408  0.1436  0.2784  1.1503
  208MOL    H2941843   1.631   6.718   2.598  0.3127  0.1383  0.0258
  208MOL    H3041844   1.780   6.800   2.588 -0.0793  0.8357 -0.4119
  208MOL    H3141845   1.656   6.815   2.459  0.4989 -0.5129 -0.1823
  208MOL    C3241846   1.716   6.416   2.327 -0.9182  0.6786  0.1027
  208MOL    C3341847   1.738   6.498   2.201  0.7811  0.1196  0.5687
  208MOL    O3441848   1.812   6.420   2.100 -0.1592  0.4397 -0.0527
  208MOL    C3541849   1.945   6.457   2.088  0.2721 -0.5394 -0.0956
  208MOL    H3641850   1.655   6.329   2.301  1.5613 -1.3352  0.8109
  208MOL    H3741851   1.813   6.371   2.348 -1.2038 -0.9882 -1.9931
  208MOL    H3841852   1.804   6.581   2.227 -0.5902  1.0963  0.9926
  208MOL    H3941853   1.949   6.552   2.036  2.1791 -0.6870 -0.2548
  208MOL    H4041854   1.990   6.456   2.188  1.5944  0.3154 -0.6603
  208MOL    H4141855   1.996   6.388   2.021  1.0280 -2.1433  2.0589
  208MOL    C4241856   1.605   6.547   2.140 -0.2724 -0.6042 -0.1281
  208MOL    C4341857   1.619   6.657   2.037  0.6429 -0.5385 -0.3752
  208MOL    O4441858   1.508   6.663   1.942 -0.1539  0.5683  0.6456
  208MOL    C4541859   1.528   6.612   1.809 -0.4607 -0.4544 -0.0511
  208MOL    H4641860   1.530   6.582   2.212  1.7621  2.6941  0.5036
  208MOL    H4741861   1.561   6.459   2.094  0.7138 -1.3787  0.4108
  208MOL    H4841862   1.707   6.644   1.974 -0.2900 -0.9847 -1.6081
  208MOL    H4941863   1.553   6.507   1.801  3.3736  0.5740 -2.6009
  208MOL    H5041864   1.440   6.630   1.747  0.3083 -2.8871 -1.9092
  208MOL    H5141865   1.621   6.648   1.766 -0.7967 -0.4794 -0.8174
  208MOL    C5241866   1.638   6.800   2.102 -0.8740  0.2639  0.3009
  208MOL    C5341867   1.675   6.911   2.004 -0.0818  0.3552 -0.2640
  208MOL    O5441868   1.659   7.034   2.065  0.4901  0.2989 -0.0325
  208MOL    C5541869   1.524   7.080   2.044 -0.0697  0.3505 -0.0044
  208MOL    H5641870   1.714   6.786   2.179 -1.7478  1.3779  1.3967
  208MOL    H5741871   1.547   6.826   2.157 -0.9305 -1.7831  1.2383
  208MOL    H5841872   1.610   6.922   1.917 -1.3525  0.8436  0.7215
  208MOL    H5941873   1.529   7.187   2.064  1.6181  0.0163  1.5183
  208MOL    H6041874   1.474   7.069   1.948 -0.8937 -0.3148  0.4936
  208MOL    H6141875   1.458   7.039   2.121  3.4310 -2.6339  1.5957
  208MOL    C6241876   1.811   6.897   1.936 -0.5372 -0.1889 -0.8850
  208MOL    C6341877   1.865   7.004   1.838 -0.1986 -0.1360 -0.3694
  208MOL    O6441878   1.997   6.956   1.813  0.0256  0.0488 -0.7315
  208MOL    C6541879   2.086   7.018   1.900  0.3805  0.0061 -0.3222
  208MOL    H6641880   1.806   6.804   1.880 -1.4012 -1.8644  1.8690
  208MOL    H6741881   1.881   6.884   2.019  0.0166  1.9405 -0.9911
  208MOL    H6841882   1.864   7.100   1.890 -0.2938 -0.3743  0.0707
  208MOL    H6941883   2.180   6.971   1.873  0.0039 -0.3559 -1.0225
  208MOL    H7041884   2.086   7.127   1.893 -1.9179 -0.0755 -2.4235
  208MOL    H7141885   2.079   6.988   2.004  0.9082  0.9259 -0.0143
  208MOL    C7241886   1.794   7.011   1.704  0.1883 -0.0952 -0.1529
  208MOL    C7341887   1.815   7.141   1.622 -0.2875  0.1324 -0.0824
  208MOL    O7441888   1.831   7.123   1.482 -0.0191  0.3086  0.2127
  208MOL    C7541889   1.961   7.072   1.451 -0.2953  0.0319 -0.2954
  208MOL    H7641890   1.687   6.992   1.714  0.4352 -0.2580  2.4209
  208MOL    H7741891   1.837   6.935   1.638  0.8663  1.2621 -1.3005
  208MOL    H7841892   1.906   7.185   1.662 -0.0680  3.1016 -3.6119
  208MOL    H7941893   1.959   7.042   1.346 -0.9175  1.1412 -0.6076
  208MOL    H8041894   2.031   7.154   1.467  1.9131 -1.7543 -0.4820
  208MOL    H8141895   2.006   6.992   1.510 -0.1631 -0.6719 -1.3294
  208MOL    C8241896   1.703   7.248   1.619 -0.5293 -0.2754  0.0261
  208MOL    C8341897   1.658   7.311   1.754 -0.0377  1.2847 -0.5432
  208MOL    O8441898   1.750   7.415   1.800  0.4061 -0.4226 -0.7601
  208MOL    C8541899   1.834   7.368   1.909 -0.4869  0.3922  0.0987
  208MOL    H8641900   1.617   7.193   1.579  0.5335 -2.4628  0.6608
  208MOL    H8741901   1.724   7.331   1.552  2.4907 -0.5182  0.5955
  208MOL    H8841902   1.643   7.228   1.824 -3.4187  1.9090 -0.4203
  208MOL    H8941903   1.915   7.310   1.865  0.7031  2.4720 -0.4759
  208MOL    H9041904   1.882   7.454   1.955  2.0254 -0.0973 -1.5189
  208MOL    H9141905   1.784   7.300   1.978 -1.4207  0.9666 -0.0037
  208MOL    C9241906   1.527   7.394   1.740  0.0443 -0.0063  0.4870
  208MOL    C9341907   1.435   7.436   1.865  0.1318 -0.1148 -0.1261
  208MOL    O9441908   1.385   7.310   1.911 -0.2931 -0.2172  0.5079
  208MOL    C9541909   1.256   7.320   1.965  0.0462 -0.3821 -0.4549
  208MOL    H9641910   1.466   7.325   1.682 -0.7094  2.2177 -1.4575
  208MOL    H9741911   1.558   7.479   1.680  0.3892  0.2836  1.0740
  208MOL    H9841912   1.351   7.496   1.832  1.5478  1.5041 -0.8958
  208MOL    H9941913   1.177   7.330   1.890 -1.0264 -1.3915  0.5234
  208MOL   H10041914   1.227   7.230   2.018  0.2281 -0.0409  0.2227
  208MOL   H10141915   1.239   7.402   2.034 -0.2279 -0.7673 -0.0673
  208MOL   C10241916   1.509   7.513   1.972 -0.6642  0.0248  0.0733
  208MOL   C10341917   1.578   7.646   1.919  0.4913 -0.3193  0.8463
  208MOL   O10441918   1.474   7.738   1.905  0.3311 -0.2200  0.2862
  208MOL   C10541919   1.439   7.767   1.769  0.9704  0.2300  0.4160
  208MOL   H10641920   1.584   7.445   2.012 -1.3646 -0.6247  0.2912
  208MOL   H10741921   1.452   7.548   2.059 -0.8398 -1.8251  0.7276
  208MOL   H10841922   1.625   7.627   1.823  1.5958 -0.7948  1.4750
  208MOL   H10941923   1.357   0.027   1.779  0.0763 -0.7997  0.4810
  208MOL   H11041924   1.520   0.010   1.720  1.7601  0.0294  1.4929
  208MOL   H11141925   1.416   7.684   1.702  0.3951  0.3461  0.4601
  208MOL   C11241926   1.680   7.700   2.024  0.0246  0.0239  0.3610
  208MOL   C11341927   1.769   0.008   1.970  0.7435 -0.3429 -0.4935
  208MOL   O11441928   1.829   0.072   2.089  0.2854  0.0831  0.3102
  208MOL   C11541929   1.774   0.197   2.133 -0.2317  0.4234  0.0232
  208MOL   H11641930   1.743   7.615   2.049  0.0106  0.0237  0.3955
  208MOL   H11741931   1.628   7.738   2.113  1.1327  0.4141  0.8499
  208MOL   H11841932   1.696   0.064   1.912  0.2383 -0.3105  0.1620
  208MOL   H11941933   1.672   0.184   2.170  0.1714 -0.6306  0.7976
  208MOL   H12041934   1.832   0.221   2.222  0.9357 -1.2466 -0.2711
  208MOL   H12141935   1.780   0.281   2.063 -0.9706  0.7163  0.3046
  208MOL   C12241936   1.881   7.770   1.871 -0.0732 -0.0593 -0.2976
  208MOL   C12341937   1.918   0.049   1.752 -0.4095  0.3067  0.2337
  208MOL   O12441938   1.812   0.081   1.670  0.3617  0.3938 -0.4430
  208MOL   C12541939   1.772   7.795   1.577  0.4897  0.1894 -0.7144
  208MOL   H12641940   1.853   7.671   1.833 -1.3365 -1.2574  3.5640
  208MOL   H12741941   1.964   7.742   1.935 -0.0242 -0.9419 -0.7382
  208MOL   H12841942   2.002   7.803   1.710  0.3226 -0.1684  2.2951
  208MOL   H12941943   1.777   7.696   1.622 -0.3148 -1.1076 -3.3665
  208MOL   H13041944   1.675   7.800   1.528  0.7576 -0.7260 -1.3528
  208MOL   H13141945   1.846   7.805   1.497  0.1731 -1.0885 -1.1646
  208MOL   C13241946   1.977   0.184   1.788 -0.2757  0.1397  0.2377
  208MOL   C13341947   1.999   0.279   1.664  0.0264 -0.0632  0.0029
  208MOL   O13441948   2.050   0.409   1.703  0.6704 -0.5120  0.1024
  208MOL   C13541949   1.957   0.500   1.760 -0.3155 -0.5601  1.0123
  208MOL   H13641950   2.078   0.175   1.829  0.4867  0.3845 -1.5536
  208MOL   H13741951   1.907   0.244   1.846 -0.8974  1.7392 -2.1174
  208MOL   H13841952   1.899   0.293   1.622  0.5134  2.0609 -0.5107
  208MOL   H13941953   1.885   0.514   1.679  1.7108  0.5581 -0.6490
  208MOL   H14041954   1.924   0.468   1.859  0.7992  2.4415  2.4215
  208MOL   H14141955   2.017   0.590   1.772 -0.0974 -0.2951 -1.7934
  208MOL   C14241956   2.100   0.227   1.562  0.3381  0.0990  0.0134
  208MOL   C14341957   2.085   0.311   1.433 -0.0087 -0.4666  0.3245
  208MOL   O14441958   2.198   0.290   1.349 -0.0538  0.3102 -0.6627
  208MOL   C14541959   2.305   0.371   1.392  0.4579  0.2384  0.4664
  208MOL   H14641960   2.081   0.121   1.545 -0.0115  0.1441  0.1247
  208MOL   H14741961   2.204   0.236   1.594 -0.0293  1.9273  0.7597
  208MOL   H14841962   2.071   0.416   1.457 -0.1668 -0.2767 -0.5718
  208MOL   H14941963   2.304   0.389   1.499  2.6358  0.7344  0.4285
  208MOL   H15041964   2.399   0.335   1.349  1.2522  0.6192  1.8362
  208MOL   H15141965   2.295   0.463   1.334  0.2131 -1.4796 -2.3536
  208MOL   C15241966   1.968   0.264   1.356  1.0166  0.2419 -0.1629
  208MOL   C15341967   1.928   0.352   1.240  1.3375 -0.2436  0.3882
  208MOL   O15441968   2.039   0.372   1.151  0.0873 -0.4465 -0.6222
  208MOL   C15541969   2.063   0.506   1.113 -0.6436 -0.1576 -0.3380
  208MOL   H15641970   1.886   0.251   1.426  1.1866  0.9384  0.1669
  208MOL   H15741971   1.993   0.163   1.324  1.5205  0.3245 -0.0352
  208MOL   H15841972   1.881   0.440   1.285 -0.3973 -1.7228  1.5190
  208MOL   H15941973   2.152   0.513   1.050 -1.3823  1.0823 -1.2770
  208MOL   H16041974   1.980   0.561   1.068 -2.7976 -1.1772  2.2233
  208MOL   H16141975   2.085   0.573   1.195  0.7863 -0.0751 -0.7804
  208MOL   C16241976   1.835   0.278   1.150 -0.1621 -0.2751  0.0997
  208MOL   C16341977   1.703   0.229   1.213  0.2262  0.4632 -0.0977
  208MOL   O16441978   1.634   0.348   1.256 -0.1473  0.1825  0.4998
  208MOL   C16541979   1.624   0.364   1.403  0.2682 -0.6444 -0.3187
  208MOL   H16641980   1.888   0.192   1.110  1.3993  1.8125 -2.4774
  208MOL   H16741981   1.798   0.331   1.063  2.7125  0.7297 -0.5484
  208MOL   H16841982   1.737   0.162   1.292  0.6998  0.2710 -0.4660
  208MOL   H16941983   1.550   0.442   1.419 -0.6419 -1.7915  1.2375
  208MOL   H17041984   1.595   0.267   1.444 -1.7196  1.8176  4.5467
  208MOL   H17141985   1.722   0.387   1.445  1.1302 -1.4388 -1.8247
  208MOL   C17241986   1.616   0.151   1.117  1.1080  0.2880 -0.1541
  208MOL   C17341987   1.477   0.113   1.172  0.0832  0.2768 -0.1267
  208MOL   O17441988   1.402   0.043   1.072 -0.2241  0.2168 -0.4874
  208MOL   C17541989   1.349   0.131   0.972  0.1631 -0.1157 -0.3820
  208MOL   H17641990   1.669   0.060   1.088 -1.2440 -0.8588 -0.9598
  208MOL   H17741991   1.605   0.212   1.028  1.3474  0.1353 -0.2889
  208MOL   H17841992   1.423   0.199   1.211 -2.6626 -1.1948 -0.5047
  208MOL   H17941993   1.411   0.145   0.883 -0.5618  0.2731 -0.8243
  208MOL   H18041994   1.259   0.090   0.926 -0.0420 -0.0234 -0.0646
  208MOL   H18141995   1.321   0.225   1.019  1.4758  0.8199 -1.4243
  208MOL   C18241996   1.496   0.012   1.287 -0.0649  0.1596  0.1651
  208MOL   C18341997   1.366   7.789   1.358  0.2606  0.8481 -0.6693
  208MOL   O18441998   1.387   7.681   1.447  0.4104  0.0089  0.1335
  208MOL   C18541999   1.368   7.553   1.386  0.0111 -0.0283 -0.0461
  208MOL   H18642000   1.566   0.050   1.361  0.0492  2.4562 -1.0668
  208MOL   H18742001   1.543   7.732   1.248 -2.0611  0.3903 -3.0124
  208MOL   H18842002   1.283   7.779   1.288 -1.5992  1.0657  1.4311
  208MOL   H18942003   1.270   7.553   1.337  1.5192 -0.4202 -3.1973
  208MOL   H19042004   1.436   7.529   1.304  0.2472  1.2509 -0.2318
  208MOL   H19142005   1.366   7.470   1.456 -0.6627 -0.4353 -0.5358
  208MOL   C19242006   1.318   0.083   1.468  0.8796 -0.0583 -0.9386
  208MOL   C19342007   1.180   0.079   1.526  0.2145  0.1333 -0.6128
  208MOL   O19442008   1.155   0.174   1.631 -0.0179 -0.3919  0.9852
  208MOL   C19542009   1.047   0.131   1.711 -0.4708  0.4585 -0.2316
  208MOL   H19642010   1.315   0.190   1.446 -1.7739  0.2421  0.7681
  208MOL   H19742011   1.384   0.073   1.555 -0.5506  0.3513  0.2109
  208MOL   H19842012   1.154   7.789   1.561  0.3123  1.0545  2.2277
  208MOL   H19942013   1.042   0.192   1.801 -1.0912  0.4314 -0.2480
  208MOL   H20042014   0.955   0.136   1.652 -0.6318  1.8708  0.1394
  208MOL   H20142015   1.056   0.026   1.740 -1.3256  0.5097  0.2368
  208MOL   H20242016   1.122   0.114   1.440 -0.4514 -0.2007 -0.3016
  209MOL     C142017   3.841   5.182   0.213 -0.0166 -0.3388 -1.2780
  209MOL     C242018   3.825   5.237   0.069  0.4503  0.5405  0.1007
  209MOL     O342019   3.687   5.254   0.030 -0.0843  0.5477 -0.7036
  209MOL     C442020   3.632   5.136   7.781 -0.1367  0.0663 -0.3095
  209MOL     H542021   3.790   5.247   0.284  0.2663 -1.5617  0.0739
  209MOL     H642022   3.807   5.078   0.217  0.9235 -0.6748 -1.8827
  209MOL     H742023   3.877   5.171   7.810  0.9399  1.0228  0.0046
  209MOL     H842024   3.685   5.105   7.691  0.6969 -0.4617  0.3629
  209MOL     H942025   3.654   5.049   0.033  0.8285 -0.5156 -1.4431
  209MOL    H1042026   3.523   5.135   7.770 -0.2979  0.2892  1.1868
  209MOL    H1142027   3.946   5.189   0.240 -0.2369  1.3651 -0.8065
  209MOL    C1242028   3.896   5.376   0.053 -0.1450  0.6386  0.3734
  209MOL    C1342029   3.906   5.428   7.722  0.2884  0.3056  0.0169
  209MOL    O1442030   3.926   5.565   7.729  0.5362 -0.2270 -0.0010
  209MOL    C1542031   3.810   5.647   7.719 -0.1075  0.2761 -0.5989
  209MOL    H1642032   4.001   5.367   0.083  0.1383  0.2438 -0.7009
  209MOL    H1742033   3.852   5.443   0.128 -1.2520  0.5121 -0.1540
  209MOL    H1842034   3.812   5.406   7.671  1.2043 -0.7337 -1.2743
  209MOL    H1942035   3.742   5.622   7.801 -0.1310 -0.0235 -0.7091
  209MOL    H2042036   3.832   5.753   7.719 -1.4157  0.6080  2.2884
  209MOL    H2142037   3.754   5.621   7.630 -0.7287  1.2259 -0.4844
  209MOL    C2242038   4.024   5.364   7.645 -1.1938  0.7740  0.6102
  209MOL    C2342039   4.013   5.369   7.489 -0.5914  0.5269 -0.5359
  209MOL    O2442040   4.137   5.308   7.431  0.4118  0.1420 -1.0357
  209MOL    C2542041   4.250   5.393   7.433 -0.0717 -0.1951  0.4328
  209MOL    H2642042   4.029   5.260   7.677 -0.5719  0.5492 -0.1933
  209MOL    H2742043   4.117   5.404   7.685  0.6145 -2.2538 -0.4200
  209MOL    H2842044   4.003   5.469   7.449 -1.2601  0.0044 -1.7053
  209MOL    H2942045   4.228   5.489   7.386  2.7269  1.2692  1.9911
  209MOL    H3042046   4.272   5.407   7.538  0.4560 -1.0944  0.4398
  209MOL    H3142047   4.347   5.354   7.403  0.0425  0.9086 -0.6938
  209MOL    C3242048   3.903   5.287   7.427 -0.1359  0.0942 -0.4109
  209MOL    C3342049   3.886   5.305   7.271  0.0853  0.3993 -0.2879
  209MOL    O3442050   3.778   5.211   7.254  0.2017 -0.2275  0.3468
  209MOL    C3542051   3.757   5.176   7.118  0.4111  0.8087  0.0188
  209MOL    H3642052   3.807   5.313   7.470 -0.3765 -0.6664 -0.4722
  209MOL    H3742053   3.928   5.182   7.444  3.0144  0.9270  0.3796
  209MOL    H3842054   3.970   5.265   7.214 -0.3821 -0.9271 -0.0540
  209MOL    H3942055   3.836   5.105   7.098  0.3843  0.8141 -0.1024
  209MOL    H4042056   3.658   5.137   7.095  1.4458 -1.6322 -0.4440
  209MOL    H4142057   3.759   5.260   7.048  0.1992 -1.4567 -2.7589
  209MOL    C4242058   3.856   5.443   7.209 -0.8086 -0.0659 -0.2379
  209MOL    C4342059   3.708   5.500   7.233  0.4985 -0.3357 -1.8127
  209MOL    O4442060   3.703   5.527   7.370  0.3053  0.0513 -0.0217
  209MOL    C4542061   3.571   5.540   7.417  0.1510 -0.3944  0.0126
  209MOL    H4642062   3.866   5.451   7.101  3.6371 -1.3057 -0.0113
  209MOL    H4742063   3.932   5.514   7.244 -1.3461 -0.1929  1.2472
  209MOL    H4842064   3.644   5.413   7.219 -0.3639  0.6224 -4.1769
  209MOL    H4942065   3.529   5.636   7.387  1.9068  0.5020  0.3619
  209MOL    H5042066   3.504   5.456   7.397  0.3702 -1.0603  1.8995
  209MOL    H5142067   3.553   5.557   7.523 -2.0155 -0.5778 -0.2970
  209MOL    C5242068   3.660   5.617   7.143  0.1521 -0.3173  0.9032
  209MOL    C5342069   3.639   5.582   6.990  0.1343  0.2023  0.2810
  209MOL    O5442070   3.529   5.486   6.982  0.2167  0.4767  0.2791
  209MOL    C5542071   3.527   5.403   6.864  0.0811  0.3676 -0.6761
  209MOL    H5642072   3.728   5.702   7.149  0.4756 -0.3668 -1.5055
  209MOL    H5742073   3.580   5.670   7.195  0.5641 -0.3506  1.5736
  209MOL    H5842074   3.726   5.534   6.944 -0.1547  1.9485 -2.1534
  209MOL    H5942075   3.449   5.327   6.871  0.8228 -0.1940  2.4340
  209MOL    H6042076   3.522   5.457   6.770  2.5736 -2.0464 -2.2981
  209MOL    H6142077   3.621   5.349   6.852 -0.5584 -0.7173 -0.8448
  209MOL    C6242078   3.609   5.705   6.907  0.0661 -0.1941  0.2117
  209MOL    C6342079   3.715   5.814   6.906  0.4044 -0.0937  0.2358
  209MOL    O6442080   3.833   5.741   6.900 -0.1258  0.1074  0.1177
  209MOL    C6542081   3.945   5.807   6.968  0.1166 -0.1426  0.1976
  209MOL    H6642082   3.514   5.734   6.952  0.5157 -0.2604  1.1945
  209MOL    H6742083   3.576   5.675   6.807 -1.5031 -0.7183  0.8591
  209MOL    H6842084   3.714   5.875   6.996  0.1273 -0.8071  0.7150
  209MOL    H6942085   4.038   5.785   6.916  0.3427 -0.5070  0.7541
  209MOL    H7042086   3.943   5.914   6.948  0.0845 -0.0777  0.5486
  209MOL    H7142087   3.947   5.788   7.075 -0.9943 -3.3422 -0.2867
  209MOL    C7242088   3.699   5.895   6.780 -0.5606 -0.9819 -0.5140
  209MOL    C7342089   3.569   5.982   6.766 -0.0749  0.8080 -0.1629
  209MOL    O7442090   3.569   6.084   6.862  0.4691  0.0180  0.3508
  209MOL    C7542091   3.464   6.089   6.946  0.5723 -0.2533  0.3788
  209MOL    H7642092   3.704   5.823   6.698 -1.4423 -2.4121  0.6602
  209MOL    H7742093   3.783   5.963   6.767 -1.0592 -0.5093 -1.3467
  209MOL    H7842094   3.484   5.915   6.781  1.1035 -0.4398  1.0495
  209MOL    H7942095   3.492   6.134   7.041  1.0569  1.6597 -0.6413
  209MOL    H8042096   3.381   6.146   6.905  0.0732  0.3339  2.1437
  209MOL    H8142097   3.425   5.992   6.977 -1.3491  0.0821 -0.8991
  209MOL    C8242098   3.557   6.057   6.631 -0.3423 -0.1063 -0.8050
  209MOL    C8342099   3.512   5.969   6.508  0.2903 -0.2092  0.0843
  209MOL    O8442100   3.377   5.929   6.536 -0.4429  0.0159 -0.1335
  209MOL    C8542101   3.354   5.795   6.506  0.0481  0.4945 -0.3204
  209MOL    H8642102   3.650   6.108   6.609  0.4151 -0.7727  0.8166
  209MOL    H8742103   3.481   6.135   6.644  0.0798  0.3795 -1.2426
  209MOL    H8842104   3.586   5.890   6.511  0.6098 -0.1174 -3.4166
  209MOL    H8942105   3.250   5.775   6.534 -0.0132 -0.1336 -0.9881
  209MOL    H9042106   3.372   5.771   6.401 -1.5537  0.5754 -0.6205
  209MOL    H9142107   3.406   5.725   6.573  1.3176  2.2728  0.5811
  209MOL    C9242108   3.511   6.028   6.361 -0.1966 -0.1784  0.5899
  209MOL    C9342109   3.638   6.107   6.320 -0.0276  0.3731 -0.4226
  209MOL    O9442110   3.660   6.223   6.399 -0.2452 -0.1411  0.1247
  209MOL    C9542111   3.565   6.320   6.388 -0.1305 -0.5562 -0.5288
  209MOL    H9642112   3.417   6.082   6.352 -0.4922 -1.0077 -1.6581
  209MOL    H9742113   3.495   5.942   6.296 -1.1048  0.2568  0.2301
  209MOL    H9842114   3.622   6.140   6.217 -0.8371  1.5637  0.0784
  209MOL    H9942115   3.469   6.289   6.428  1.5092 -2.7466  1.8985
  209MOL   H10042116   3.604   6.416   6.420 -1.4978 -0.1255 -0.1201
  209MOL   H10142117   3.538   6.342   6.285  0.1867  2.5641  0.0189
  209MOL   C10242118   3.766   6.031   6.333 -0.3065 -0.2036 -0.1121
  209MOL   C10342119   3.794   5.914   6.233 -0.2603 -0.3958 -0.2891
  209MOL   O10442120   3.697   5.812   6.236 -0.0969  1.0483  0.1098
  209MOL   C10542121   3.746   5.685   6.294 -0.3019  0.4791  0.0587
  209MOL   H10642122   3.776   6.006   6.439  0.0481 -0.9067 -0.3107
  209MOL   H10742123   3.850   6.099   6.318 -0.1044 -0.3223  0.4698
  209MOL   H10842124   3.891   5.873   6.261 -0.2960 -0.8324 -0.8008
  209MOL   H10942125   3.672   5.606   6.287 -1.6272  1.7897 -1.1110
  209MOL   H11042126   3.830   5.651   6.233 -0.2101  0.3581  0.2502
  209MOL   H11142127   3.781   5.678   6.397 -0.0626 -1.4837 -0.1426
  209MOL   C11242128   3.812   5.955   6.083 -0.0708  0.3132 -0.5392
  209MOL   C11342129   3.931   6.049   6.048 -0.0392  0.4660 -0.4282
  209MOL   O11442130   4.043   5.964   6.084  0.0947  0.5706  0.8750
  209MOL   C11542131   4.163   6.032   6.124  0.5222  0.3015 -0.9256
  209MOL   H11642132   3.714   5.991   6.054 -2.1263  0.1566  5.5955
  209MOL   H11742133   3.827   5.869   6.018 -0.3821 -0.3111  0.2123
  209MOL   H11842134   3.932   6.125   6.127 -0.2331  0.1298 -0.1030
  209MOL   H11942135   4.178   6.021   6.231  0.0843  3.5376 -0.4749
  209MOL   H12042136   4.243   5.982   6.070  1.1940 -0.5089  0.7877
  209MOL   H12142137   4.172   6.139   6.102  1.9087  0.6544  1.2531
  209MOL   C12242138   3.918   6.108   5.912  0.1206 -0.0371  0.2677
  209MOL   C12342139   4.011   6.228   5.863 -0.4740  0.6997 -0.2109
  209MOL   O12442140   4.146   6.187   5.848 -0.2352 -0.5691 -0.1196
  209MOL   C12542141   4.166   6.114   5.728  0.1674 -0.7087  0.1572
  209MOL   H12642142   3.817   6.150   5.914  0.1628  0.1890 -1.4274
  209MOL   H12742143   3.919   6.030   5.836  2.6163 -1.0313  1.2698
  209MOL   H12842144   4.009   6.292   5.951 -0.6823 -0.1527  0.4142
  209MOL   H12942145   4.176   6.157   5.628 -0.8567  1.4659  0.9509
  209MOL   H13042146   4.267   6.074   5.737  0.5580  0.1987 -0.0599
  209MOL   H13142147   4.103   6.026   5.718 -0.5880 -0.0665 -0.8888
  209MOL   C13242148   3.957   6.305   5.740 -1.0716 -0.2282  0.1281
  209MOL   C13342149   4.057   6.414   5.683 -0.1332  0.1348  0.3468
  209MOL   O13442150   3.996   6.434   5.551 -0.6058  0.5879  0.3088
  209MOL   C13542151   4.080   6.477   5.451  0.7966 -0.2124 -0.1674
  209MOL   H13642152   3.866   6.359   5.766 -0.1353  0.6715  1.6522
  209MOL   H13742153   3.916   6.232   5.671  1.2123 -1.2054 -0.2382
  209MOL   H13842154   4.158   6.376   5.672 -0.0091  0.1478  1.3780
  209MOL   H13942155   4.037   6.493   5.352 -0.2349 -1.6399  0.0298
  209MOL   H14042156   4.128   6.572   5.473  0.9732  0.0089 -1.4319
  209MOL   H14142157   4.165   6.409   5.442 -0.3399 -1.9529  1.9281
  209MOL   C14242158   4.059   6.546   5.764 -0.6458  0.1155 -0.5875
  209MOL   C14342159   4.170   6.553   5.874  0.4078 -0.2918 -0.1558
  209MOL   O14442160   4.290   6.577   5.799 -0.6226  0.2124  0.5028
  209MOL   C14542161   4.406   6.519   5.855 -0.1343  0.3294  0.0976
  209MOL   H14642162   3.960   6.560   5.806  0.0893 -0.9219  1.5706
  209MOL   H14742163   4.089   6.624   5.693  1.1383  0.1284  0.1541
  209MOL   H14842164   4.180   6.455   5.921 -0.0761 -0.6811 -0.8474
  209MOL   H14942165   4.421   6.547   5.959 -0.0305  1.4560 -0.2115
  209MOL   H15042166   4.406   6.411   5.840  0.8840  0.0917  1.7275
  209MOL   H15142167   4.478   6.558   5.783 -3.6331  1.7681 -2.7534
  209MOL   C15242168   4.145   6.663   5.981  0.3278  1.1344  0.5163
  209MOL   C15342169   4.035   6.649   6.078  0.1938  0.0815  0.3645
  209MOL   O15442170   4.039   6.518   6.133  0.1505 -0.8268 -0.4121
  209MOL   C15542171   3.915   6.461   6.160  0.0200 -0.0459  0.0590
  209MOL   H15642172   4.143   6.761   5.933 -0.1474  0.6334 -0.4915
  209MOL   H15742173   4.234   6.684   6.042  0.3059  1.1772  0.5340
  209MOL   H15842174   3.941   6.671   6.027  0.4646  0.7319  0.1498
  209MOL   H15942175   3.853   6.529   6.217  0.6373  0.6080 -0.0397
  209MOL   H16042176   3.862   6.444   6.066 -1.9339 -2.7457  1.5977
  209MOL   H16142177   3.923   6.369   6.217 -2.2004 -1.4230 -1.7904
  209MOL   C16242178   4.034   6.742   6.200 -0.2008  0.5090  0.8247
  209MOL   C16342179   3.991   6.894   6.181 -1.1331  0.0722  0.5622
  209MOL   O16442180   4.046   6.937   6.057 -0.2860  0.1666 -0.4304
  209MOL   C16542181   4.173   7.003   6.077 -0.3176 -0.6333  0.1122
  209MOL   H16642182   4.139   6.751   6.228  0.6462 -2.0822 -1.2911
  209MOL   H16742183   3.992   6.698   6.290  1.1946  0.4780  1.4673
  209MOL   H16842184   4.024   6.954   6.266 -2.9327  1.0131  0.6267
  209MOL   H16942185   4.223   7.007   5.981  2.4572 -1.5410  1.4567
  209MOL   H17042186   4.163   7.103   6.120  0.0215 -1.3005  1.8016
  209MOL   H17142187   4.238   6.950   6.148 -0.0890  0.2184  0.5474
  209MOL   C17242188   3.842   6.927   6.196  0.7005 -0.4828 -0.1508
  209MOL   C17342189   3.769   6.909   6.338 -0.2770  0.0963 -0.2185
  209MOL   O17442190   3.826   7.006   6.426  0.1564  0.0482 -0.0036
  209MOL   C17542191   3.894   6.950   6.535  0.3240  0.2233  1.0767
  209MOL   H17642192   3.797   6.873   6.113  4.1888 -4.2679  0.2579
  209MOL   H17742193   3.832   7.034   6.176  1.8000 -0.2806  0.3522
  209MOL   H17842194   3.790   6.807   6.369 -1.0004  0.0343  0.0887
  209MOL   H17942195   3.977   6.886   6.506  0.5829  1.7622 -1.7280
  209MOL   H18042196   3.950   7.016   6.601  2.0487  0.6569 -0.7858
  209MOL   H18142197   3.831   6.874   6.582 -2.1519  1.3185 -0.3568
  209MOL   C18242198   3.622   6.946   6.325 -0.0667  0.3623 -0.1677
  209MOL   C18342199   3.529   6.898   6.440 -0.5796 -0.0021  0.4762
  209MOL   O18442200   3.399   6.939   6.428 -0.0513  0.6538 -0.1649
  209MOL   C18542201   3.371   7.064   6.493 -0.2777  0.1440  0.4956
  209MOL   H18642202   3.586   6.908   6.229  1.3904 -1.1936 -0.1298
  209MOL   H18742203   3.621   7.055   6.323 -0.9567  0.3511 -1.7587
  209MOL   H18842204   3.581   6.930   6.530 -2.2241 -1.1192  1.8552
  209MOL   H18942205   3.424   7.149   6.450  1.4403 -0.5848  1.1356
  209MOL   H19042206   3.264   7.082   6.477 -0.5829 -2.2159 -0.3195
  209MOL   H19142207   3.379   7.061   6.602 -0.3578 -1.1813  0.4721
  209MOL   C19242208   3.511   6.742   6.449  0.3049 -0.0395  0.4692
  209MOL   C19342209   3.448   6.698   6.585  0.8962 -0.2378 -0.1132
  209MOL   O19442210   3.418   6.560   6.572 -0.3391  0.8148  0.1291
  209MOL   C19542211   3.332   6.508   6.679  0.3894 -0.4831  0.1917
  209MOL   H19642212   3.607   6.692   6.440  0.4674  0.7574 -2.7180
  209MOL   H19742213   3.463   6.707   6.357  1.2502 -0.9053  0.2977
  209MOL   H19842214   3.358   6.758   6.600  1.9985  1.6878 -1.0360
  209MOL   H19942215   3.348   6.400   6.680 -0.6054 -0.6331  1.3055
  209MOL   H20042216   3.352   6.553   6.776 -2.4320  0.9470  0.1642
  209MOL   H20142217   3.229   6.527   6.648  0.8105  0.2982 -0.7607
  209MOL   H20242218   3.507   6.721   6.674 -1.2896  0.3802  1.2212
  210MOL     C142219   1.677   4.173   1.121  0.7804  0.7123  0.4583
  210MOL     C242220   1.623   4.160   0.979 -0.0160  0.8128  0.6284
  210MOL     O342221   1.703   4.068   0.919 -0.4213 -0.1267  0.3236
  210MOL     C442222   1.719   4.091   0.774 -0.4912  0.5403  0.6720
  210MOL     H542223   1.760   4.244   1.132  0.8290  0.9644 -1.3572
  210MOL     H642224   1.599   4.222   1.180 -0.2119 -0.0008 -0.2470
  210MOL     H742225   1.630   4.251   0.920  1.9601  0.7922  0.8109
  210MOL     H842226   1.778   4.181   0.761 -0.3554  0.6369  1.8953
  210MOL     H942227   1.775   4.011   0.726  0.2206  2.2684 -1.4501
  210MOL    H1042228   1.623   4.092   0.723  1.4248 -0.4291 -3.1355
  210MOL    H1142229   1.702   4.075   1.160 -2.5214 -0.6257 -0.5842
  210MOL    C1242230   1.477   4.104   0.981 -0.4517  0.2276  1.0839
  210MOL    C1342231   1.365   4.202   0.999 -0.4223 -0.0030  0.1005
  210MOL    O1442232   1.353   4.281   0.885 -0.1607 -0.7934 -0.4618
  210MOL    C1542233   1.307   4.417   0.904 -0.5888  0.1306  0.2649
  210MOL    H1642234   1.479   4.032   1.063  3.1383  0.4471  1.2916
  210MOL    H1742235   1.461   4.058   0.883  0.9821  1.5220  0.2183
  210MOL    H1842236   1.391   4.263   1.086 -2.0109  2.1080 -0.8746
  210MOL    H1942237   1.387   4.455   0.967 -2.3187  1.4706  1.6973
  210MOL    H2042238   1.315   4.478   0.814 -2.0911  0.3291  0.2547
  210MOL    H2142239   1.207   4.429   0.944 -1.0143  1.2891 -1.0754
  210MOL    C2242240   1.239   4.125   1.036  0.7671 -0.0344  0.4531
  210MOL    C2342241   1.238   4.061   1.178  0.3319 -0.2516  0.0145
  210MOL    O2442242   1.242   4.167   1.273  0.3107  0.0749  0.5261
  210MOL    C2542243   1.352   4.151   1.360  0.5369  0.2957  0.5437
  210MOL    H2642244   1.237   4.041   0.966 -1.7185  1.3647 -1.2290
  210MOL    H2742245   1.147   4.181   1.018  1.3393 -0.3381 -4.1708
  210MOL    H2842246   1.319   3.988   1.186  1.4993  1.0475  0.3013
  210MOL    H2942247   1.333   4.216   1.445 -0.5829 -0.7115  1.0873
  210MOL    H3042248   1.353   4.051   1.404  3.0468 -0.1942 -0.4933
  210MOL    H3142249   1.449   4.161   1.311 -0.2077 -0.8672 -1.2217
  210MOL    C3242250   1.103   3.986   1.201 -0.1851  0.2127  0.1604
  210MOL    C3342251   1.123   3.854   1.285 -0.3499 -0.5800  0.6248
  210MOL    O3442252   0.998   3.817   1.337  0.0598  0.4752 -0.0894
  210MOL    C3542253   0.979   3.842   1.476 -0.7081  1.0320 -0.0741
  210MOL    H3642254   1.054   3.960   1.108  0.9894  1.1121 -0.7346
  210MOL    H3742255   1.043   4.058   1.256 -0.6214  2.1454 -2.7523
  210MOL    H3842256   1.190   3.864   1.370  0.3478 -0.2759  0.0476
  210MOL    H3942257   0.987   3.948   1.499  1.6364  0.7951  0.2647
  210MOL    H4042258   0.882   3.808   1.513 -0.7489  2.2882  1.0213
  210MOL    H4142259   1.053   3.790   1.537 -2.1750 -1.1581 -0.0793
  210MOL    C4242260   1.174   3.734   1.202 -0.4086  0.5136 -0.1679
  210MOL    C4342261   1.180   3.600   1.287 -0.0857  0.2121 -0.1769
  210MOL    O4442262   1.221   3.506   1.191 -0.2788 -0.2182 -0.3008
  210MOL    C4542263   1.142   3.380   1.192  0.2709  0.1716 -0.6084
  210MOL    H4642264   1.264   3.757   1.146  0.3908  0.0157  0.8819
  210MOL    H4742265   1.096   3.709   1.130 -0.1040 -1.3159  0.0938
  210MOL    H4842266   1.076   3.572   1.305  0.2451 -0.8548  0.0648
  210MOL    H4942267   1.182   3.298   1.133  1.5047  0.6245 -0.4160
  210MOL    H5042268   1.122   3.338   1.291 -2.1093 -1.8056 -1.8727
  210MOL    H5142269   1.042   3.404   1.155  0.4512  3.0385  0.5964
  210MOL    C5242270   1.278   3.594   1.400  0.0010 -0.1042  0.4963
  210MOL    C5342271   1.430   3.610   1.373 -0.8422  0.2865 -0.0981
  210MOL    O5442272   1.467   3.737   1.308  0.5491  0.2935 -0.6167
  210MOL    C5542273   1.555   3.717   1.200 -0.4544  0.0201 -0.1442
  210MOL    H5642274   1.272   3.494   1.443 -0.3431 -0.6024 -0.6939
  210MOL    H5742275   1.241   3.662   1.477 -1.3277 -0.8847  0.5499
  210MOL    H5842276   1.446   3.533   1.299  0.1434 -0.0239  0.4263
  210MOL    H5942277   1.497   3.652   1.134  1.1176  0.2551 -1.7953
  210MOL    H6042278   1.579   3.810   1.149  0.2518 -0.6882 -1.1219
  210MOL    H6142279   1.646   3.671   1.237 -0.1081 -0.0385 -1.0696
  210MOL    C6242280   1.513   3.588   1.506  0.6021 -0.0854  0.0520
  210MOL    C6342281   1.473   3.478   1.606  0.0050 -0.2520  0.3963
  210MOL    O6442282   1.521   3.354   1.565 -0.1220  0.3236 -0.1173
  210MOL    C6542283   1.430   3.268   1.495 -0.1709  0.1065  0.4206
  210MOL    H6642284   1.519   3.678   1.568 -1.1431 -1.2545  1.9764
  210MOL    H6742285   1.619   3.580   1.483  0.6988 -0.5880  0.6512
  210MOL    H6842286   1.365   3.486   1.616  0.0079  1.8751 -0.9194
  210MOL    H6942287   1.396   3.317   1.404  1.5137 -2.2560 -1.5745
  210MOL    H7042288   1.467   3.166   1.478  0.4212  0.3954 -0.0379
  210MOL    H7142289   1.341   3.240   1.552 -2.0028  0.6618 -2.0509
  210MOL    C7242290   1.511   3.490   1.752 -0.2546  0.0573 -0.9162
  210MOL    C7342291   1.435   3.600   1.842  0.1810  0.7446 -0.8803
  210MOL    O7442292   1.328   3.540   1.925 -0.2600 -0.1033 -0.2379
  210MOL    C7542293   1.387   3.480   2.041  0.1574 -0.1737 -0.4758
  210MOL    H7642294   1.617   3.513   1.752 -0.5676  1.5691 -0.8874
  210MOL    H7742295   1.513   3.391   1.799 -1.2395  0.2420 -0.4683
  210MOL    H7842296   1.378   3.664   1.775 -0.9571  0.0361 -0.6031
  210MOL    H7942297   1.314   3.409   2.079  0.4250 -0.0408  0.3043
  210MOL    H8042298   1.481   3.430   2.017 -0.1992 -0.4113 -1.3895
  210MOL    H8142299   1.403   3.560   2.113  0.2085 -0.6409  0.0359
  210MOL    C8242300   1.537   3.698   1.905 -0.3534  0.5058 -0.3208
  210MOL    C8342301   1.504   3.845   1.965 -0.1980  0.5846 -0.3577
  210MOL    O8442302   1.567   3.866   2.093  0.4977 -0.2222  0.0664
  210MOL    C8542303   1.499   3.823   2.213 -0.4705 -0.1124  0.1611
  210MOL    H8642304   1.612   3.716   1.828  0.0703 -2.8989 -0.7910
  210MOL    H8742305   1.603   3.653   1.979 -0.3516  0.1389 -0.5448
  210MOL    H8842306   1.395   3.848   1.976 -0.3844 -2.6594 -1.0387
  210MOL    H8942307   1.406   3.878   2.204 -0.3774  0.2374  1.2964
  210MOL    H9042308   1.468   3.719   2.222 -0.7421  0.1079  1.8356
  210MOL    H9142309   1.536   3.860   2.309  1.0611  1.0135 -0.8376
  210MOL    C9242310   1.547   3.959   1.875  0.2993 -0.5713 -0.2030
  210MOL    C9342311   1.458   3.980   1.753  0.2080 -0.8674 -0.1357
  210MOL    O9442312   1.317   3.991   1.798  0.1022  0.0850  0.5269
  210MOL    C9542313   1.221   3.990   1.692  0.2963 -0.2744  0.4911
  210MOL    H9642314   1.655   3.956   1.856  0.3242  0.8111 -0.3257
  210MOL    H9742315   1.536   4.043   1.943  1.2640  1.3022 -2.2941
  210MOL    H9842316   1.464   3.898   1.682 -0.8332 -0.4453 -0.7135
  210MOL    H9942317   1.219   4.088   1.644 -0.5749 -1.4613 -2.0212
  210MOL   H10042318   1.246   3.911   1.621 -0.3670  0.0648 -0.1246
  210MOL   H10142319   1.118   3.983   1.729  0.6645 -1.5065  1.3147
  210MOL   C10242320   1.505   4.118   1.687  0.3933 -0.1309  0.2864
  210MOL   C10342321   1.637   4.113   1.614 -0.9937  0.5450  0.1258
  210MOL   O10442322   1.618   4.022   1.508  0.1428  0.4012 -0.3097
  210MOL   C10542323   1.716   3.913   1.501  0.7498 -0.2598  1.0819
  210MOL   H10642324   1.501   4.196   1.762  1.1029  0.4329 -0.2546
  210MOL   H10742325   1.423   4.139   1.618  3.6900 -1.8084 -4.4611
  210MOL   H10842326   1.712   4.083   1.686 -2.1457 -1.2386  0.6173
  210MOL   H10942327   1.816   3.941   1.470 -0.1766  2.6187  0.5268
  210MOL   H11042328   1.725   3.877   1.604 -0.7981 -0.8487  1.0364
  210MOL   H11142329   1.687   3.833   1.432 -0.1955  1.5854 -0.7040
  210MOL   C11242330   1.677   4.242   1.534 -0.7209  0.3335  0.2225
  210MOL   C11342331   1.700   4.373   1.599 -0.0342 -0.2758  0.5255
  210MOL   O11442332   1.785   4.346   1.712  0.0076  0.2538  0.0461
  210MOL   C11542333   1.752   4.418   1.836  0.3224  0.3175 -0.3023
  210MOL   H11642334   1.614   4.266   1.448 -0.7613 -0.9171 -0.1132
  210MOL   H11742335   1.771   4.227   1.481 -1.1621  0.1382 -0.5135
  210MOL   H11842336   1.605   4.403   1.644  0.5686  0.5508  1.2699
  210MOL   H11942337   1.758   4.527   1.835  3.5746  0.1878 -0.2451
  210MOL   H12042338   1.656   4.385   1.875  1.6549 -0.2977  2.5566
  210MOL   H12142339   1.830   4.395   1.908 -0.4295 -2.8372 -0.4424
  210MOL   C12242340   1.772   4.481   1.512 -0.0031  0.2688  0.6067
  210MOL   C12342341   1.704   4.522   1.393 -0.5919  0.2511 -0.1705
  210MOL   O12442342   1.571   4.563   1.426  0.1661 -0.2939 -0.5701
  210MOL   C12542343   1.485   4.547   1.313 -0.0246 -0.0367 -0.4672
  210MOL   H12642344   1.868   4.434   1.490  0.3258  0.5682  1.3916
  210MOL   H12742345   1.801   4.569   1.570 -1.5476  1.3077 -0.1401
  210MOL   H12842346   1.711   4.431   1.333  0.4857 -0.0528  0.4053
  210MOL   H12942347   1.483   4.630   1.243  0.8990 -1.4724 -2.2276
  210MOL   H13042348   1.514   4.459   1.255  1.7036  1.0730 -1.3362
  210MOL   H13142349   1.381   4.527   1.337 -0.2681  0.9813 -0.6526
  210MOL   C13242350   1.766   4.639   1.305 -0.1983  0.0879 -0.2270
  210MOL   C13342351   1.914   4.604   1.270  0.1941 -0.1165  0.9605
  210MOL   O13442352   1.915   4.494   1.179  0.0712  0.2936 -0.0438
  210MOL   C13542353   1.998   4.396   1.219  0.8987 -0.2595 -0.0083
  210MOL   H13642354   1.757   4.728   1.366 -0.7557 -1.1076  1.4794
  210MOL   H13742355   1.722   4.657   1.207 -1.3332  3.3343  0.8158
  210MOL   H13842356   1.970   4.601   1.364  0.1161  3.7338  1.1790
  210MOL   H13942357   2.100   4.433   1.229  0.8038  0.1965 -0.6350
  210MOL   H14042358   1.960   4.347   1.308 -1.5347 -1.4771 -1.6643
  210MOL   H14142359   2.009   4.319   1.143 -2.1578  0.8543 -1.6769
  210MOL   C14242360   1.977   4.724   1.194  0.2695 -0.5501 -0.0033
  210MOL   C14342361   2.006   4.856   1.276 -0.1548  1.0730 -0.3144
  210MOL   O14442362   1.889   4.931   1.305  0.0563 -0.0885 -0.0644
  210MOL   C14542363   1.844   4.985   1.189  0.7622 -0.2404 -0.3982
  210MOL   H14642364   1.918   4.745   1.104  1.4388  0.0818 -0.6353
  210MOL   H14742365   2.071   4.684   1.158 -0.1397 -3.1245  1.6872
  210MOL   H14842366   2.073   4.918   1.217  1.6591  0.8789  1.4985
  210MOL   H14942367   1.781   4.909   1.144 -1.4289  1.9382 -1.0607
  210MOL   H15042368   1.786   5.076   1.201 -1.2643 -1.6431  0.7313
  210MOL   H15142369   1.925   5.004   1.119  1.2633 -0.0145  0.2281
  210MOL   C15242370   2.072   4.826   1.409  0.6284 -0.4400 -0.0855
  210MOL   C15342371   2.221   4.767   1.405  0.3833  0.6770  0.1968
  210MOL   O15442372   2.294   4.841   1.302 -0.2728  0.1483 -0.4426
  210MOL   C15542373   2.397   4.774   1.229 -0.4592  0.3267  0.6779
  210MOL   H15642374   2.010   4.767   1.476  0.8968 -0.0951  0.4692
  210MOL   H15742375   2.082   4.922   1.459 -3.6704  0.8148 -1.4114
  210MOL   H15842376   2.220   4.664   1.369 -0.8317  0.7077  0.1070
  210MOL   H15942377   2.488   4.741   1.279 -0.2651 -0.9484 -0.4783
  210MOL   H16042378   2.350   4.687   1.182  0.4604 -0.0958  0.5276
  210MOL   H16142379   2.438   4.833   1.146 -0.0236 -2.1837 -0.9449
  210MOL   C16242380   2.286   4.773   1.546  0.5918 -0.0340  0.1962
  210MOL   C16342381   2.241   4.660   1.645  0.4186 -0.2137  0.0190
  210MOL   O16442382   2.284   4.544   1.575  0.4747 -0.5047  0.2792
  210MOL   C16542383   2.227   4.423   1.617 -0.2059 -0.8587  1.0523
  210MOL   H16642384   2.251   4.866   1.591  2.8729 -0.0591  2.1219
  210MOL   H16742385   2.394   4.772   1.533  0.9685 -1.6147  2.8910
  210MOL   H16842386   2.132   4.660   1.647  0.4181  2.2866  2.7635
  210MOL   H16942387   2.243   4.392   1.720  1.0552 -0.9963  0.8181
  210MOL   H17042388   2.120   4.423   1.597 -0.0611  1.5401  0.0962
  210MOL   H17142389   2.256   4.339   1.554  1.3124  1.6903 -1.7759
  210MOL   C17242390   2.316   4.675   1.773 -0.4143  0.1266  0.9966
  210MOL   C17342391   2.273   4.800   1.863  0.5314  0.0252 -0.1763
  210MOL   O17442392   2.147   4.745   1.907  0.0229 -0.6258  0.2499
  210MOL   C17542393   2.034   4.806   1.848 -0.0766 -0.5639  0.5924
  210MOL   H17642394   2.421   4.698   1.757 -0.6501 -0.3251 -1.3413
  210MOL   H17742395   2.310   4.585   1.834 -2.0017 -0.5134 -0.0873
  210MOL   H17842396   2.261   4.896   1.813  1.3714  0.6490  0.7897
  210MOL   H17942397   1.950   4.742   1.878 -0.8952  0.5701  0.7614
  210MOL   H18042398   2.003   4.898   1.897 -2.5258 -0.0152 -1.8317
  210MOL   H18142399   2.021   4.819   1.740 -2.6030  2.2285  1.1657
  210MOL   C18242400   2.360   4.825   1.988 -0.2843  0.1799  0.0993
  210MOL   C18342401   2.518   4.845   1.977  0.4033 -0.1227  0.3299
  210MOL   O18442402   2.531   4.923   1.859  0.0996  0.2296 -0.9829
  210MOL   C18542403   2.638   4.885   1.772 -0.2870  0.1523 -0.1153
  210MOL   H18642404   2.353   4.742   2.058  0.5587 -0.5802 -0.7170
  210MOL   H18742405   2.323   4.911   2.043  1.1161  1.4024 -0.8307
  210MOL   H18842406   2.566   4.748   1.962  0.0814 -0.7477  3.0999
  210MOL   H18942407   2.734   4.911   1.817 -0.0277  0.4595 -0.8309
  210MOL   H19042408   2.646   4.777   1.758  1.3375  0.0674  1.2821
  210MOL   H19142409   2.625   4.935   1.676 -0.0792 -0.9972 -0.7557
  210MOL   C19242410   2.585   4.926   2.093 -0.5438 -0.1062 -0.3591
  210MOL   C19342411   2.584   4.856   2.239 -0.5715  1.0303  0.0516
  210MOL   O19442412   2.645   4.937   2.336 -0.1521 -0.1797 -0.8153
  210MOL   C19542413   2.628   4.892   2.469 -0.5625 -0.3706 -0.2056
  210MOL   H19642414   2.522   5.013   2.108 -0.2228  0.4248 -1.9477
  210MOL   H19742415   2.686   4.960   2.073 -0.2547 -0.7085  0.0741
  210MOL   H19842416   2.635   4.759   2.244  0.3100  1.4760 -0.2598
  210MOL   H19942417   2.522   4.875   2.488 -0.8272  0.4904 -0.8761
  210MOL   H20042418   2.686   4.801   2.484 -1.4882 -0.7205  1.4267
  210MOL   H20142419   2.681   4.964   2.532 -0.9776 -1.2142  1.1358
  210MOL   H20242420   2.482   4.846   2.275 -0.4577  1.2748  0.4421
  211MOL     C142421   0.330   7.646   7.369  0.3133 -0.3166  0.0793
  211MOL     C242422   0.229   7.716   7.466 -0.0542  0.1557 -0.1936
  211MOL     O342423   0.254   0.046   7.450 -0.2361 -0.2205  0.6039
  211MOL     C442424   0.364   0.092   7.530 -1.0143  0.5808  0.4207
  211MOL     H542425   0.290   7.553   7.327 -0.0478 -0.6279  1.1058
  211MOL     H642426   0.349   7.713   7.285 -0.5097 -0.4320 -0.2055
  211MOL     H742427   0.228   7.681   7.569 -3.5256  0.3690 -0.0879
  211MOL     H842428   0.414   0.183   7.498  0.1371  0.3791  1.5559
  211MOL     H942429   0.349   0.101   7.638 -1.1538 -1.2794  0.5803
  211MOL    H1042430   0.439   0.013   7.518 -1.0386  0.6793 -0.3760
  211MOL    H1142431   0.427   7.630   7.416  0.3032  1.5248  0.7428
  211MOL    C1242432   0.078   7.692   7.425 -0.0378  0.6412  0.9965
  211MOL    C1342433   0.035   7.544   7.429 -0.2022  0.2332  0.1130
  211MOL    O1442434   0.070   7.486   7.557 -0.1615 -0.0434  0.3877
  211MOL    C1542435   0.082   7.343   7.543 -0.0677 -0.3108 -0.6845
  211MOL    H1642436   0.063   7.734   7.325 -0.5516 -1.6546  0.0706
  211MOL    H1742437   0.018   7.764   7.482 -0.3536 -0.2941  1.8537
  211MOL    H1842438   0.079   7.487   7.348 -0.0619  0.8069 -0.2190
  211MOL    H1942439   0.077   7.290   7.638 -1.7641 -0.5451 -0.9006
  211MOL    H2042440   7.808   7.300   7.490 -1.4693  0.3332  0.9933
  211MOL    H2142441   0.169   7.309   7.486  0.3111 -3.6978  1.7990
  211MOL    C2242442   7.691   7.526   7.400 -0.2301  0.3574  0.9022
  211MOL    C2342443   7.631   7.571   7.264 -0.1852  0.4914  0.6687
  211MOL    O2442444   7.622   7.458   7.182 -0.1509 -0.0394  0.5558
  211MOL    C2542445   7.634   7.490   7.038 -0.3417  0.1973  0.1324
  211MOL    H2642446   7.651   7.588   7.480 -2.9777 -0.1609 -0.0070
  211MOL    H2742447   7.661   7.428   7.437  2.2651 -0.2136  1.5097
  211MOL    H2842448   7.711   7.636   7.229 -1.1162  1.1671 -0.2182
  211MOL    H2942449   7.575   7.412   6.990  1.3756 -1.5104  0.7091
  211MOL    H3042450   7.600   7.592   7.022 -0.7300  0.4127  2.1422
  211MOL    H3142451   7.743   7.483   7.033 -0.1525 -0.0141  3.5561
  211MOL    C3242452   7.496   7.645   7.278 -1.4946 -0.7595  0.0451
  211MOL    C3342453   7.504   7.789   7.318 -0.0050  0.0989  0.1602
  211MOL    O3442454   7.578   0.040   7.225 -0.1380  0.2590 -0.0238
  211MOL    C3542455   7.658   0.148   7.271  0.0521 -0.0640 -0.2624
  211MOL    H3642456   7.435   7.599   7.355 -0.6318 -1.9153  0.0471
  211MOL    H3742457   7.435   7.645   7.188  0.5520 -1.2701 -1.3827
  211MOL    H3842458   7.553   7.798   7.415 -1.9296  0.2534  1.1532
  211MOL    H3942459   7.736   0.114   7.339  0.9501  2.1212 -0.1593
  211MOL    H4042460   7.714   0.190   7.187  1.8516 -3.5770 -0.9068
  211MOL    H4142461   7.605   0.224   7.327 -1.4451 -1.1057 -0.2466
  211MOL    C4242462   7.371   0.053   7.344 -0.4526  0.0013 -0.2980
  211MOL    C4342463   7.256   0.045   7.244 -0.1121 -0.2713 -0.0592
  211MOL    O4442464   7.135   0.074   7.312 -0.2610 -0.1365 -0.3482
  211MOL    C4542465   7.021   0.005   7.268 -0.3444  0.1657  0.1746
  211MOL    H4642466   7.385   0.160   7.355  1.1319  0.0091 -2.0356
  211MOL    H4742467   7.323   0.014   7.433 -1.1613 -1.2493 -1.2038
  211MOL    H4842468   7.255   7.754   7.204  0.6064 -0.8829  1.4595
  211MOL    H4942469   6.976   0.042   7.176 -1.1439  0.2781  0.6055
  211MOL    H5042470   7.040   7.710   7.248  2.6380  0.6520  0.2183
  211MOL    H5142471   6.943   0.011   7.344 -1.7978 -0.1197 -1.2667
  211MOL    C5242472   7.264   0.130   7.117  0.8005 -0.6831  0.7024
  211MOL    C5342473   7.321   0.063   6.985 -0.2092 -0.7953 -0.0821
  211MOL    O5442474   7.252   7.753   6.950 -0.3535 -0.4022  0.4096
  211MOL    C5542475   7.310   7.678   6.847 -0.3578 -0.0423  0.4116
  211MOL    H5642476   7.320   0.219   7.144  0.4353  0.0706 -0.9845
  211MOL    H5742477   7.162   0.157   7.091  1.3346  0.9645  0.3231
  211MOL    H5842478   7.427   0.044   7.002 -0.3461 -0.2391  1.4466
  211MOL    H5942479   7.260   7.582   6.833 -0.3736 -0.2569  1.9199
  211MOL    H6042480   7.304   7.732   6.752  1.9116  0.8848  0.7629
  211MOL    H6142481   7.410   7.645   6.874  0.5419  0.9991 -1.4834
  211MOL    C6242482   7.326   0.159   6.859  0.5756 -0.0040  0.6151
  211MOL    C6342483   7.348   0.311   6.871  0.3324 -0.1607  0.5809
  211MOL    O6442484   7.484   0.343   6.879 -0.2130 -1.1953 -0.0195
  211MOL    C6542485   7.554   0.319   7.002 -0.2937  0.0548  0.0215
  211MOL    H6642486   7.232   0.149   6.804  0.3088 -0.7985  1.1989
  211MOL    H6742487   7.408   0.125   6.796 -1.4532 -0.2985 -1.9685
  211MOL    H6842488   7.301   0.358   6.958  2.0957  1.7274  0.5677
  211MOL    H6942489   7.587   0.216   7.013 -0.9798  0.0123  1.9547
  211MOL    H7042490   7.646   0.377   7.012 -0.8378  1.6751 -3.6209
  211MOL    H7142491   7.499   0.353   7.090  2.9168  1.1529  1.7097
  211MOL    C7242492   7.301   0.384   6.748  0.6287  0.1204 -0.7120
  211MOL    C7342493   7.327   0.535   6.752 -0.1066  0.2431 -0.0059
  211MOL    O7442494   7.261   0.584   6.634 -0.5347  0.1917 -0.3986
  211MOL    C7542495   7.350   0.675   6.571  0.1719 -0.5427 -0.2147
  211MOL    H7642496   7.195   0.366   6.731  0.5102 -1.5344  1.5849
  211MOL    H7742497   7.351   0.347   6.659  2.4284  1.8387 -0.4632
  211MOL    H7842498   7.436   0.547   6.752 -0.1402  0.5562  0.5513
  211MOL    H7942499   7.292   0.722   6.492 -2.0047 -1.7984  0.6156
  211MOL    H8042500   7.405   0.754   6.623 -1.1321 -0.6965  1.4589
  211MOL    H8142501   7.415   0.610   6.513  1.9179  0.1604  0.9076
  211MOL    C8242502   7.271   0.611   6.879 -0.0896  0.2593  0.3659
  211MOL    C8342503   7.125   0.579   6.918 -0.3802  0.1191 -0.5246
  211MOL    O8442504   7.136   0.518   7.047 -0.2926 -0.5838  0.8163
  211MOL    C8542505   7.033   0.425   7.071 -0.2380  0.1915 -0.0747
  211MOL    H8642506   7.287   0.718   6.867 -1.0022  0.3507 -0.0468
  211MOL    H8742507   7.339   0.587   6.960  2.8716  0.6989 -1.9135
  211MOL    H8842508   7.076   0.515   6.844  1.5937  0.0000 -1.7618
  211MOL    H8942509   6.940   0.472   7.103 -0.0584  0.7108 -0.3109
  211MOL    H9042510   7.031   0.356   6.987  0.0935 -0.1757  0.2180
  211MOL    H9142511   7.064   0.362   7.154  0.8474 -0.1546 -0.7231
  211MOL    C9242512   7.043   0.703   6.924  0.4116 -0.6460 -0.0465
  211MOL    C9342513   7.005   0.763   6.791  0.0234  0.1962  0.1611
  211MOL    O9442514   6.885   0.692   6.753  0.2467 -0.1227  0.0639
  211MOL    C9542515   6.888   0.663   6.612  0.3236 -0.3234 -0.0741
  211MOL    H9642516   7.107   0.773   6.979  0.4144  0.7783 -1.8190
  211MOL    H9742517   6.953   0.688   6.984  0.4738 -0.3135  0.1363
  211MOL    H9842518   7.088   0.750   6.721  0.0516 -0.4399  0.3070
  211MOL    H9942519   6.967   0.591   6.594 -0.3487 -1.4290  1.2581
  211MOL   H10042520   6.798   0.609   6.582 -0.4988  1.4320 -0.8790
  211MOL   H10142521   6.909   0.746   6.543  1.0615 -0.3711  0.0891
  211MOL   C10242522   6.978   0.910   6.802 -0.4555 -0.4604  0.4068
  211MOL   C10342523   7.104   1.007   6.793  0.2112  0.0161 -0.1211
  211MOL   O10442524   7.168   0.987   6.667 -0.6315  0.0453  0.0320
  211MOL   C10542525   7.307   1.024   6.679 -0.1623 -0.6421  0.1599
  211MOL   H10642526   6.900   0.935   6.874 -0.6976  1.5363 -0.5124
  211MOL   H10742527   6.915   0.939   6.718 -0.1176 -0.6998  0.0708
  211MOL   H10842528   7.178   0.981   6.869  0.7791  0.4649 -0.5121
  211MOL   H10942529   7.361   0.997   6.589 -1.4400  2.1950 -1.5304
  211MOL   H11042530   7.319   1.132   6.686 -1.1752 -0.4355 -1.1031
  211MOL   H11142531   7.362   0.976   6.760  0.5451 -0.0478  0.0404
  211MOL   C11242532   7.049   1.157   6.813  0.5024  1.1185  0.6181
  211MOL   C11342533   7.012   1.188   6.965 -0.6660  0.1420  0.0561
  211MOL   O11442534   7.137   1.186   7.019  0.1285  0.5124 -0.3292
  211MOL   C11542535   7.142   1.158   7.157 -0.1009 -0.0525  0.6936
  211MOL   H11642536   6.967   1.185   6.747 -0.5037 -1.7236  0.6122
  211MOL   H11742537   7.130   1.222   6.780  1.1480 -0.8154 -1.7570
  211MOL   H11842538   6.949   1.110   7.010 -1.1006  1.5647  1.9447
  211MOL   H11942539   7.063   1.214   7.207  0.5962  1.1003  0.4935
  211MOL   H12042540   7.119   1.053   7.178  2.1879 -0.9908 -1.3153
  211MOL   H12142541   7.237   1.173   7.207 -1.3581 -0.2933  3.2495
  211MOL   C12242542   6.939   1.319   6.989  0.2757  0.0249 -0.3478
  211MOL   C12342543   6.799   1.319   6.922 -0.1464  1.1326 -0.1389
  211MOL   O12442544   6.733   1.196   6.960 -0.2360 -0.0019  0.2951
  211MOL   C12542545   6.651   1.133   6.860  0.0773 -0.6024  0.5496
  211MOL   H12642546   6.992   1.406   6.950 -1.1036  1.2802  0.4998
  211MOL   H12742547   6.929   1.330   7.097 -1.6658  0.2082 -0.5258
  211MOL   H12842548   6.806   1.312   6.813  2.9048 -1.3285  0.1192
  211MOL   H12942549   6.577   1.210   6.837  1.4367  0.2996 -0.8902
  211MOL   H13042550   6.710   1.090   6.779 -4.3211 -3.2655 -1.4348
  211MOL   H13142551   6.593   1.051   6.902 -0.1004 -0.2201  1.0496
  211MOL   C13242552   6.708   1.437   6.968 -0.1025 -0.8633  0.4183
  211MOL   C13342553   6.754   1.568   6.896  0.2195 -0.4792 -0.5535
  211MOL   O13442554   6.764   1.540   6.760 -0.3528  0.4953 -0.2023
  211MOL   C13542555   6.891   1.564   6.705  0.1947 -0.3052 -0.0559
  211MOL   H13642556   6.702   1.460   7.075  2.2268  1.7844  0.0396
  211MOL   H13742557   6.603   1.421   6.946  0.2921 -1.2666 -1.2532
  211MOL   H13842558   6.843   1.608   6.945 -0.8957 -2.0287  2.9025
  211MOL   H13942559   6.912   1.671   6.709  1.8029 -0.5352 -1.6820
  211MOL   H14042560   6.973   1.519   6.761  0.6055 -0.3377 -0.6780
  211MOL   H14142561   6.883   1.538   6.600  1.6881  0.1735 -0.3078
  211MOL   C14242562   6.643   1.678   6.902 -0.9782  0.1694 -0.2056
  211MOL   C14342563   6.610   1.738   7.039  0.2803  0.2685  0.0244
  211MOL   O14442564   6.541   1.644   7.118 -0.8402 -0.7402 -0.3245
  211MOL   C14542565   6.401   1.642   7.096  0.1327  0.7853  0.1385
  211MOL   H14642566   6.554   1.641   6.852 -0.0652  0.0192 -1.7611
  211MOL   H14742567   6.680   1.763   6.844 -0.3508 -0.1790 -0.3165
  211MOL   H14842568   6.543   1.822   7.018 -1.0038 -0.2977  1.7536
  211MOL   H14942569   6.353   1.726   7.146 -3.2711 -0.8158 -0.2882
  211MOL   H15042570   6.373   1.650   6.991  0.1372  1.0880  0.1598
  211MOL   H15142571   6.360   1.547   7.129 -0.3378  1.5899  1.8924
  211MOL   C15242572   6.733   1.776   7.125  0.3556 -0.0067  0.1223
  211MOL   C15342573   6.713   1.892   7.231  0.0200  0.1247 -0.3192
  211MOL   O15442574   6.664   2.006   7.160 -0.7639  0.0010 -0.2882
  211MOL   C15542575   6.754   2.077   7.082 -1.0373 -0.5793  0.5419
  211MOL   H15642576   6.799   1.810   7.046 -1.3650 -0.4565 -1.5511
  211MOL   H15742577   6.784   1.691   7.169 -0.1982 -0.5784 -0.3258
  211MOL   H15842578   6.807   1.915   7.282  0.3377  0.4070 -1.0274
  211MOL   H15942579   6.847   2.096   7.137 -1.4543 -1.8926  1.7383
  211MOL   H16042580   6.784   2.016   6.998 -1.2231  0.5045 -0.3197
  211MOL   H16142581   6.705   2.170   7.051  0.6455  0.6705  1.5204
  211MOL   C16242582   6.621   1.856   7.353  1.1845 -0.0175  0.1525
  211MOL   C16342583   6.647   1.938   7.483  0.5735 -0.0736 -0.4749
  211MOL   O16442584   6.779   1.900   7.531 -0.2274 -0.1158 -0.3812
  211MOL   C16542585   6.803   1.770   7.576 -1.0302 -0.1756 -0.6815
  211MOL   H16642586   6.624   1.748   7.368  1.5175  0.1257  1.1743
  211MOL   H16742587   6.520   1.870   7.314  0.8860 -2.7449 -0.1683
  211MOL   H16842588   6.580   1.907   7.563  0.5069 -1.3798 -1.0257
  211MOL   H16942589   6.742   1.758   7.665 -0.4510  1.1533 -0.0931
  211MOL   H17042590   6.772   1.697   7.501  1.1214  0.1350 -1.9163
  211MOL   H17142591   6.907   1.757   7.604 -0.5763  2.7809 -0.8154
  211MOL   C17242592   6.646   2.091   7.467 -0.5208  0.4688  0.1319
  211MOL   C17342593   6.520   2.160   7.409  0.1509 -0.1715 -0.0988
  211MOL   O17442594   6.410   2.126   7.487  0.4556 -0.2498 -0.2654
  211MOL   C17542595   6.325   2.033   7.429 -0.4627  0.2989  0.3001
  211MOL   H17642596   6.732   2.128   7.412  0.0379  0.2119  0.8320
  211MOL   H17742597   6.642   2.134   7.567  1.0949  0.3668  0.2554
  211MOL   H17842598   6.507   2.141   7.302 -1.4136  0.9597 -0.1398
  211MOL   H17942599   6.237   2.037   7.493 -0.7285  0.6777 -0.0839
  211MOL   H18042600   6.300   2.056   7.325 -3.5136 -0.6223  0.7855
  211MOL   H18142601   6.362   1.931   7.419  2.5806  1.1718  1.9640
  211MOL   C18242602   6.530   2.316   7.434  0.5791 -0.9288  0.1944
  211MOL   C18342603   6.412   2.390   7.361  0.4231  0.4712  0.8975
  211MOL   O18442604   6.408   2.517   7.419  0.0778  0.4415  0.9202
  211MOL   C18542605   6.286   2.598   7.396 -0.1085 -0.0197  0.1933
  211MOL   H18642606   6.634   2.347   7.421  1.6042 -3.6858  1.3827
  211MOL   H18742607   6.532   2.329   7.542  0.8521 -1.2324  0.2278
  211MOL   H18842608   6.321   2.343   7.400 -0.4975  1.6578  0.2396
  211MOL   H18942609   6.201   2.531   7.382 -0.0550  0.0805 -0.6273
  211MOL   H19042610   6.278   2.669   7.478  1.8654  1.0313 -0.5013
  211MOL   H19142611   6.291   2.661   7.307  0.6176 -0.3997 -0.0391
  211MOL   C19242612   6.398   2.385   7.204  0.1110 -0.0336  0.2822
  211MOL   C19342613   6.524   2.425   7.124 -0.3884 -0.5343 -0.1801
  211MOL   O19442614   6.486   2.419   6.988  0.7743 -0.2335  0.3478
  211MOL   C19542615   6.598   2.429   6.890 -0.0513  0.7137  0.0304
  211MOL   H19642616   6.311   2.445   7.178  0.9275  1.2145  0.3607
  211MOL   H19742617   6.370   2.283   7.180  1.0812 -0.1049 -0.5925
  211MOL   H19842618   6.607   2.356   7.138  1.8658  1.7044 -1.9979
  211MOL   H19942619   6.677   2.361   6.923  1.1331  0.9624 -2.1934
  211MOL   H20042620   6.566   2.422   6.786 -2.5909  0.2407  0.8214
  211MOL   H20142621   6.632   2.533   6.891 -1.0201  1.0453 -0.6638
  211MOL   H20242622   6.550   2.529   7.145  1.3889 -1.0964  0.3903
  212MOL     C142623   7.577   4.972   6.443 -0.0590 -0.5378 -0.1535
  212MOL     C242624   7.666   5.095   6.429  1.0952 -0.0759  0.0248
  212MOL     O342625   7.793   5.057   6.462 -0.2874  0.2410  0.2156
  212MOL     C442626   0.015   5.076   6.603  0.4411 -0.2496  0.4905
  212MOL     H542627   7.479   4.994   6.401  0.4344 -2.1987 -2.2520
  212MOL     H642628   7.625   4.894   6.382  0.1754 -0.4466 -0.0871
  212MOL     H742629   7.620   5.167   6.496  2.2125 -0.0880  0.8207
  212MOL     H842630   0.024   5.183   6.625  2.8417 -0.3183 -0.0180
  212MOL     H942631   7.758   5.039   6.680  0.8758  0.6769  1.3369
  212MOL    H1042632   0.112   5.029   6.615  1.2466  0.7736 -1.8230
  212MOL    H1142633   7.571   4.947   6.549 -1.5819  0.1792 -0.0677
  212MOL    C1242634   7.669   5.152   6.286 -0.8950 -0.5145  0.3301
  212MOL    C1342635   7.550   5.245   6.247  0.0236  0.8252  0.4246
  212MOL    O1442636   7.552   5.361   6.329  0.0108 -0.1553 -0.3461
  212MOL    C1542637   7.426   5.436   6.319  0.2723  0.5028 -0.4181
  212MOL    H1642638   7.673   5.061   6.227  0.1431 -0.4947  0.3602
  212MOL    H1742639   7.766   5.199   6.271 -1.1551 -0.0632  0.0507
  212MOL    H1842640   7.459   5.189   6.269  1.2372 -0.2067  3.0062
  212MOL    H1942641   7.436   5.524   6.383  0.2815  1.2023 -1.3866
  212MOL    H2042642   7.400   5.460   6.216  1.3015 -1.5521 -1.1829
  212MOL    H2142643   7.347   5.378   6.366  0.6915 -1.0000 -1.5288
  212MOL    C2242644   7.551   5.269   6.094 -0.4943 -0.6263 -0.0699
  212MOL    C2342645   7.483   5.153   6.013  0.4225  0.0722 -0.2039
  212MOL    O2442646   7.351   5.145   6.063  0.3625  0.2289  0.8944
  212MOL    C2542647   7.305   5.015   6.082  0.6155 -0.1226 -0.2242
  212MOL    H2642648   7.654   5.279   6.061 -0.9714 -1.1633 -1.7571
  212MOL    H2742649   7.497   5.357   6.059  1.0553  0.2821 -0.2465
  212MOL    H2842650   7.544   5.066   6.037  1.5385  1.0592  0.6235
  212MOL    H2942651   7.284   4.963   5.988 -0.4293 -0.7762  0.3630
  212MOL    H3042652   7.371   4.958   6.148  0.5718  2.2808  1.9373
  212MOL    H3142653   7.204   5.009   6.122  0.4604 -0.5364 -0.6693
  212MOL    C3242654   7.487   5.163   5.860 -0.2524  0.4793  0.1152
  212MOL    C3342655   7.448   5.296   5.797  0.2415 -0.2573  0.2906
  212MOL    O3442656   7.479   5.286   5.659  0.2581 -0.7887  0.5615
  212MOL    C3542657   7.512   5.405   5.589 -0.2827  0.1845  0.1265
  212MOL    H3642658   7.428   5.088   5.807 -0.1131 -1.0532  2.0921
  212MOL    H3742659   7.593   5.147   5.839  0.1609  0.6033  2.0203
  212MOL    H3842660   7.512   5.377   5.832  1.6501 -1.4810  0.5367
  212MOL    H3942661   7.508   5.403   5.481  1.0772 -0.6185  0.0706
  212MOL    H4042662   7.451   5.488   5.624 -0.4214  0.4179 -0.6737
  212MOL    H4142663   7.615   5.432   5.611 -0.0180  0.2504 -1.2066
  212MOL    C4242664   7.299   5.341   5.826 -0.0628 -0.7283  0.0602
  212MOL    C4342665   7.182   5.247   5.776 -0.7008 -0.1913  0.0361
  212MOL    O4442666   7.063   5.291   5.835  0.3872 -0.2296 -0.5603
  212MOL    C4542667   7.039   5.242   5.965 -0.6970 -0.5462  0.9097
  212MOL    H4642668   7.280   5.439   5.783 -1.2689 -0.3859  1.3327
  212MOL    H4742669   7.304   5.351   5.934 -2.1878 -1.4969  0.2535
  212MOL    H4842670   7.196   5.145   5.814 -1.3484 -0.1597  0.3627
  212MOL    H4942671   7.002   5.140   5.973 -0.5218 -0.5951  1.1004
  212MOL    H5042672   7.134   5.247   6.018  1.7886  0.8757 -3.4556
  212MOL    H5142673   6.964   5.304   6.013 -0.3334  0.3176  0.3586
  212MOL    C5242674   7.157   5.249   5.622  0.1077 -0.0117 -0.3165
  212MOL    C5342675   7.045   5.155   5.575  0.7665  0.5410 -0.6656
  212MOL    O5442676   7.002   5.206   5.448 -0.1062 -0.1747 -0.2036
  212MOL    C5542677   6.879   5.163   5.408  0.4233  0.7997 -0.0005
  212MOL    H5642678   7.252   5.224   5.576  0.5207 -1.1023  1.1134
  212MOL    H5742679   7.127   5.353   5.608 -0.9250  0.0250  2.0583
  212MOL    H5842680   6.961   5.176   5.641  0.4544 -0.2857 -0.7948
  212MOL    H5942681   6.848   5.225   5.324  0.6459 -0.1844 -0.8079
  212MOL    H6042682   6.877   5.062   5.369  0.7084  0.2179  1.4532
  212MOL    H6142683   6.804   5.166   5.487 -0.9421 -1.5152 -1.1545
  212MOL    C6242684   7.082   5.003   5.568  0.3205 -0.1669 -0.4946
  212MOL    C6342685   7.232   4.968   5.533  0.1220 -0.5760 -0.0542
  212MOL    O6442686   7.251   4.829   5.571  0.3174 -0.7290  0.0538
  212MOL    C6542687   7.281   4.802   5.707 -0.0178 -0.0106 -0.0294
  212MOL    H6642688   7.014   4.948   5.502 -0.2953 -0.9997  0.8119
  212MOL    H6742689   7.057   4.968   5.668 -0.4004  0.8452 -0.3180
  212MOL    H6842690   7.312   5.013   5.593 -0.9718 -0.2685  1.1931
  212MOL    H6942691   7.380   4.838   5.732  0.5486  1.1998 -3.6766
  212MOL    H7042692   7.207   4.842   5.777  1.8871  0.4593  1.7667
  212MOL    H7142693   7.286   4.694   5.714  2.8414 -0.0621 -2.0764
  212MOL    C7242694   7.265   4.979   5.386 -0.2276 -0.6759 -0.5738
  212MOL    C7342695   7.411   4.972   5.344  0.1915 -0.2040  0.0759
  212MOL    O7442696   7.433   4.973   5.205  0.0222  0.5386 -0.3608
  212MOL    C7542697   7.389   4.852   5.142  0.0637 -0.2888 -0.1027
  212MOL    H7642698   7.235   5.077   5.350 -0.1976 -0.4751 -0.0607
  212MOL    H7742699   7.196   4.908   5.341 -0.1661  1.4518 -4.1460
  212MOL    H7842700   7.440   4.878   5.390  0.8659  0.6894  1.5137
  212MOL    H7942701   7.282   4.830   5.145  0.5946 -3.4055 -1.5515
  212MOL    H8042702   7.401   4.868   5.035 -1.3818 -0.3601 -0.2963
  212MOL    H8142703   7.434   4.759   5.177  0.4588 -0.2509 -0.5070
  212MOL    C8242704   7.495   5.090   5.396 -0.4431 -0.2827 -0.0134
  212MOL    C8342705   7.640   5.089   5.344  0.4033 -0.2576  0.1487
  212MOL    O8442706   7.703   5.217   5.357 -0.5469 -0.0381  0.1373
  212MOL    C8542707   7.670   5.312   5.255 -0.1550 -0.5733 -0.2568
  212MOL    H8642708   7.503   5.077   5.504  1.8907  0.8041 -0.0220
  212MOL    H8742709   7.440   5.180   5.372  1.8027  0.7918 -1.2790
  212MOL    H8842710   7.633   5.073   5.237  0.8105  0.5588 -0.0040
  212MOL    H8942711   7.716   5.405   5.286 -1.0885 -0.5793  1.2401
  212MOL    H9042712   7.701   5.288   5.154 -0.6075  0.3327 -0.6145
  212MOL    H9142713   7.562   5.328   5.266  0.4184  3.6003  0.0378
  212MOL    C9242714   7.737   4.986   5.423 -0.1501 -1.0534 -0.1040
  212MOL    C9342715   0.056   4.962   5.338 -0.5654 -0.5265 -0.0082
  212MOL    O9442716   0.138   4.888   5.427  0.6518 -0.3767  0.0014
  212MOL    C9542717   0.256   4.952   5.465  0.4289  0.1053  0.2021
  212MOL    H9642718   7.694   4.888   5.443 -0.2680 -0.4687  2.7399
  212MOL    H9742719   7.773   5.024   5.519 -1.6937  0.4968 -0.1186
  212MOL    H9842720   0.097   5.057   5.305  2.7229 -2.0677 -0.6179
  212MOL    H9942721   0.242   5.056   5.493  1.4637  0.3591 -0.1927
  212MOL   H10042722   0.309   4.904   5.547  1.4366  1.5509  0.4023
  212MOL   H10142723   0.333   4.956   5.388  0.4329  0.1076  0.2070
  212MOL   C10242724   0.029   4.868   5.218  0.2407  0.0186  0.1661
  212MOL   C10342725   0.144   4.873   5.113 -0.2743  0.1644  0.2679
  212MOL   O10442726   0.115   4.791   5.006 -0.3003  0.5312  0.6632
  212MOL   C10542727   0.174   4.660   5.013  0.0862 -0.0444 -0.2317
  212MOL   H10642728   7.747   4.895   5.167  0.2371 -1.5184 -0.6534
  212MOL   H10742729   0.017   4.772   5.267 -1.6115 -0.8870 -1.9814
  212MOL   H10842730   0.236   4.841   5.163  1.7762  3.0517 -1.5166
  212MOL   H10942731   0.144   4.596   4.930 -2.2561 -1.4267  1.6204
  212MOL   H11042732   0.282   4.672   5.011  0.0620  0.1604 -0.4093
  212MOL   H11142733   0.131   4.618   5.103 -0.6580  0.6721 -0.2483
  212MOL   C11242734   0.174   5.005   5.036 -0.0151  0.0598  0.6023
  212MOL   C11342735   0.301   5.001   4.938 -1.4845  0.2087 -0.3868
  212MOL   O11442736   0.265   5.052   4.813  0.3275 -0.0491 -0.2117
  212MOL   C11542737   0.206   4.972   4.720 -0.3103  0.0416 -0.0548
  212MOL   H11642738   0.192   5.085   5.107 -0.0284  0.7093 -0.1262
  212MOL   H11742739   0.084   5.025   4.980  1.0813 -0.6170 -1.4580
  212MOL   H11842740   0.344   4.901   4.925  0.7789  1.1081 -0.0936
  212MOL   H11942741   0.272   4.885   4.708  0.9383  1.2343 -1.9867
  212MOL   H12042742   0.120   4.913   4.753  0.5128 -1.0481  0.2025
  212MOL   H12142743   0.183   5.022   4.626 -1.1302  0.0703  0.1581
  212MOL   C12242744   0.405   5.099   4.984 -0.6777 -0.0144  0.0481
  212MOL   C12342745   0.486   5.031   5.090 -0.1820 -0.9876  0.4866
  212MOL   O12442746   0.568   4.941   5.021 -0.0097 -0.0150  0.4211
  212MOL   C12542747   0.624   4.829   5.095 -0.2590 -0.0669 -0.4043
  212MOL   H12642748   0.374   5.193   5.030 -1.6125 -0.4565  0.3303
  212MOL   H12742749   0.468   5.122   4.898  1.8472  0.2180  1.9375
  212MOL   H12842750   0.425   4.974   5.161 -0.6248 -1.7108 -0.4681
  212MOL   H12942751   0.644   4.859   5.198 -0.9279  0.1240 -0.3243
  212MOL   H13042752   0.548   4.755   5.121  0.3897  0.0102  1.8362
  212MOL   H13142753   0.706   4.775   5.047 -1.4113 -1.4006 -0.9385
  212MOL   C13242754   0.569   5.128   5.173 -1.0446 -1.1500 -0.1006
  212MOL   C13342755   0.690   5.204   5.108  0.1733  0.2206  0.2600
  212MOL   O13442756   0.727   5.313   5.192 -0.2082  0.5105  0.4425
  212MOL   C13542757   0.640   5.426   5.174  0.0536 -0.4939  0.4212
  212MOL   H13642758   0.601   5.073   5.262  1.1195 -1.4646 -1.0440
  212MOL   H13742759   0.505   5.198   5.227 -2.3793 -1.1924 -1.5938
  212MOL   H13842760   0.658   5.251   5.015  1.9596  2.0553  0.5257
  212MOL   H13942761   0.634   5.473   5.076 -0.1162  2.0419  1.6112
  212MOL   H14042762   0.536   5.402   5.194 -0.1636 -0.3238 -0.4661
  212MOL   H14142763   0.676   5.508   5.237  0.5398  0.4425 -1.0506
  212MOL   C14242764   0.819   5.125   5.104  0.8796  0.1346  0.3392
  212MOL   C14342765   0.925   5.192   5.012 -0.1919  0.1077 -0.6395
  212MOL   O14442766   1.048   5.155   5.070 -0.2908 -0.0756  0.8120
  212MOL   C14542767   1.118   5.251   5.149  0.2510  0.2611 -0.0922
  212MOL   H14642768   0.799   5.022   5.073  0.3132  0.4642 -0.4028
  212MOL   H14742769   0.854   5.105   5.205 -0.8775 -0.5477  0.8322
  212MOL   H14842770   0.910   5.300   5.019 -1.8647 -0.1870  0.5803
  212MOL   H14942771   1.043   5.308   5.204 -0.7509 -0.1308 -1.0434
  212MOL   H15042772   1.188   5.207   5.221  0.9279  0.4462 -0.6376
  212MOL   H15142773   1.175   5.312   5.079  1.4103  0.2376  0.7964
  212MOL   C15242774   0.926   5.138   4.871  0.1787  0.3795  0.3185
  212MOL   C15342775   1.041   5.198   4.785 -0.0073 -0.1333 -0.4913
  212MOL   O15442776   1.056   5.127   4.661 -0.1581  0.0338  0.3221
  212MOL   C15542777   1.183   5.093   4.616 -0.9164 -0.0024  0.6076
  212MOL   H15642778   0.827   5.146   4.828 -0.2656  0.8843  1.4200
  212MOL   H15742779   0.944   5.031   4.880  0.6698  0.3532 -0.8161
  212MOL   H15842780   1.137   5.197   4.836  0.6689  0.5583 -1.7358
  212MOL   H15942781   1.164   5.052   4.517  2.6084  1.6032 -0.8302
  212MOL   H16042782   1.253   5.176   4.613 -0.0882 -0.5864  3.0416
  212MOL   H16142783   1.237   5.018   4.674 -1.9077  0.3842  2.0505
  212MOL   C16242784   1.025   5.344   4.742 -0.2054  0.3843 -0.2072
  212MOL   C16342785   0.894   5.385   4.675 -0.1578 -0.1733 -0.0664
  212MOL   O16442786   0.866   5.529   4.686  0.1949 -0.3981  0.3911
  212MOL   C16542787   0.813   5.564   4.816  0.2997  0.0501  0.2951
  212MOL   H16642788   1.106   5.372   4.675  1.1868 -0.5222  1.0648
  212MOL   H16742789   1.034   5.416   4.823  1.9924 -0.0832 -0.0063
  212MOL   H16842790   0.813   5.336   4.729 -0.0119  2.0304  2.2600
  212MOL   H16942791   0.894   5.566   4.889  0.1251 -1.5694  0.5518
  212MOL   H17042792   0.763   5.661   4.816  1.7895  0.8691 -1.6637
  212MOL   H17142793   0.739   5.496   4.858  0.7799  0.2349  1.4584
  212MOL   C17242794   0.888   5.347   4.520 -0.8562 -0.8249  0.0208
  212MOL   C17342795   1.000   5.397   4.425 -0.0833  0.0171 -0.0547
  212MOL   O17442796   0.961   5.341   4.302  0.4944 -0.0982 -0.1294
  212MOL   C17542797   0.992   5.199   4.280  0.6782 -0.8247 -0.7588
  212MOL   H17642798   0.800   5.392   4.474  0.0901  2.3743  1.1925
  212MOL   H17742799   0.873   5.239   4.516  1.1323 -1.1774  1.4039
  212MOL   H17842800   1.102   5.365   4.443  0.1537  0.5014 -0.5049
  212MOL   H17942801   1.089   5.183   4.327  0.8138 -0.3684 -0.8872
  212MOL   H18042802   0.922   5.127   4.322  0.0347 -0.5208 -1.3176
  212MOL   H18142803   1.002   5.176   4.174  0.2731 -2.6367 -0.4313
  212MOL   C18242804   0.992   5.551   4.422  0.2844 -0.5495  0.0026
  212MOL   C18342805   1.077   5.613   4.311 -0.2943  0.0635  0.5482
  212MOL   O18442806   1.039   5.745   4.276  0.2076 -0.4538 -0.0753
  212MOL   C18542807   0.942   5.753   4.170  0.0134  0.1816 -0.2259
  212MOL   H18642808   1.022   5.595   4.517  1.7345  1.4132 -1.3288
  212MOL   H18742809   0.887   5.576   4.412  0.2174 -0.5813  0.6173
  212MOL   H18842810   1.066   5.542   4.229  2.3422 -0.0306  0.2396
  212MOL   H18942811   0.987   5.738   4.072 -1.1788  1.6467 -1.0181
  212MOL   H19042812   0.874   5.668   4.172  1.7986 -1.2734  0.1578
  212MOL   H19142813   0.893   5.850   4.158 -0.2353  0.4007  2.2366
  212MOL   C19242814   1.224   5.612   4.341  0.4227  0.0204  0.0839
  212MOL   C19342815   1.317   5.660   4.231 -0.0543 -0.4819  0.1088
  212MOL   O19442816   1.316   5.586   4.112  0.1611 -0.3128  0.4171
  212MOL   C19542817   1.398   5.635   4.015 -0.3951  0.0322 -0.1832
  212MOL   H19642818   1.258   5.515   4.377 -1.8740  0.0730  2.5975
  212MOL   H19742819   1.232   5.676   4.429 -0.9923 -0.6906  0.7529
  212MOL   H19842820   1.417   5.660   4.275  0.0492 -0.5589 -0.1248
  212MOL   H19942821   1.352   5.725   3.974 -0.8761  1.8484  4.0700
  212MOL   H20042822   1.501   5.650   4.049  0.6107 -1.2507 -2.5213
  212MOL   H20142823   1.404   5.567   3.930 -1.3375 -1.7204  1.1365
  212MOL   H20242824   1.307   5.767   4.214 -0.7470 -0.1538  2.3651
  213MOL     C142825   1.257   2.830   0.033 -0.1564 -0.5608 -0.1738
  213MOL     C242826   1.215   2.684   0.003 -0.2722  0.1768 -0.2380
  213MOL     O342827   1.153   2.626   0.116 -0.2171 -0.2918  0.2551
  213MOL     C442828   1.208   2.500   0.159  0.6399 -0.0339  0.1478
  213MOL     H542829   1.308   2.877   7.760 -0.7135 -0.1557 -0.2942
  213MOL     H642830   1.169   2.889   0.061  0.1610 -0.2944  0.2531
  213MOL     H742831   1.306   2.635   7.780 -1.0779 -1.6985  0.1884
  213MOL     H842832   1.313   2.524   0.175  0.7602 -0.8675  0.6343
  213MOL     H942833   1.159   2.484   0.256  0.5330  2.5177  0.5495
  213MOL    H1042834   1.198   2.426   0.080 -2.4737  0.2668  0.1942
  213MOL    H1142835   1.333   2.822   0.110  2.8494 -0.8585 -3.0639
  213MOL    C1242836   1.101   2.678   7.721  0.0669  0.4387  0.6974
  213MOL    C1342837   1.127   2.690   7.570 -0.1425 -0.2269  0.2003
  213MOL    O1442838   1.172   2.578   7.502 -0.1104 -0.2768  0.6817
  213MOL    C1542839   1.314   2.577   7.473 -0.1277  0.0128 -1.0729
  213MOL    H1642840   1.035   2.760   7.748  0.2413  0.6824  0.3810
  213MOL    H1742841   1.063   2.576   7.733  1.6127 -0.3809 -1.0913
  213MOL    H1842842   1.192   2.777   7.557 -0.5177  0.0527  0.1711
  213MOL    H1942843   1.332   2.487   7.414  0.9757  0.8152 -2.0026
  213MOL    H2042844   1.343   2.665   7.416  1.1191  1.5904  1.8848
  213MOL    H2142845   1.369   2.564   7.566 -2.5688 -0.2739  0.3622
  213MOL    C2242846   0.996   2.736   7.506  0.1113 -0.4819  0.3207
  213MOL    C2342847   0.963   2.882   7.511  0.1164 -0.3032 -0.0999
  213MOL    O2442848   1.054   2.951   7.425 -0.0646  0.0900  0.1577
  213MOL    C2542849   1.045   3.096   7.433 -0.8243 -0.0952 -0.6545
  213MOL    H2642850   0.914   2.682   7.553 -1.2214  0.5554 -0.7624
  213MOL    H2742851   0.994   2.711   7.400  3.4294 -1.2501  0.3834
  213MOL    H2842852   0.975   2.925   7.610  0.0891 -1.0254  0.2167
  213MOL    H2942853   1.043   3.123   7.538  0.1845 -1.5202 -0.2461
  213MOL    H3042854   1.137   3.134   7.387 -0.0184 -1.4111 -0.1601
  213MOL    H3142855   0.960   3.136   7.378 -3.7699 -1.1157  2.9560
  213MOL    C3242856   0.817   2.910   7.451 -0.1577  0.9386  0.1713
  213MOL    C3342857   0.700   2.851   7.532  0.1858 -0.4180  0.1278
  213MOL    O3442858   0.704   2.885   7.672  0.2573  0.1861  0.1148
  213MOL    C3542859   0.692   2.778   7.760  0.7972  0.4430  0.6722
  213MOL    H3642860   0.809   2.870   7.350  2.3736 -2.2341  1.1333
  213MOL    H3742861   0.804   3.018   7.446 -2.6083  0.6989  0.3784
  213MOL    H3842862   0.702   2.742   7.526 -0.4558 -0.3819 -0.9983
  213MOL    H3942863   0.771   2.703   7.760  0.0100 -0.4029  0.1814
  213MOL    H4042864   0.667   2.812   0.050 -2.0317  2.0020 -0.4836
  213MOL    H4142865   0.598   2.725   7.743  0.4639  0.6550  1.7995
  213MOL    C4242866   0.565   2.908   7.480  0.1047  0.3316 -0.2878
  213MOL    C4342867   0.532   2.849   7.332 -0.3250 -0.3890 -0.1688
  213MOL    O4442868   0.504   2.709   7.325 -0.3310 -0.0776  0.0281
  213MOL    C4542869   0.606   2.620   7.270 -0.1670  0.6346  0.1074
  213MOL    H4642870   0.555   3.017   7.481  1.2215  0.4526 -1.5527
  213MOL    H4742871   0.486   2.873   7.546  1.7592  1.2368  2.2430
  213MOL    H4842872   0.613   2.870   7.262 -1.5259  1.6278 -1.0166
  213MOL    H4942873   0.566   2.519   7.257  1.1390  0.2794 -1.3050
  213MOL    H5042874   0.648   2.644   7.172  0.3753 -0.3149  0.1079
  213MOL    H5142875   0.691   2.608   7.337  0.0341  2.2813  0.1886
  213MOL    C5242876   0.409   2.922   7.271  0.0734  0.6719  0.7031
  213MOL    C5342877   0.380   2.907   7.122 -0.4608 -0.2710  0.5442
  213MOL    O5442878   0.252   2.904   7.075  0.5326 -0.5752  0.5710
  213MOL    C5542879   0.164   2.799   7.111  0.2533 -0.5902  0.0590
  213MOL    H5642880   0.419   3.030   7.281  1.0902  0.5366  1.1599
  213MOL    H5742881   0.322   2.895   7.330 -1.0659  0.1063 -1.1756
  213MOL    H5842882   0.404   2.804   7.097 -0.5411 -0.2598  0.4159
  213MOL    H5942883   0.078   2.794   7.045  0.5356  0.9016 -0.4591
  213MOL    H6042884   0.214   2.703   7.106 -0.2414 -0.8157 -0.5697
  213MOL    H6142885   0.123   2.812   7.212 -0.0867  1.4089 -0.3047
  213MOL    C6242886   0.462   2.985   7.011 -0.6414 -0.2413  0.2022
  213MOL    C6342887   0.474   3.139   7.022  0.1430  0.2279  0.3906
  213MOL    O6442888   0.529   3.192   6.900 -0.3761  0.7299 -0.6281
  213MOL    C6542889   0.661   3.145   6.860  0.1011 -0.5775 -0.3204
  213MOL    H6642890   0.420   2.977   6.911 -2.3503 -0.1593  0.8898
  213MOL    H6742891   0.557   2.933   7.007 -0.4332  0.0661  0.9296
  213MOL    H6842892   0.527   3.172   7.111  1.0636  0.3364 -0.2005
  213MOL    H6942893   0.682   3.189   6.763 -1.5572  1.1515  0.0792
  213MOL    H7042894   0.739   3.172   6.931  0.5629  2.0890 -1.7931
  213MOL    H7142895   0.660   3.037   6.845 -0.7645 -0.7035  0.5755
  213MOL    C7242896   0.334   3.206   7.037 -0.0026 -0.3365 -0.1474
  213MOL    C7342897   0.339   3.354   7.083  0.7329  0.2626 -0.2613
  213MOL    O7442898   0.401   3.347   7.216 -0.5740  0.2305  0.2109
  213MOL    C7542899   0.370   3.451   7.304  0.5922  0.6075  0.5740
  213MOL    H7642900   0.274   3.146   7.107 -0.0806 -1.2554 -0.9948
  213MOL    H7742901   0.280   3.189   6.944 -1.2161  1.4521  0.2069
  213MOL    H7842902   0.235   3.384   7.089 -0.1183 -2.4726 -0.5920
  213MOL    H7942903   0.451   3.467   7.375 -0.3237 -0.9129  1.9833
  213MOL    H8042904   0.352   3.548   7.257  1.0908  0.2597 -0.3639
  213MOL    H8142905   0.288   3.425   7.370  0.9712 -0.2592  0.7152
  213MOL    C8242906   0.419   3.458   6.989 -0.0464  0.0613  0.8236
  213MOL    C8342907   0.328   3.490   6.874  0.1646 -0.5781  0.7368
  213MOL    O8442908   0.217   3.563   6.924 -0.3483 -0.0312  0.3052
  213MOL    C8542909   0.091   3.540   6.870  0.3573  0.3317  0.0803
  213MOL    H8642910   0.511   3.407   6.960 -1.7029 -1.5384 -1.7751
  213MOL    H8742911   0.445   3.544   7.050  1.2163 -0.0593  0.4724
  213MOL    H8842912   0.296   3.406   6.812  0.4434  0.5142 -0.9194
  213MOL    H8942913   0.026   3.591   6.941 -0.8144  0.2629 -0.9179
  213MOL    H9042914   0.077   3.585   6.771  0.9574 -0.7182 -0.4896
  213MOL    H9142915   0.053   3.438   6.868 -1.5995  1.0527  0.0332
  213MOL    C9242916   0.392   3.605   6.798 -0.7930  0.1064 -0.1028
  213MOL    C9342917   0.520   3.593   6.718 -0.5220  0.3151 -0.5404
  213MOL    O9442918   0.504   3.509   6.610 -0.0052 -0.4796 -0.4898
  213MOL    C9542919   0.557   3.377   6.623 -0.1436  0.2333  0.5355
  213MOL    H9642920   0.395   3.674   6.882 -1.2720 -0.4929  0.4112
  213MOL    H9742921   0.323   3.655   6.729 -0.8142  1.8467  1.1661
  213MOL    H9842922   0.604   3.557   6.777 -0.4276  1.9973  0.3921
  213MOL    H9942923   0.520   3.326   6.712 -0.8118  0.0323  0.1448
  213MOL   H10042924   0.529   3.301   6.551  2.4441 -1.4145  1.1963
  213MOL   H10142925   0.665   3.390   6.630 -0.3931  1.4028  2.9609
  213MOL   C10242926   0.575   3.728   6.675 -0.0316 -0.7440 -0.1799
  213MOL   C10342927   0.715   3.728   6.603 -0.1631  0.4141 -0.0013
  213MOL   O10442928   0.696   3.763   6.462 -0.3837 -1.2178 -0.2034
  213MOL   C10542929   0.659   3.663   6.373  0.5767 -0.1397 -0.0284
  213MOL   H10642930   0.589   3.778   6.771  0.3452 -0.6354 -0.2923
  213MOL   H10742931   0.494   3.781   6.625 -0.2963 -2.6541 -1.8555
  213MOL   H10842932   0.766   3.631   6.605 -0.2569  0.4001  2.3501
  213MOL   H10942933   0.731   3.582   6.381 -0.7784 -1.5814 -1.9357
  213MOL   H11042934   0.563   3.616   6.398  1.1002 -1.5237 -0.6107
  213MOL   H11142935   0.653   3.698   6.270 -1.8905 -2.1743 -0.6547
  213MOL   C11242936   0.816   3.827   6.657  0.0436 -0.1237 -0.7871
  213MOL   C11342937   0.884   3.797   6.799  0.5855 -0.3776  0.1941
  213MOL   O11442938   0.965   3.684   6.776 -0.0439  0.8176 -0.4918
  213MOL   C11542939   0.966   3.588   6.877 -0.5137 -0.5331 -0.3038
  213MOL   H11642940   0.757   3.917   6.674 -0.1939 -0.2662 -0.8559
  213MOL   H11742941   0.891   3.851   6.582 -0.2175  0.3027 -0.9156
  213MOL   H11842942   0.799   3.769   6.860  0.8723 -2.4186 -0.2876
  213MOL   H11942943   1.051   3.520   6.876  0.0820  0.2042 -0.4150
  213MOL   H12042944   0.962   3.636   6.974 -2.7089 -0.2802 -0.5012
  213MOL   H12142945   0.874   3.533   6.859 -1.9096  1.3188  1.0118
  213MOL   C12242946   0.970   3.911   6.853  0.0804  0.2798  0.6683
  213MOL   C12342947   0.892   4.047   6.876 -0.2743  0.7602 -0.4429
  213MOL   O12442948   0.778   4.025   6.952  0.2100 -0.2496 -0.0155
  213MOL   C12542949   0.659   4.080   6.885  0.1813 -0.0234  0.5314
  213MOL   H12642950   1.054   3.935   6.789  1.8530  0.4330  2.9893
  213MOL   H12742951   1.013   3.875   6.946 -0.9231  0.1399  1.0917
  213MOL   H12842952   0.869   4.090   6.779  1.0477  0.7843 -0.7473
  213MOL   H12942953   0.631   4.019   6.799  1.4262 -0.4334  0.4099
  213MOL   H13042954   0.577   4.066   6.955  0.5674  0.3974  1.0757
  213MOL   H13142955   0.658   4.188   6.871  1.9512 -0.2201 -1.2743
  213MOL   C13242956   0.993   4.149   6.932 -0.0281 -0.1233  1.1538
  213MOL   C13342957   0.934   4.286   6.976  0.2414  0.1789 -0.4362
  213MOL   O13442958   1.020   4.360   7.061 -0.3883  0.1551  0.3779
  213MOL   C13542959   1.011   4.321   7.199  0.1920  0.1294  0.0657
  213MOL   H13642960   1.072   4.162   6.859 -1.2589  3.3425  0.3408
  213MOL   H13742961   1.039   4.109   7.022  1.2128 -2.1548 -0.3506
  213MOL   H13842962   0.838   4.276   7.025 -0.6465 -0.9659 -2.3541
  213MOL   H13942963   1.101   4.343   7.256  1.0553 -0.3582 -1.0888
  213MOL   H14042964   0.926   4.362   7.254  1.1693 -0.9282  2.4223
  213MOL   H14142965   1.001   4.214   7.218  0.7119  0.0792  0.0645
  213MOL   C14242966   0.917   4.376   6.858 -0.1008 -0.1431  0.6168
  213MOL   C14342967   0.838   4.505   6.893 -0.5511 -0.3588 -0.1902
  213MOL   O14442968   0.859   4.582   6.782 -0.3596  0.2233  0.2403
  213MOL   C14542969   0.932   4.699   6.810 -0.4199 -0.5381 -0.3607
  213MOL   H14642970   0.852   4.333   6.783  0.3691 -2.2343  1.3824
  213MOL   H14742971   1.012   4.419   6.824  0.6405 -1.3298  1.1388
  213MOL   H14842972   0.868   4.546   6.989  0.5137  0.0069 -0.6778
  213MOL   H14942973   1.036   4.689   6.839 -0.6174  1.1063  0.9532
  213MOL   H15042974   0.940   4.761   6.720  0.0575  1.1185  0.7969
  213MOL   H15142975   0.882   4.753   6.890 -1.6578  0.0477 -1.5037
  213MOL   C15242976   0.685   4.489   6.907  0.5320  0.0116 -0.4046
  213MOL   C15342977   0.610   4.627   6.923 -0.8093  0.2364 -0.3061
  213MOL   O15442978   0.465   4.611   6.894  0.5771 -0.1874 -0.4786
  213MOL   C15542979   0.439   4.642   6.750  0.6940 -0.1945  0.2683
  213MOL   H15642980   0.667   4.421   6.991  3.8046 -0.3131  0.0855
  213MOL   H15742981   0.639   4.441   6.821 -0.7886 -1.4946  1.1111
  213MOL   H15842982   0.656   4.704   6.860  1.6140 -0.9894 -0.0742
  213MOL   H15942983   0.475   4.563   6.685  2.4543  0.0252  0.9647
  213MOL   H16042984   0.330   4.656   6.746  0.6658 -0.7514 -1.2527
  213MOL   H16142985   0.476   4.739   6.718  2.5627 -0.8493  0.3994
  213MOL   C16242986   0.603   4.678   7.066 -0.9422  0.0666  0.1990
  213MOL   C16342987   0.569   4.833   7.079 -0.3049 -0.3063 -0.3061
  213MOL   O16442988   0.660   4.907   6.998 -0.2943  0.0093 -0.6688
  213MOL   C16542989   0.773   4.963   7.074  0.0946 -0.0067  0.2051
  213MOL   H16642990   0.701   4.668   7.112 -1.5463 -0.1059  1.4802
  213MOL   H16742991   0.539   4.612   7.124 -1.6928 -0.7322 -1.4924
  213MOL   H16842992   0.588   4.848   7.186  0.6782 -3.7870  0.0837
  213MOL   H16942993   0.830   5.028   7.007 -1.1173  1.7264  0.8230
  213MOL   H17042994   0.746   5.027   7.159  0.1409 -1.1858  1.1160
  213MOL   H17142995   0.841   4.885   7.106 -0.1411 -1.8355 -3.5078
  213MOL   C17242996   0.417   4.884   7.039 -0.1834 -0.3323  0.1188
  213MOL   C17342997   0.296   4.800   7.079  0.2808 -0.0693 -0.6127
  213MOL   O17442998   0.248   4.844   7.208  0.7998  0.0443 -0.0195
  213MOL   C17542999   0.330   4.823   7.324 -0.6381  0.2974 -0.1801
  213MOL   H17643000   0.421   4.912   6.933 -1.0247  0.2528  0.2374
  213MOL   H17743001   0.406   4.975   7.098  0.5311 -1.1598  1.5283
  213MOL   H17843002   0.316   4.693   7.078 -2.6060 -0.7134  2.3958
  213MOL   H17943003   0.422   4.881   7.315 -0.2665 -0.4599 -1.3468
  213MOL   H18043004   0.265   4.868   7.399  1.2306  0.6680  1.2506
  213MOL   H18143005   0.345   4.719   7.353  1.9369  0.4594 -0.8038
  213MOL   C18243006   0.178   4.820   6.982 -0.6838 -0.0364 -0.3168
  213MOL   C18343007   0.048   4.752   7.008  0.7998 -0.0303  0.0508
  213MOL   O18443008   7.787   4.760   6.893 -0.0676 -0.0057  0.1448
  213MOL   C18543009   7.680   4.851   6.895  0.5827 -0.0740  0.1729
  213MOL   H18643010   0.205   4.764   6.893 -2.8910 -0.4794 -0.7232
  213MOL   H18743011   0.185   4.921   6.942 -0.5050 -0.4463 -1.3252
  213MOL   H18843012   7.807   4.805   7.088 -2.2154  0.1999 -1.9666
  213MOL   H18943013   7.607   4.826   6.971  0.4759  2.2378  0.8588
  213MOL   H19043014   7.708   4.953   6.919  3.2197 -0.7574  0.1918
  213MOL   H19143015   7.622   4.854   6.803 -0.0793  0.4814  0.6062
  213MOL   C19243016   0.068   4.607   7.036 -0.1114 -0.1032 -0.1301
  213MOL   C19343017   7.749   4.521   7.049 -0.9264  0.3830  0.0923
  213MOL   O19443018   7.771   4.392   7.101  0.1518  0.4918 -0.2918
  213MOL   C19543019   7.645   4.321   7.113  0.5679 -0.1781 -0.0478
  213MOL   H19643020   0.119   4.592   7.132  1.8453  1.4592 -0.8983
  213MOL   H19743021   0.123   4.560   6.954  0.4220 -2.5025  1.5426
  213MOL   H19843022   7.699   4.517   6.952 -1.3890  0.6027  0.3216
  213MOL   H19943023   7.668   4.221   7.152  1.4947  0.2127  0.4269
  213MOL   H20043024   7.579   4.368   7.185  1.1945  1.5585 -0.5916
  213MOL   H20143025   7.597   4.304   7.016  0.6478 -0.7302  0.0069
  213MOL   H20243026   7.681   4.578   7.112  0.2462  1.3419  0.5209
  214MOL     C143027   6.458   5.315   1.116 -0.6057  0.2350 -0.3626
  214MOL     C243028   6.400   5.266   1.249  1.1269 -0.4257 -0.4030
  214MOL     O343029   6.500   5.285   1.347  0.3074  0.2675 -0.3622
  214MOL     C443030   6.568   5.164   1.375 -0.1990  0.2112 -0.0564
  214MOL     H543031   6.472   5.423   1.117 -1.2935  0.3726  2.9162
  214MOL     H643032   6.546   5.258   1.089  0.8984  1.8861  0.8745
  214MOL     H743033   6.375   5.160   1.249  0.6810 -0.3170 -0.0708
  214MOL     H843034   6.603   5.127   1.279 -1.1903  0.0429 -0.3528
  214MOL     H943035   6.661   5.186   1.428 -0.0405 -2.4028  0.8160
  214MOL    H1043036   6.508   5.095   1.434  0.4504  0.0670  0.4486
  214MOL    H1143037   6.392   5.292   1.033 -0.7722  0.5982 -0.3338
  214MOL    C1243038   6.268   5.334   1.292 -0.3390  1.0430  0.0639
  214MOL    C1343039   6.219   5.298   1.436  0.3989 -0.2285 -0.1305
  214MOL    O1443040   6.109   5.380   1.475  0.2403  0.0246 -0.3498
  214MOL    C1543041   6.145   5.481   1.558  0.1037 -0.0662 -0.0033
  214MOL    H1643042   6.197   5.307   1.215  0.9333  0.5773 -0.9599
  214MOL    H1743043   6.273   5.443   1.288 -1.4171  1.3340  4.2585
  214MOL    H1843044   6.300   5.310   1.508 -1.4636  3.4570  1.5142
  214MOL    H1943045   6.064   5.552   1.576 -0.1438 -0.1137 -0.9533
  214MOL    H2043046   6.175   5.449   1.658  0.8049 -0.9431 -0.4964
  214MOL    H2143047   6.227   5.542   1.520  0.7418 -0.2831  0.9898
  214MOL    C2243048   6.183   5.149   1.460  0.5178  0.1893 -0.6040
  214MOL    C2343049   6.059   5.089   1.393 -0.1681  0.4573 -0.0189
  214MOL    O2443050   6.088   5.063   1.261  0.3738  0.0746  0.1012
  214MOL    C2543051   5.974   5.055   1.173 -0.2460 -0.0671  0.9397
  214MOL    H2643052   6.160   5.159   1.566  0.0393 -3.6739 -0.2784
  214MOL    H2743053   6.267   5.080   1.464 -0.4564 -0.9920  0.0930
  214MOL    H2843054   5.975   5.157   1.403 -1.3407 -0.5613 -2.4864
  214MOL    H2943055   5.905   4.974   1.196 -0.8915 -0.0526 -0.8736
  214MOL    H3043056   5.911   5.144   1.169  1.2001  1.0219  1.8125
  214MOL    H3143057   6.016   5.033   1.075  0.7968 -0.0683  1.3757
  214MOL    C3243058   6.015   4.959   1.464 -1.0828 -0.0917  0.2476
  214MOL    C3343059   5.863   4.939   1.475  0.7661 -0.0736 -0.8538
  214MOL    O3443060   5.824   4.801   1.473 -0.1117 -0.1524  0.2246
  214MOL    C3543061   5.757   4.764   1.353  0.0964  0.1732  0.0547
  214MOL    H3643062   6.057   4.937   1.562  0.7103  1.7374 -0.0644
  214MOL    H3743063   6.059   4.880   1.402 -2.1931  0.1737 -0.8942
  214MOL    H3843064   5.817   4.996   1.395  1.5533 -1.6503 -2.4592
  214MOL    H3943065   5.710   4.666   1.366  1.7425 -0.3294  2.7218
  214MOL    H4043066   5.684   4.841   1.330 -0.7039 -0.0313  1.8080
  214MOL    H4143067   5.825   4.761   1.269 -2.1711  0.0150 -1.8169
  214MOL    C4243068   5.805   4.992   1.612  0.9355 -0.5239 -0.0601
  214MOL    C4343069   5.796   5.142   1.642 -0.1479  0.6017  0.0897
  214MOL    O4443070   5.700   5.205   1.554 -0.1821 -0.0808  0.5537
  214MOL    C4543071   5.750   5.305   1.474  0.5638 -0.3454 -0.3641
  214MOL    H4643072   5.866   4.926   1.675  3.7302  0.2991 -1.7845
  214MOL    H4743073   5.707   4.948   1.626  0.3936  0.5210 -0.5553
  214MOL    H4843074   5.896   5.184   1.634  0.3800 -0.6914 -0.1388
  214MOL    H4943075   5.800   5.382   1.532  0.0424 -0.3868  0.1485
  214MOL    H5043076   5.794   5.281   1.378  2.5650 -1.7067  0.8389
  214MOL    H5143077   5.657   5.359   1.454  1.1007  1.6156  2.1518
  214MOL    C5243078   5.750   5.174   1.787 -0.2846 -0.4400 -0.8728
  214MOL    C5343079   5.765   5.324   1.829 -0.1738 -0.0016 -0.4240
  214MOL    O5443080   5.760   5.329   1.970 -0.0645 -0.0309 -0.0088
  214MOL    C5543081   5.634   5.356   2.025  0.0471  0.5092 -0.1816
  214MOL    H5643082   5.833   5.126   1.840 -1.1892 -0.6690  0.3383
  214MOL    H5743083   5.656   5.121   1.801 -0.8702  0.0759 -2.7849
  214MOL    H5843084   5.688   5.367   1.765  1.7225  0.4380 -2.4546
  214MOL    H5943085   5.566   5.277   1.993 -0.4235  0.9009 -0.1437
  214MOL    H6043086   5.639   5.341   2.133  0.0799  0.1050 -0.2368
  214MOL    H6143087   5.601   5.456   1.996 -0.5487 -0.0286 -1.3751
  214MOL    C6243088   5.902   5.398   1.798 -0.6259  0.3628  0.0482
  214MOL    C6343089   5.911   5.534   1.862 -0.7123  0.3074 -0.0137
  214MOL    O6443090   6.051   5.570   1.874  0.0090 -0.2294 -0.0330
  214MOL    C6543091   6.125   5.514   1.980 -0.1925  0.0088 -0.7477
  214MOL    H6643092   5.916   5.399   1.690  0.5845 -2.4817  0.1460
  214MOL    H6743093   5.983   5.336   1.835 -0.9974  1.2754  2.4304
  214MOL    H6843094   5.871   5.536   1.964 -0.1956  1.1978  0.1829
  214MOL    H6943095   6.117   5.577   2.069  1.0898 -0.2528 -0.4269
  214MOL    H7043096   6.100   5.412   2.006  1.1206 -0.4011 -1.0456
  214MOL    H7143097   6.231   5.515   1.953  0.5215 -1.1934  1.8522
  214MOL    C7243098   5.849   5.654   1.793  0.5677  0.3632 -0.2827
  214MOL    C7343099   5.843   5.794   1.867  0.2998 -0.1627  0.4735
  214MOL    O7443100   5.812   5.902   1.779  0.4059 -0.6645 -0.2133
  214MOL    C7543101   5.908   6.006   1.776  0.1591 -0.4209  0.4433
  214MOL    H7643102   5.750   5.634   1.752  0.3594  3.2678 -1.2543
  214MOL    H7743103   5.912   5.668   1.706 -2.7302  0.8507 -2.6704
  214MOL    H7843104   5.936   5.820   1.917  0.4348  0.8551 -0.3006
  214MOL    H7943105   5.915   6.054   1.874 -0.1840  2.0411 -0.6895
  214MOL    H8043106   6.009   5.969   1.760 -0.2189 -1.7927  1.1390
  214MOL    H8143107   5.887   6.088   1.707  0.9286  1.1091  1.9816
  214MOL    C8243108   5.726   5.816   1.968 -0.1425 -0.3548 -0.0370
  214MOL    C8343109   5.580   5.770   1.938  1.0005  0.8851  0.9937
  214MOL    O8443110   5.497   5.782   2.049  0.1477  0.1291  0.3326
  214MOL    C8543111   5.478   5.657   2.113  0.5043 -0.1390  0.2063
  214MOL    H8643112   5.741   5.919   1.998  3.4790 -0.6319 -0.7422
  214MOL    H8743113   5.755   5.771   2.063  0.4025  0.5814  0.2398
  214MOL    H8843114   5.573   5.672   1.890 -0.9950  1.1699  0.6819
  214MOL    H8943115   5.416   5.591   2.051  1.0273 -1.1887  0.7982
  214MOL    H9043116   5.573   5.616   2.144  0.1345 -1.2324 -0.0690
  214MOL    H9143117   5.430   5.678   2.209 -2.3423 -2.6132 -0.5752
  214MOL    C9243118   5.509   5.876   1.848  0.3201  0.6822 -0.1181
  214MOL    C9343119   5.357   5.866   1.813  0.1678  0.4987  0.0199
  214MOL    O9443120   5.344   5.987   1.736  0.0700  0.7501 -0.0610
  214MOL    C9543121   5.215   6.026   1.719  0.4138 -0.0465  0.1253
  214MOL    H9643122   5.553   5.892   1.750  0.1669 -1.2329 -0.5216
  214MOL    H9743123   5.522   5.969   1.903  0.3039  1.0249 -0.6985
  214MOL    H9843124   5.299   5.864   1.905  0.2010  0.2955  0.0353
  214MOL    H9943125   5.208   6.108   1.647 -1.0998  0.9063  1.3383
  214MOL   H10043126   5.144   5.944   1.706 -0.0369  0.5278 -1.0935
  214MOL   H10143127   5.187   6.083   1.807  1.1935  1.5517 -0.6324
  214MOL   C10243128   5.323   5.740   1.723 -0.5907 -0.2537  0.6905
  214MOL   C10343129   5.219   5.653   1.799  0.3033 -0.4077 -0.1960
  214MOL   O10443130   5.101   5.721   1.839  0.2145 -0.1575 -0.1501
  214MOL   C10543131   5.047   5.686   1.953 -0.0048  0.1632  0.0745
  214MOL   H10643132   5.409   5.685   1.685  0.5791  0.8087  1.7380
  214MOL   H10743133   5.279   5.769   1.628  1.1539 -2.2761 -0.7535
  214MOL   H10843134   5.269   5.608   1.885  0.6177 -1.2609 -0.8197
  214MOL   H10943135   5.127   5.679   2.027  0.8882 -2.9398 -1.1022
  214MOL   H11043136   4.982   5.770   1.978 -0.3339 -0.1697  0.3510
  214MOL   H11143137   4.990   5.594   1.936 -1.1318  1.2593 -2.1774
  214MOL   C11243138   5.173   5.528   1.719 -0.1201  0.1215 -0.3006
  214MOL   C11343139   5.275   5.414   1.688  0.8723 -0.0907  0.8268
  214MOL   O11443140   5.372   5.452   1.595 -0.1674 -0.3167 -0.3709
  214MOL   C11543141   5.358   5.402   1.464 -0.2835 -0.3909 -0.2750
  214MOL   H11643142   5.139   5.577   1.628 -0.7920  1.8270  0.8538
  214MOL   H11743143   5.092   5.474   1.768 -0.3671  0.1112 -0.7181
  214MOL   H11843144   5.218   5.328   1.651  1.6730  0.4767 -1.8476
  214MOL   H11943145   5.374   5.294   1.457  1.7543 -0.2003  0.8162
  214MOL   H12043146   5.258   5.422   1.427  0.4257  1.6947 -1.1286
  214MOL   H12143147   5.426   5.456   1.399  0.3486 -0.4165  0.3494
  214MOL   C12243148   5.349   5.350   1.800 -0.4459 -0.1085  0.5332
  214MOL   C12343149   5.263   5.265   1.897 -0.6348  0.6263 -0.6047
  214MOL   O12443150   5.336   5.152   1.935  0.2593 -0.8816 -0.2613
  214MOL   C12543151   5.326   5.037   1.836  0.6407 -0.2911  0.1692
  214MOL   H12643152   5.418   5.415   1.853  0.1851 -0.5814  0.2985
  214MOL   H12743153   5.418   5.277   1.756 -0.2320 -1.6313  3.2711
  214MOL   H12843154   5.165   5.243   1.854 -0.0509  0.1653 -1.7184
  214MOL   H12943155   5.403   4.963   1.860 -1.4860 -2.4143  0.5842
  214MOL   H13043156   5.232   4.982   1.834 -1.0878  2.6093 -4.4426
  214MOL   H13143157   5.336   5.080   1.737  0.5491 -1.3719 -0.3217
  214MOL   C13243158   5.230   5.341   2.024  0.0899 -0.0641 -0.4435
  214MOL   C13343159   5.117   5.271   2.108 -0.4946  0.1509  0.7409
  214MOL   O13443160   5.117   5.315   2.240 -0.3447  0.5714  0.0767
  214MOL   C13543161   5.205   5.252   2.328 -0.7477  0.5150 -0.8201
  214MOL   H13643162   5.189   5.440   2.004 -0.9076 -0.1839  0.9037
  214MOL   H13743163   5.326   5.358   2.074  1.2186  0.5679 -2.7677
  214MOL   H13843164   5.158   5.170   2.115  2.2664  0.8639 -3.2660
  214MOL   H13943165   5.194   5.144   2.337  2.0955  0.3725  1.6431
  214MOL   H14043166   5.312   5.259   2.305  0.0432 -0.4407  2.3255
  214MOL   H14143167   5.206   5.287   2.431 -0.8886 -0.7938 -0.3737
  214MOL   C14243168   4.970   5.286   2.059  0.4974  1.0486 -0.2275
  214MOL   C14343169   4.875   5.204   2.140 -0.0830 -0.1320 -0.1741
  214MOL   O14443170   4.739   5.252   2.099 -0.1774 -0.4923  0.0986
  214MOL   C14543171   4.638   5.220   2.190  0.3826 -0.6415 -0.4053
  214MOL   H14643172   4.962   5.256   1.955  0.5762 -0.0738  0.0891
  214MOL   H14743173   4.951   5.393   2.069  2.2352  1.1977  1.8279
  214MOL   H14843174   4.884   5.231   2.245  1.9298  0.5022 -0.4861
  214MOL   H14943175   4.535   5.248   2.166 -0.6262 -1.8413  2.2934
  214MOL   H15043176   4.631   5.114   2.217 -0.5573 -0.7462 -1.0402
  214MOL   H15143177   4.661   5.268   2.285 -1.0600 -0.5319 -0.1064
  214MOL   C15243178   4.896   5.049   2.121 -0.3389  0.0434 -0.4622
  214MOL   C15343179   4.825   4.993   1.994 -0.4152 -0.3627 -0.4396
  214MOL   O15443180   4.908   5.030   1.887 -0.4277 -0.0002  1.2117
  214MOL   C15543181   4.844   5.064   1.764  0.7954 -0.0678  0.4951
  214MOL   H15643182   4.869   5.001   2.215 -0.8846  1.6630  0.2206
  214MOL   H15743183   5.002   5.030   2.103 -0.2533 -0.3246  0.3803
  214MOL   H15843184   4.730   5.046   1.993 -1.4363 -1.8668  3.6243
  214MOL   H15943185   4.766   4.993   1.736 -0.0050  1.0410 -0.1525
  214MOL   H16043186   4.796   5.162   1.758  0.0651 -0.3414  1.8952
  214MOL   H16143187   4.924   5.067   1.689 -0.7072 -0.9312 -1.1938
  214MOL   C16243188   4.803   4.842   2.001 -0.0168  0.0465  0.6557
  214MOL   C16343189   4.692   4.787   1.916  0.2530  0.6339 -0.2012
  214MOL   O16443190   4.677   4.649   1.932 -0.1521  0.0334  0.0856
  214MOL   C16543191   4.757   4.568   1.837 -0.0835  0.1726 -0.2981
  214MOL   H16643192   4.778   4.808   2.102 -0.9272 -0.4141  0.2755
  214MOL   H16743193   4.897   4.797   1.971 -1.4327 -2.5100 -0.1082
  214MOL   H16843194   4.714   4.807   1.811 -3.6540  1.3417 -0.9691
  214MOL   H16943195   4.745   4.601   1.734  0.9606  0.1714 -0.4271
  214MOL   H17043196   4.863   4.581   1.860  0.2100 -1.7122 -0.5452
  214MOL   H17143197   4.741   4.462   1.852 -0.0224  0.4082  1.5853
  214MOL   C17243198   4.549   4.845   1.942  0.9718  0.4041 -0.5086
  214MOL   C17343199   4.456   4.871   1.822  0.0467 -0.0667  0.3602
  214MOL   O17443200   4.522   4.970   1.743 -0.9527 -0.4001  0.5240
  214MOL   C17543201   4.483   5.103   1.772  0.1976  0.0536 -0.0080
  214MOL   H17643202   4.551   4.943   1.990 -3.1359  1.0787 -1.5226
  214MOL   H17743203   4.500   4.785   2.019  1.6637  2.1918  1.3819
  214MOL   H17843204   4.352   4.897   1.840 -0.5242  0.8539 -3.7609
  214MOL   H17943205   4.375   5.121   1.769 -0.1754 -1.9472  0.7562
  214MOL   H18043206   4.520   5.128   1.871 -2.3756  0.0635  0.9989
  214MOL   H18143207   4.540   5.177   1.716  0.9772  0.5840  1.4692
  214MOL   C18243208   4.451   4.751   1.724  0.7647 -0.3829 -0.6764
  214MOL   C18343209   4.378   4.620   1.772 -0.0074 -0.2172  0.4850
  214MOL   O18443210   4.250   4.655   1.825  0.4686  0.7018  0.2600
  214MOL   C18543211   4.185   4.561   1.895  0.0626  0.1032  0.1365
  214MOL   H18643212   4.548   4.731   1.677  0.3193 -0.0516 -1.7483
  214MOL   H18743213   4.386   4.791   1.647  1.2100  2.7443  0.4962
  214MOL   H18843214   4.442   4.589   1.854  0.2958  0.3914  0.4814
  214MOL   H18943215   4.222   4.557   1.998  1.8563 -1.4258 -0.5679
  214MOL   H19043216   4.086   4.606   1.905  0.1068  0.5441 -1.3225
  214MOL   H19143217   4.174   4.468   1.840 -0.2824  0.7811 -0.9659
  214MOL   C19243218   4.372   4.516   1.665  0.4977  0.1199 -0.3802
  214MOL   C19343219   4.497   4.450   1.625  0.1309 -0.1848 -0.4133
  214MOL   O19443220   4.472   4.353   1.523 -0.3140  0.3025  0.3343
  214MOL   C19543221   4.589   4.286   1.478  0.7188  0.6106  0.0668
  214MOL   H19643222   4.309   4.545   1.581  0.8286  0.3084 -0.5646
  214MOL   H19743223   4.314   4.429   1.697 -0.9503  1.7316  1.4397
  214MOL   H19843224   4.548   4.397   1.706  0.3178  0.2304 -0.2581
  214MOL   H19943225   4.563   4.237   1.384  0.0803  1.6803 -0.3316
  214MOL   H20043226   4.665   4.362   1.463  0.2500  1.0413 -0.1400
  214MOL   H20143227   4.622   4.216   1.555  1.1610  0.0966 -0.5836
  214MOL   H20243228   4.562   4.522   1.577 -1.7532 -0.8246 -4.1292
  215MOL     C143229   6.619   3.575   2.189 -1.1768  0.9370 -0.4555
  215MOL     C243230   6.562   3.704   2.249 -0.1495 -0.5638  0.9991
  215MOL     O343231   6.666   3.801   2.244  0.2028  0.5860  0.2279
  215MOL     C443232   6.630   3.918   2.316 -0.6841 -0.2480 -0.0031
  215MOL     H543233   6.667   3.600   2.095 -1.7157 -1.0600 -1.2717
  215MOL     H643234   6.693   3.537   2.259 -0.2796  2.4488 -0.5472
  215MOL     H743235   6.531   3.688   2.352 -0.6351 -1.3271  0.7451
  215MOL     H843236   6.612   3.894   2.420  0.4730 -1.2866 -0.0451
  215MOL     H943237   6.721   3.979   2.321 -0.0142 -1.1257 -1.1760
  215MOL    H1043238   6.549   3.980   2.277 -0.6293  0.7516  1.4340
  215MOL    H1143239   6.543   3.499   2.173  1.1955 -1.5284 -0.3640
  215MOL    C1243240   6.456   3.762   2.146 -0.6023  0.5806 -0.1183
  215MOL    C1343241   6.324   3.693   2.134  0.3565 -0.2608  0.5408
  215MOL    O1443242   6.258   3.713   2.259 -0.4607 -0.1649 -0.1464
  215MOL    C1543243   6.226   3.592   2.323 -0.8277  0.2485  0.4541
  215MOL    H1643244   6.504   3.741   2.050 -0.2087 -3.5205  0.8597
  215MOL    H1743245   6.428   3.867   2.148 -3.2108 -0.0818  2.2444
  215MOL    H1843246   6.345   3.588   2.115 -1.5796 -0.4424 -0.7322
  215MOL    H1943247   6.174   3.520   2.259 -0.7185  0.8241 -0.2829
  215MOL    H2043248   6.318   3.546   2.359 -1.2467 -0.4385  0.6687
  215MOL    H2143249   6.163   3.612   2.409 -1.1414 -1.3597  0.6133
  215MOL    C2243250   6.248   3.754   2.014 -0.1845 -0.1983 -0.4921
  215MOL    C2343251   6.104   3.692   1.990  0.0922  0.0271 -0.1588
  215MOL    O2443252   6.027   3.780   1.901 -0.4206  0.1973  0.0197
  215MOL    C2543253   6.067   3.792   1.768 -0.2484 -0.2797  0.3005
  215MOL    H2643254   6.313   3.747   1.927 -1.4323 -1.5623 -1.3405
  215MOL    H2743255   6.244   3.857   2.050  0.7760  0.2476 -1.6381
  215MOL    H2843256   6.051   3.711   2.083 -1.7332 -1.2004 -0.9347
  215MOL    H2943257   6.145   3.869   1.773 -1.4180  0.9015  0.8708
  215MOL    H3043258   6.104   3.706   1.713  2.9023  1.4227 -0.3991
  215MOL    H3143259   5.984   3.844   1.720  0.4860 -1.3685 -2.1837
  215MOL    C3243260   6.112   3.547   1.939  0.0608 -0.5726 -0.1405
  215MOL    C3343261   5.978   3.475   1.929 -0.5080  0.3373 -0.3671
  215MOL    O3443262   5.997   3.357   1.855  0.2275 -0.4802 -0.2151
  215MOL    C3543263   5.992   3.371   1.710  0.0901 -0.1209 -0.0112
  215MOL    H3643264   6.175   3.492   2.009  0.0783 -0.1495  0.1796
  215MOL    H3743265   6.165   3.534   1.845  0.1517 -0.5460 -0.0924
  215MOL    H3843266   5.903   3.529   1.872 -0.7355 -0.2230 -0.6009
  215MOL    H3943267   5.995   3.273   1.663 -1.8547 -1.0562  1.7197
  215MOL    H4043268   5.900   3.419   1.677 -1.1025 -2.0197  0.4950
  215MOL    H4143269   6.072   3.434   1.671  1.6705 -2.0377  0.0578
  215MOL    C4243270   5.929   3.423   2.065  0.0736 -0.2459  0.2441
  215MOL    C4343271   5.776   3.402   2.067  0.2599  0.1254  0.7307
  215MOL    O4443272   5.762   3.322   2.183 -0.4601 -0.0532 -0.2618
  215MOL    C4543273   5.731   3.184   2.153 -0.1681  0.3729  0.3372
  215MOL    H4643274   5.936   3.498   2.144  1.2455  0.3423 -0.4047
  215MOL    H4743275   5.980   3.332   2.096  0.8299  0.3475  0.7856
  215MOL    H4843276   5.763   3.343   1.976 -2.7557  1.5737  0.1700
  215MOL    H4943277   5.642   3.174   2.092 -1.2967 -0.0625  2.0072
  215MOL    H5043278   5.819   3.129   2.118  0.4410  0.1898  2.0581
  215MOL    H5143279   5.700   3.139   2.248  0.2199 -1.5757 -0.4230
  215MOL    C5243280   5.683   3.533   2.070  0.0129 -0.1941 -0.5548
  215MOL    C5343281   5.552   3.536   1.982 -0.5344 -0.3667 -0.1218
  215MOL    O5443282   5.456   3.458   2.057  0.2308  0.2478  1.0171
  215MOL    C5543283   5.381   3.363   1.974  0.0218 -0.3664 -0.1638
  215MOL    H5643284   5.740   3.618   2.033 -1.9290  2.0554  1.4532
  215MOL    H5743285   5.646   3.562   2.168  0.1346 -1.8918  0.0048
  215MOL    H5843286   5.579   3.490   1.887 -2.3331  1.0329 -1.3218
  215MOL    H5943287   5.302   3.316   2.033 -0.1927  0.1890  0.0063
  215MOL    H6043288   5.329   3.421   1.898 -0.2728 -0.7378 -0.2412
  215MOL    H6143289   5.447   3.282   1.944  0.7714  0.0886  0.2254
  215MOL    C6243290   5.500   3.676   1.971  0.0242 -0.4905  0.1646
  215MOL    C6343291   5.574   3.764   1.862 -0.1118 -0.7386 -0.0055
  215MOL    O6443292   5.507   3.731   1.741 -0.1543  0.1774 -0.0921
  215MOL    C6543293   5.587   3.659   1.647 -0.2743  0.3272 -0.2237
  215MOL    H6643294   5.505   3.718   2.071 -2.1412  0.9672 -0.3239
  215MOL    H6743295   5.392   3.670   1.957 -0.1560  0.5793  1.1195
  215MOL    H6843296   5.680   3.741   1.852 -0.2963 -1.3105 -0.6066
  215MOL    H6943297   5.665   3.727   1.612 -1.6758  1.3287 -1.5019
  215MOL    H7043298   5.625   3.561   1.674  0.1642  1.2934  2.8728
  215MOL    H7143299   5.534   3.644   1.553 -1.3644 -0.4173  0.4944
  215MOL    C7243300   5.552   3.919   1.880  0.0765 -0.2865  0.6532
  215MOL    C7343301   5.625   3.980   1.996 -0.1059 -0.0956  0.7306
  215MOL    O7443302   5.766   3.948   1.976  0.5634  0.5300 -0.2348
  215MOL    C7543303   5.836   3.950   2.102  0.9653  0.1373  0.4839
  215MOL    H7643304   5.446   3.943   1.881 -0.0811 -0.9276 -0.2295
  215MOL    H7743305   5.599   3.954   1.788 -0.7667  0.5499  0.5390
  215MOL    H7843306   5.601   3.916   2.081  1.4040 -0.4271  0.9232
  215MOL    H7943307   5.800   3.862   2.157 -0.6387 -1.6027 -3.1234
  215MOL    H8043308   5.944   3.941   2.090  1.0185  0.1302  0.9389
  215MOL    H8143309   5.821   4.036   2.167 -0.7159  2.9777 -3.5117
  215MOL    C8243310   5.617   4.129   2.013 -0.3273  0.3327  0.4259
  215MOL    C8343311   5.475   4.198   2.010  0.0064 -0.5624 -0.7501
  215MOL    O8443312   5.389   4.153   2.115  0.1109  0.1760  0.0239
  215MOL    C8543313   5.251   4.146   2.089  0.6393  0.1229  0.0336
  215MOL    H8643314   5.673   4.166   1.927  1.1086  1.6640  1.8984
  215MOL    H8743315   5.671   4.165   2.101  0.8225 -1.3644  0.4378
  215MOL    H8843316   5.435   4.161   1.915 -0.9844 -0.2521 -0.4642
  215MOL    H8943317   5.238   4.100   1.992  3.0135 -0.8655  0.1566
  215MOL    H9043318   5.194   4.091   2.165  0.2229  2.3809  1.4087
  215MOL    H9143319   5.212   4.248   2.089 -0.9187 -0.4525 -1.3429
  215MOL    C9243320   5.488   4.359   2.021  0.3325  0.9600 -0.0539
  215MOL    C9343321   5.556   4.421   1.894 -0.5050 -0.3487  0.4283
  215MOL    O9443322   5.465   4.411   1.782  0.0819 -0.4570  0.1748
  215MOL    C9543323   5.526   4.341   1.681 -0.0613  0.3062  0.6517
  215MOL    H9643324   5.546   4.384   2.110  0.7778  1.3060 -0.4428
  215MOL    H9743325   5.392   4.402   2.051 -0.0594 -1.0417  1.7074
  215MOL    H9843326   5.657   4.384   1.877 -0.3586 -0.0183  0.5751
  215MOL    H9943327   5.616   4.394   1.652 -0.7032  0.1623 -1.7185
  215MOL   H10043328   5.543   4.234   1.690 -0.1462  0.2478  0.1126
  215MOL   H10143329   5.464   4.352   1.592 -0.3148 -2.6411  0.4225
  215MOL   C10243330   5.566   4.577   1.912 -0.0687 -0.3895  0.1006
  215MOL   C10343331   5.690   4.621   1.994 -0.0224  0.1203  0.7099
  215MOL   O10443332   5.817   4.564   1.955  0.4524 -0.1854 -0.3942
  215MOL   C10543333   5.869   4.597   1.821  0.3854  0.3637 -0.3380
  215MOL   H10643334   5.479   4.621   1.961 -1.8630 -1.9531 -1.6014
  215MOL   H10743335   5.561   4.623   1.813  0.7306  0.3665  0.4050
  215MOL   H10843336   5.675   4.582   2.095  0.6180 -2.5599 -0.1856
  215MOL   H10943337   5.931   4.684   1.801  0.2431  1.0137  1.8635
  215MOL   H11043338   5.927   4.512   1.787  0.2113  1.3888 -3.3556
  215MOL   H11143339   5.785   4.595   1.751  0.1538 -0.6845 -0.0450
  215MOL   C11243340   5.700   4.776   1.997  0.1127  0.0847  0.0084
  215MOL   C11343341   5.817   4.848   2.080 -0.2061  0.0800  0.2429
  215MOL   O11443342   5.932   4.860   1.995 -0.0818 -0.3845  0.3692
  215MOL   C11543343   6.042   4.785   2.037 -0.3516  0.6250  1.1888
  215MOL   H11643344   5.604   4.808   2.037  0.9353  2.4182  0.1425
  215MOL   H11743345   5.704   4.820   1.897 -1.4237 -2.7268 -1.3596
  215MOL   H11843346   5.836   4.795   2.173 -0.7826  0.2384  0.4522
  215MOL   H11943347   6.011   4.681   2.045 -1.1439  0.8016  0.3807
  215MOL   H12043348   6.100   4.788   1.945 -1.5574 -1.8337  0.2965
  215MOL   H12143349   6.097   4.822   2.124  2.2795  0.2062 -0.2262
  215MOL   C12243350   5.771   5.000   2.110  0.2978 -0.1439 -0.0593
  215MOL   C12343351   5.746   5.034   2.256 -0.1229 -0.4084  0.4104
  215MOL   O12443352   5.669   4.937   2.318 -0.3775  0.3554 -0.4124
  215MOL   C12543353   5.610   4.969   2.448  0.6163 -0.4221  0.0365
  215MOL   H12643354   5.677   5.015   2.056  0.9448  0.4275 -1.0186
  215MOL   H12743355   5.841   5.072   2.068 -2.0540 -0.0693 -4.1456
  215MOL   H12843356   5.693   5.129   2.257  0.3898 -0.1252  1.0657
  215MOL   H12943357   5.537   4.896   2.482  0.2971 -0.2085 -0.1924
  215MOL   H13043358   5.690   4.983   2.522 -0.0430 -1.2923  0.9246
  215MOL   H13143359   5.550   5.059   2.441 -1.5897 -1.7326  1.4654
  215MOL   C13243360   5.885   5.062   2.330  0.4109 -0.1350 -0.9726
  215MOL   C13343361   5.948   5.197   2.299 -0.2040  0.2163 -0.1840
  215MOL   O13443362   5.867   5.294   2.370  0.0940 -0.2379  0.0820
  215MOL   C13543363   5.901   5.427   2.324  0.4448  0.2848 -0.0605
  215MOL   H13643364   5.956   4.983   2.308  0.6279 -0.0527 -0.5807
  215MOL   H13743365   5.897   5.064   2.438 -1.0721 -1.2126 -0.7783
  215MOL   H13843366   5.945   5.221   2.193 -1.4204 -0.8495 -0.4038
  215MOL   H13943367   5.971   5.432   2.240  0.3365 -2.9535 -0.4310
  215MOL   H14043368   5.807   5.474   2.293 -0.6334 -2.2419 -0.7835
  215MOL   H14143369   5.939   5.493   2.402 -0.7653 -1.0398  1.7008
  215MOL   C14243370   6.098   5.214   2.347  0.7062  0.3315  0.2509
  215MOL   C14343371   6.196   5.146   2.249  0.2446 -0.0541 -0.3843
  215MOL   O14443372   6.187   5.223   2.130  0.2618  0.1309  0.2116
  215MOL   C14543373   6.214   5.152   2.008  0.1246 -0.2533 -0.3198
  215MOL   H14643374   6.111   5.163   2.443 -0.4233  0.6987  0.6087
  215MOL   H14743375   6.132   5.317   2.360  0.0683  0.6741 -0.6953
  215MOL   H14843376   6.158   5.044   2.243 -2.6462  0.8533  1.4576
  215MOL   H14943377   6.126   5.100   1.970  0.1547 -0.8652  0.4296
  215MOL   H15043378   6.224   5.232   1.935 -1.0422 -0.1107 -0.3298
  215MOL   H15143379   6.309   5.098   2.012 -0.7227 -1.9247 -1.9549
  215MOL   C15243380   6.338   5.166   2.300  0.1611  0.1454 -0.0279
  215MOL   C15343381   6.379   5.095   2.431  0.1855  0.5568 -0.2321
  215MOL   O15443382   6.372   4.956   2.406  0.2543 -0.2690  0.2447
  215MOL   C15543383   6.316   4.884   2.519 -0.0653  0.2365  0.0830
  215MOL   H15643384   6.351   5.273   2.311 -2.0483  0.4359  0.1431
  215MOL   H15743385   6.406   5.142   2.219  0.7427  1.8144 -0.0472
  215MOL   H15843386   6.301   5.124   2.502  0.6215 -0.9813  0.8926
  215MOL   H15943387   6.308   4.777   2.498 -0.8768  0.3633 -0.2556
  215MOL   H16043388   6.377   4.892   2.609  1.2986  1.0224 -0.8842
  215MOL   H16143389   6.214   4.918   2.537 -0.1869  0.5069 -1.0760
  215MOL   C16243390   6.523   5.118   2.481  0.3669 -0.0370  0.1269
  215MOL   C16343391   6.555   5.134   2.628  0.3984  0.0070 -0.1454
  215MOL   O16443392   6.676   5.209   2.646  0.0495  0.2282  0.1079
  215MOL   C16543393   6.791   5.137   2.682  0.4763  0.4869 -0.6219
  215MOL   H16643394   6.546   5.212   2.430  2.7597 -0.6520  0.0080
  215MOL   H16743395   6.597   5.052   2.435  1.8371  0.9694  0.9912
  215MOL   H16843396   6.570   5.037   2.676 -2.2563 -0.1579  0.4207
  215MOL   H16943397   6.768   5.108   2.784 -1.1567  0.9756 -0.8462
  215MOL   H17043398   6.806   5.052   2.616  1.0314  0.6634 -0.7277
  215MOL   H17143399   6.882   5.198   2.680 -0.1076  1.3581 -1.1730
  215MOL   C17243400   6.447   5.220   2.709 -0.4301 -0.5177  0.9411
  215MOL   C17343401   6.396   5.352   2.649  0.0563 -0.2134 -0.1473
  215MOL   O17443402   6.269   5.391   2.705  0.5290  0.2288 -0.2708
  215MOL   C17543403   6.265   5.398   2.850 -0.0671 -0.7399  0.5776
  215MOL   H17643404   6.483   5.236   2.811  0.4165 -1.4765  0.7944
  215MOL   H17743405   6.358   5.158   2.717 -0.2941 -0.8542 -0.1243
  215MOL   H17843406   6.379   5.332   2.544  0.4366  0.2454 -0.2975
  215MOL   H17943407   6.314   5.485   2.894 -1.6870 -0.1824  1.3242
  215MOL   H18043408   6.158   5.410   2.868 -0.0908  1.3518 -0.8676
  215MOL   H18143409   6.298   5.305   2.896 -0.7510 -1.6377 -0.7053
  215MOL   C18243410   6.489   5.473   2.656  0.5882 -0.0925 -0.1168
  215MOL   C18343411   6.431   5.611   2.607  0.2441  0.1127  0.4265
  215MOL   O18443412   6.535   5.708   2.636 -0.2881 -0.1146 -0.7115
  215MOL   C18543413   6.502   5.838   2.616 -0.2638 -0.1345 -0.1476
  215MOL   H18643414   6.582   5.457   2.601 -1.0038  0.4357 -3.0160
  215MOL   H18743415   6.527   5.479   2.758 -0.2649  0.3945  0.1691
  215MOL   H18843416   6.343   5.628   2.670 -1.2643  0.3139 -1.6894
  215MOL   H18943417   6.480   5.861   2.512 -1.2466  0.1449  0.1122
  215MOL   H19043418   6.413   5.860   2.674 -0.6548 -0.1584 -0.7350
  215MOL   H19143419   6.587   5.900   2.643  1.8803 -2.1075 -2.1461
  215MOL   C19243420   6.357   5.612   2.471 -0.0397  0.4565 -0.3100
  215MOL   C19343421   6.451   5.563   2.365 -0.1840  0.3245  0.1946
  215MOL   O19443422   6.367   5.551   2.247  0.0901 -0.1855  0.2120
  215MOL   C19543423   6.445   5.529   2.129  0.5141  0.6105  0.2754
  215MOL   H19643424   6.309   5.707   2.448 -0.9757  0.3422  1.0936
  215MOL   H19743425   6.278   5.537   2.476 -0.7933  1.2480 -0.2491
  215MOL   H19843426   6.493   5.467   2.396  3.1597  1.9703  0.9711
  215MOL   H19943427   6.541   5.491   2.163  0.0520 -0.4580  0.4202
  215MOL   H20043428   6.401   5.444   2.075  3.1007 -1.7310  1.6976
  215MOL   H20143429   6.445   5.615   2.063  0.8897  0.3535 -0.0622
  215MOL   H20243430   6.526   5.640   2.348 -1.8447  2.6431  2.8800
  216MOL     C143431   3.758   2.238   4.754 -0.5797  0.0745  0.4263
  216MOL     C243432   3.667   2.245   4.625  0.0129  0.6518 -0.0663
  216MOL     O343433   3.758   2.240   4.519 -0.3003  0.3522 -0.2253
  216MOL     C443434   3.778   2.356   4.434  0.2621 -0.2505 -0.5443
  216MOL     H543435   3.823   2.151   4.750  0.4238  0.8037  0.7130
  216MOL     H643436   3.816   2.330   4.748 -0.7845  0.4022  3.0905
  216MOL     H743437   3.613   2.340   4.628 -0.2225  0.5488 -1.0122
  216MOL     H843438   3.856   2.338   4.360  0.9682 -3.5922  0.9143
  216MOL     H943439   3.686   2.380   4.380 -1.7276 -0.7126  2.5280
  216MOL    H1043440   3.800   2.434   4.506  0.2537 -2.1615  1.5956
  216MOL    H1143441   3.705   2.224   4.848  1.4313  1.1965  1.7652
  216MOL    C1243442   3.574   2.124   4.609 -0.7448  0.2927  0.5368
  216MOL    C1343443   3.459   2.105   4.705 -0.1024  0.2235 -0.0193
  216MOL    O1443444   3.376   2.218   4.685  0.5075  0.0456 -0.1455
  216MOL    C1543445   3.289   2.259   4.794  0.3976 -0.6427 -0.7446
  216MOL    H1643446   3.626   2.028   4.605  0.7251  1.1368 -1.4151
  216MOL    H1743447   3.522   2.122   4.513  0.8088  1.9511 -0.3654
  216MOL    H1843448   3.502   2.117   4.804 -0.1748 -1.6074  0.2447
  216MOL    H1943449   3.239   2.351   4.765  0.5020 -0.2200  0.3760
  216MOL    H2043450   3.220   2.178   4.814  0.3387 -0.2053  0.9580
  216MOL    H2143451   3.343   2.290   4.884 -0.2831  0.4522 -0.6963
  216MOL    C2243452   3.385   1.969   4.709  0.5685 -0.8789 -0.3370
  216MOL    C2343453   3.466   1.843   4.748 -0.2862 -0.6483  0.1642
  216MOL    O2443454   3.532   1.872   4.867  0.1748 -0.2031  0.0524
  216MOL    C2543455   3.670   1.828   4.860 -0.0102 -0.1627  0.0595
  216MOL    H2643456   3.332   1.953   4.615 -0.4302  0.5238 -0.0170
  216MOL    H2743457   3.307   1.969   4.785  1.2368 -0.6150  0.3524
  216MOL    H2843458   3.540   1.815   4.672 -0.2697  1.9572 -0.8068
  216MOL    H2943459   3.694   1.840   4.966  0.3344 -1.4981  0.1439
  216MOL    H3043460   3.704   1.730   4.827 -0.0306 -0.6955  1.5729
  216MOL    H3143461   3.718   1.905   4.799  0.3575  0.3105  0.9315
  216MOL    C3243462   3.383   1.722   4.792  0.2530  0.7299  0.0980
  216MOL    C3343463   3.324   1.645   4.671  0.7527  0.7386 -0.4879
  216MOL    O3443464   3.324   1.511   4.713 -0.1860  0.4180  0.4405
  216MOL    C3543465   3.246   1.481   4.834 -0.7305 -0.0744 -0.3937
  216MOL    H3643466   3.302   1.749   4.859 -0.1130 -0.3761  0.1200
  216MOL    H3743467   3.452   1.653   4.840 -0.1917  0.9645  1.0778
  216MOL    H3843468   3.398   1.649   4.591  1.8863 -1.8022  0.3711
  216MOL    H3943469   3.187   1.392   4.813 -0.1373 -0.9451  1.5170
  216MOL    H4043470   3.326   1.454   4.903 -0.8181  2.1499  0.6355
  216MOL    H4143471   3.190   1.565   4.876  0.3640  0.1741  0.6147
  216MOL    C4243472   3.184   1.688   4.616 -0.5518  0.8122 -0.2987
  216MOL    C4343473   3.112   1.585   4.534 -0.0305 -0.8756  0.1061
  216MOL    O4443474   2.973   1.607   4.530  0.3254 -0.4294  0.0903
  216MOL    C4543475   2.894   1.603   4.650  0.2346 -0.1523 -0.2746
  216MOL    H4643476   3.195   1.785   4.567  1.5438  2.2374  2.7953
  216MOL    H4743477   3.122   1.708   4.703  0.2624  1.2694  0.1855
  216MOL    H4843478   3.121   1.496   4.597  1.8797 -0.2521  0.7716
  216MOL    H4943479   2.913   1.509   4.701 -1.6936 -2.1274 -3.0236
  216MOL    H5043480   2.913   1.685   4.719 -0.5739 -2.0817  2.3270
  216MOL    H5143481   2.791   1.607   4.612  0.2491  1.8570 -0.1445
  216MOL    C5243482   3.163   1.578   4.387 -0.1040  0.0307 -0.2945
  216MOL    C5343483   3.092   1.473   4.295 -0.0452 -0.2363  0.1805
  216MOL    O5443484   3.179   1.470   4.178  0.3997 -0.0642  0.0960
  216MOL    C5543485   3.148   1.582   4.092 -0.0557  0.3649 -0.2376
  216MOL    H5643486   3.268   1.551   4.393 -0.8266 -2.8096 -0.0334
  216MOL    H5743487   3.136   1.674   4.342 -3.3787 -0.5378  0.3624
  216MOL    H5843488   2.985   1.474   4.272  0.4500 -2.5944 -2.4212
  216MOL    H5943489   3.170   1.676   4.144  1.4010  0.7265 -1.4718
  216MOL    H6043490   3.223   1.586   4.013 -2.2684 -0.8574 -2.4516
  216MOL    H6143491   3.050   1.565   4.049  0.5139  1.4984 -2.0498
  216MOL    C6243492   3.109   1.328   4.356 -0.0961  0.5903  0.4536
  216MOL    C6343493   3.101   1.200   4.268 -0.7604 -0.6149 -0.3737
  216MOL    O6443494   3.138   1.084   4.352  0.2120 -0.2336  0.1908
  216MOL    C6543495   3.278   1.065   4.372 -0.3123  0.2307  0.3960
  216MOL    H6643496   3.042   1.303   4.438  2.2655 -2.5571  1.5241
  216MOL    H6743497   3.208   1.325   4.401 -0.4873 -0.6719  1.2730
  216MOL    H6843498   3.176   1.216   4.190 -0.5187  1.3834  0.2526
  216MOL    H6943499   3.303   1.130   4.456  1.2269  1.1564 -0.7577
  216MOL    H7043500   3.297   0.965   4.411 -1.1336  0.4520  1.4105
  216MOL    H7143501   3.341   1.067   4.283  2.6021  1.9981  2.3857
  216MOL    C7243502   2.969   1.177   4.199  0.0398 -0.8903 -0.3627
  216MOL    C7343503   2.951   1.043   4.121  0.5633 -0.1912  0.2515
  216MOL    O7443504   2.837   1.065   4.031 -0.1770  0.6155  0.4969
  216MOL    C7543505   2.722   0.991   4.072 -0.6099 -0.1920  0.3916
  216MOL    H7643506   2.942   1.257   4.129  0.7341 -0.8352 -0.5725
  216MOL    H7743507   2.885   1.183   4.268  0.0353 -0.0257 -0.4344
  216MOL    H7843508   2.936   0.953   4.182  1.6212 -1.2527 -1.0395
  216MOL    H7943509   2.659   0.993   3.983  0.0795 -1.6974 -0.1462
  216MOL    H8043510   2.739   0.883   4.082  0.6957 -0.0595 -0.2935
  216MOL    H8143511   2.674   1.020   4.165  0.9876  0.3607  1.0628
  216MOL    C8243512   3.076   1.001   4.039  0.3766  0.0147 -0.4089
  216MOL    C8343513   3.053   0.863   3.968  0.3930  0.3767 -0.8162
  216MOL    O8443514   3.150   0.839   3.869 -0.1744  0.1572 -0.0972
  216MOL    C8543515   3.129   0.928   3.759  0.2394 -0.3054  0.1797
  216MOL    H8643516   3.171   1.004   4.091 -0.3543  0.1470  0.9248
  216MOL    H8743517   3.101   1.082   3.971 -0.4791  1.8708  1.4364
  216MOL    H8843518   2.955   0.850   3.924  0.1735 -1.2192  0.1316
  216MOL    H8943519   3.021   0.942   3.750 -0.2049 -2.0266  2.3396
  216MOL    H9043520   3.184   1.021   3.777  2.0384 -1.4176  0.5243
  216MOL    H9143521   3.169   0.891   3.665  1.4108 -0.1657  0.6144
  216MOL    C9243522   3.056   0.745   4.069 -0.3692 -0.8677 -0.6132
  216MOL    C9343523   3.177   0.734   4.169  0.5313  0.2617 -0.4141
  216MOL    O9443524   3.162   0.613   4.240 -0.6849  0.4134  0.0451
  216MOL    C9543525   3.152   0.631   4.372  0.0851  0.4441  0.0219
  216MOL    H9643526   3.029   0.649   4.025  0.0984 -2.6813  2.9093
  216MOL    H9743527   2.969   0.767   4.131  0.5728  1.9033 -0.1665
  216MOL    H9843528   3.180   0.826   4.226  0.6871  0.3005 -0.4839
  216MOL    H9943529   3.155   0.534   4.423  0.8523  0.0472 -0.7661
  216MOL   H10043530   3.242   0.681   4.407 -0.2475  1.7896 -1.0221
  216MOL   H10143531   3.065   0.685   4.409 -0.1768 -0.8671  1.3887
  216MOL   C10243532   3.309   0.727   4.101  0.6353 -0.5204 -0.0327
  216MOL   C10343533   3.432   0.704   4.184 -1.0581  0.0744  0.8227
  216MOL   O10443534   3.460   0.566   4.191 -0.1098 -0.4399 -0.8343
  216MOL   C10543535   3.507   0.520   4.310  0.1869  0.1394 -0.2697
  216MOL   H10643536   3.323   0.828   4.062 -0.9856 -0.5002 -0.5944
  216MOL   H10743537   3.312   0.655   4.019  3.2788 -0.2202 -0.2413
  216MOL   H10843538   3.395   0.724   4.284 -0.9867 -0.5846  0.9803
  216MOL   H10943539   3.431   0.517   4.389 -0.3751 -3.2088 -0.8668
  216MOL   H11043540   3.546   0.418   4.305 -0.5836 -0.1568 -0.2169
  216MOL   H11143541   3.593   0.573   4.352  1.4772 -0.2980 -2.2836
  216MOL   C11243542   3.547   0.797   4.158 -0.2306  0.2031 -0.6482
  216MOL   C11343543   3.609   0.781   4.016  0.1494  0.4220 -0.3657
  216MOL   O11443544   3.701   0.888   4.008  0.7531  0.5332  0.6682
  216MOL   C11543545   3.644   1.016   3.985 -0.8974 -0.6574 -0.0730
  216MOL   H11643546   3.632   0.782   4.225  0.2243  3.0283 -0.5433
  216MOL   H11743547   3.503   0.893   4.183  1.4122  1.0119 -0.7786
  216MOL   H11843548   3.526   0.794   3.946  0.5194  0.5398 -0.7857
  216MOL   H11943549   3.715   1.097   3.970 -0.3873 -1.2497 -0.9205
  216MOL   H12043550   3.578   1.018   3.898 -1.1602  0.7877  0.1429
  216MOL   H12143551   3.569   1.043   4.059 -1.7820 -2.1364 -0.4111
  216MOL   C12243552   3.684   0.647   3.991 -0.2078 -0.1997 -0.0581
  216MOL   C12343553   3.755   0.623   3.856  0.2154  0.2870  0.3311
  216MOL   O12443554   3.823   0.501   3.870 -0.6275 -0.1513 -0.2646
  216MOL   C12543555   3.938   0.467   3.790 -0.2552  0.1218 -0.4428
  216MOL   H12643556   3.613   0.565   3.990  1.2268 -1.4627 -1.8329
  216MOL   H12743557   3.754   0.633   4.073 -0.6505 -0.9215  0.1974
  216MOL   H12843558   3.825   0.701   3.827  1.3159 -0.7930  0.0203
  216MOL   H12943559   3.964   0.362   3.795 -1.5123 -0.2701 -1.6272
  216MOL   H13043560   3.912   0.491   3.686 -1.1412  1.2286  0.0195
  216MOL   H13143561   4.030   0.521   3.813  0.2537 -0.2040 -1.6668
  216MOL   C13243562   3.655   0.597   3.741 -0.0694 -0.0517 -0.3944
  216MOL   C13343563   3.682   0.673   3.612  0.1679 -0.0411 -0.0475
  216MOL   O13443564   3.608   0.619   3.506  0.5262  0.3420 -0.1084
  216MOL   C13543565   3.657   0.519   3.425  0.0979 -0.2857 -0.1300
  216MOL   H13643566   3.557   0.640   3.758 -0.5961 -2.0189  1.9455
  216MOL   H13743567   3.638   0.489   3.740  0.2450 -0.1270  1.0846
  216MOL   H13843568   3.786   0.660   3.582  0.6551 -0.5452  1.8254
  216MOL   H13943569   3.579   0.451   3.391 -0.7928  0.8027 -0.3169
  216MOL   H14043570   3.704   0.566   3.338 -0.9465  3.1832  1.1002
  216MOL   H14143571   3.737   0.459   3.467 -0.3257 -1.1183 -0.5039
  216MOL   C14243572   3.646   0.825   3.627 -0.2735 -0.7661  0.1871
  216MOL   C14343573   3.683   0.904   3.500 -0.5217  0.2943 -1.1560
  216MOL   O14443574   3.642   1.042   3.515 -0.0391 -0.2403 -0.2817
  216MOL   C14543575   3.498   1.069   3.500  0.0008  0.4173  0.2467
  216MOL   H14643576   3.701   0.871   3.709  0.0017  1.7599 -1.3477
  216MOL   H14743577   3.539   0.834   3.648 -0.3146 -0.6672 -0.0572
  216MOL   H14843578   3.639   0.842   3.422  0.2910 -2.6860  0.6680
  216MOL   H14943579   3.438   1.052   3.589  0.4462 -0.6671  0.3448
  216MOL   H15043580   3.481   1.172   3.467  0.1674  0.8402  1.4487
  216MOL   H15143581   3.453   1.017   3.416  2.8524 -1.5955 -0.0890
  216MOL   C15243582   3.830   0.919   3.484  0.0989 -0.3965  0.1208
  216MOL   C15343583   3.882   1.008   3.367  0.8132 -0.4448  0.2368
  216MOL   O15443584   4.006   1.071   3.398  0.3079 -0.0752 -0.3788
  216MOL   C15543585   3.997   1.196   3.468 -1.0052 -0.0012  0.0025
  216MOL   H15643586   3.880   0.822   3.477 -0.6045 -0.6980 -0.8145
  216MOL   H15743587   3.870   0.966   3.574  1.4665  2.1803 -1.7937
  216MOL   H15843588   3.810   1.085   3.338  1.2845 -0.2980 -0.5813
  216MOL   H15943589   3.944   1.271   3.409  0.4332  1.4970  0.5690
  216MOL   H16043590   3.943   1.180   3.561 -1.9434 -1.2766 -0.7497
  216MOL   H16143591   4.098   1.232   3.490 -1.2230  0.7075 -0.1447
  216MOL   C16243592   3.924   0.929   3.242 -1.0266  0.3041  0.8854
  216MOL   C16343593   3.806   0.871   3.159  0.2876  0.1135 -0.0906
  216MOL   O16443594   3.713   0.975   3.121  0.0518  0.1480  0.3976
  216MOL   C16543595   3.580   0.920   3.120 -0.3514  0.4346  0.0106
  216MOL   H16643596   3.993   0.849   3.269  0.6127  1.4714  0.2549
  216MOL   H16743597   3.993   0.997   3.192  0.6277 -2.1175 -0.2376
  216MOL   H16843598   3.759   0.794   3.220 -0.1806 -0.5361 -1.2576
  216MOL   H16943599   3.537   0.947   3.216 -1.9595  0.2793 -0.6561
  216MOL   H17043600   3.519   0.954   3.037 -0.2544 -2.5397 -1.3185
  216MOL   H17143601   3.567   0.812   3.119 -2.9644  0.6981  1.8920
  216MOL   C17243602   3.847   0.810   3.022  0.2329 -0.0835 -0.3878
  216MOL   C17343603   3.913   0.671   3.047  0.2181  0.0311 -0.2118
  216MOL   O17443604   3.819   0.580   3.109 -0.6045 -0.7239  0.3242
  216MOL   C17543605   3.710   0.531   3.027 -0.2766  0.6444  0.0448
  216MOL   H17643606   3.914   0.874   2.964  1.3541 -1.0956 -0.2422
  216MOL   H17743607   3.766   0.780   2.956 -0.0927 -0.1016  0.0225
  216MOL   H17843608   3.993   0.672   3.121  0.8616 -0.6779 -0.8831
  216MOL   H17943609   3.729   0.472   2.937 -2.8722 -0.2895  0.0691
  216MOL   H18043610   3.656   0.464   3.094  1.7451 -1.4156 -0.3320
  216MOL   H18143611   3.643   0.614   3.007  0.9814  1.7904  0.5219
  216MOL   C18243612   3.980   0.605   2.925 -0.2673  0.2986 -0.0880
  216MOL   C18343613   4.114   0.671   2.882  0.5819 -0.4487 -0.8055
  216MOL   O18443614   4.197   0.647   2.992  0.0657 -0.0052  0.4327
  216MOL   C18543615   4.285   0.752   3.032  0.8294 -0.3194  0.5692
  216MOL   H18643616   3.905   0.592   2.847 -0.9137  0.6682  0.4636
  216MOL   H18743617   4.000   0.502   2.957  1.9720  0.3130 -1.3010
  216MOL   H18843618   4.100   0.778   2.867  1.4785 -0.0242  1.2026
  216MOL   H18943619   4.358   0.727   3.109  1.1626  0.6437  0.5767
  216MOL   H19043620   4.346   0.782   2.946  0.2942  1.3929  0.7651
  216MOL   H19143621   4.221   0.836   3.059  0.0019  0.1627 -2.6578
  216MOL   C19243622   4.162   0.594   2.751  0.5228 -0.2840 -0.8043
  216MOL   C19343623   4.293   0.642   2.687  0.0360  0.3983  0.2182
  216MOL   O19443624   4.324   0.562   2.570  0.0348  0.1443 -0.5341
  216MOL   C19543625   4.433   0.615   2.497 -0.0173 -0.0690  0.1831
  216MOL   H19643626   4.086   0.594   2.673  1.1217  3.6985 -1.4757
  216MOL   H19743627   4.168   0.488   2.774  1.4606 -0.0952 -0.1772
  216MOL   H19843628   4.369   0.649   2.764 -0.6368  2.5855  0.7336
  216MOL   H19943629   4.525   0.598   2.553  1.6831 -0.4488 -2.6354
  216MOL   H20043630   4.443   0.561   2.403  1.1189  0.4564 -0.0151
  216MOL   H20143631   4.432   0.724   2.490 -2.1440 -0.0327  0.6631
  216MOL   H20243632   4.285   0.745   2.653  2.0408  0.3103 -0.5613
  217MOL     C143633   2.389   5.327   2.739 -0.7665 -0.0724 -0.7309
  217MOL     C243634   2.516   5.300   2.822  0.7043 -1.1531 -0.6322
  217MOL     O343635   2.581   5.181   2.780 -0.1738 -0.1571  0.1119
  217MOL     C443636   2.546   5.060   2.853 -0.8637 -0.7505  0.7417
  217MOL     H543637   2.355   5.428   2.759  1.3105  0.5320 -0.2118
  217MOL     H643638   2.408   5.313   2.633  3.0566 -4.5230  0.3705
  217MOL     H743639   2.504   5.291   2.930 -0.9216 -0.0093 -0.6879
  217MOL     H843640   2.561   5.069   2.961  2.0720  1.0549  0.2598
  217MOL     H943641   2.440   5.038   2.839 -0.6248 -1.8443  0.6277
  217MOL    H1043642   2.595   4.973   2.811  0.5931  0.7585 -0.8020
  217MOL    H1143643   2.315   5.258   2.781 -0.1708  0.4079  1.1670
  217MOL    C1243644   2.625   5.410   2.802 -0.0076  0.8800  0.0943
  217MOL    C1343645   2.595   5.555   2.856 -0.4729  0.4412  0.1236
  217MOL    O1443646   2.523   5.632   2.759 -0.2961  0.2194 -0.1393
  217MOL    C1543647   2.604   5.663   2.642  0.6682  0.0248  0.0713
  217MOL    H1643648   2.643   5.410   2.695 -1.5252  1.0287 -0.1765
  217MOL    H1743649   2.710   5.372   2.860 -0.6378  0.5472  0.8231
  217MOL    H1843650   2.691   5.606   2.856 -0.6818  0.8486  2.4753
  217MOL    H1943651   2.695   5.710   2.680  0.4594 -1.3678  2.4559
  217MOL    H2043652   2.626   5.571   2.587 -0.7915  0.0511 -0.5679
  217MOL    H2143653   2.553   5.736   2.580  0.7093  1.7478  2.0334
  217MOL    C2243654   2.533   5.559   2.997  0.3686  0.5182  0.4231
  217MOL    C2343655   2.560   5.697   3.053  0.1723  0.1792 -0.2638
  217MOL    O2443656   2.438   5.722   3.127 -0.0142  0.6633 -0.2247
  217MOL    C2543657   2.404   5.857   3.133  0.1295  0.0759 -0.0791
  217MOL    H2643658   2.561   5.482   3.069 -1.7365 -0.7686 -0.0929
  217MOL    H2743659   2.428   5.534   2.987  0.5212 -0.0268  0.1018
  217MOL    H2843660   2.570   5.777   2.979  0.1400  0.2633 -0.1758
  217MOL    H2943661   2.464   5.890   3.217 -0.6650  0.5249  0.3211
  217MOL    H3043662   2.427   5.922   3.049 -0.9208 -1.0261 -1.2406
  217MOL    H3143663   2.303   5.863   3.174  0.3664 -2.2707  0.9115
  217MOL    C3243664   2.681   5.695   3.150 -0.6033  0.1595  0.2043
  217MOL    C3343665   2.821   5.685   3.094 -0.1782  0.9729 -0.1113
  217MOL    O3443666   2.849   5.556   3.046 -0.1789 -0.0449 -0.1922
  217MOL    C3543667   2.871   5.455   3.144  0.0704 -0.1716  0.6595
  217MOL    H3643668   2.666   5.614   3.222 -2.4685 -1.6334 -2.1357
  217MOL    H3743669   2.675   5.784   3.212 -0.7390  1.1547 -1.2289
  217MOL    H3843670   2.888   5.684   3.180  0.7056  0.5966 -0.7925
  217MOL    H3943671   2.869   5.367   3.079  1.4648  0.4757 -0.2806
  217MOL    H4043672   2.971   5.454   3.187 -0.6268 -0.0563  2.3300
  217MOL    H4143673   2.794   5.445   3.220  0.9232  5.0469  2.4209
  217MOL    C4243674   2.867   5.798   2.991  0.0071 -0.6495  0.3218
  217MOL    C4343675   2.867   5.949   3.038  0.4126 -0.3795  0.4557
  217MOL    O4443676   2.973   5.954   3.136  0.4793 -0.0659  0.4616
  217MOL    C4543677   2.937   6.037   3.245 -0.7315  0.4582  0.1161
  217MOL    H4643678   2.806   5.788   2.901  0.9545  0.9345 -0.5030
  217MOL    H4743679   2.968   5.772   2.960  0.9648 -0.5596  3.2113
  217MOL    H4843680   2.770   5.974   3.080 -0.0424  1.3474 -1.5577
  217MOL    H4943681   2.865   5.988   3.309 -1.4337 -1.1939 -1.8785
  217MOL    H5043682   3.023   6.027   3.312 -1.0683 -0.3374  0.4317
  217MOL    H5143683   2.916   6.143   3.229  0.5229  0.5841 -0.8819
  217MOL    C5243684   2.894   6.047   2.924  0.5014  0.3086 -0.3782
  217MOL    C5343685   2.782   6.062   2.813 -0.1535 -0.0229 -0.1729
  217MOL    O5443686   2.807   5.957   2.722  0.5024  0.1669 -0.0336
  217MOL    C5543687   2.747   5.973   2.598  0.0598  0.1923 -0.0490
  217MOL    H5643688   2.985   6.011   2.877  0.6950 -1.2968  1.1983
  217MOL    H5743689   2.910   6.143   2.975 -0.6363 -0.2552  1.0901
  217MOL    H5843690   2.800   6.155   2.760  0.2104  0.4918  0.8441
  217MOL    H5943691   2.756   6.074   2.558  3.2136 -0.7369 -1.8785
  217MOL    H6043692   2.801   5.912   2.526  0.2527  1.1655 -0.7369
  217MOL    H6143693   2.641   5.946   2.601 -0.0735  0.4211 -2.0283
  217MOL    C6243694   2.629   6.059   2.851  0.5058 -1.3168 -0.0631
  217MOL    C6343695   2.582   6.202   2.877  0.0952  0.2182 -0.2537
  217MOL    O6443696   2.436   6.195   2.891 -0.1309  0.7383  0.0755
  217MOL    C6543697   2.355   6.303   2.847  0.5015  0.0820  0.3676
  217MOL    H6643698   2.605   5.992   2.934 -3.3323 -0.0762 -0.0712
  217MOL    H6743699   2.561   6.016   2.777 -2.9151  0.9031  1.6477
  217MOL    H6843700   2.610   6.272   2.798  2.4113 -0.3650  0.0414
  217MOL    H6943701   2.250   6.277   2.848  0.0265  1.9173  1.1098
  217MOL    H7043702   2.365   6.380   2.924 -1.4481 -1.0221  1.7444
  217MOL    H7143703   2.386   6.333   2.746  0.1034 -1.1843 -0.1386
  217MOL    C7243704   2.626   6.260   3.013  0.3135  0.2516  0.2975
  217MOL    C7343705   2.674   6.409   3.023 -0.1274 -0.1354 -0.5684
  217MOL    O7443706   2.712   6.426   3.161 -0.4527 -0.1287  0.3570
  217MOL    C7543707   2.618   6.477   3.249  0.4326  0.2993 -0.3053
  217MOL    H7643708   2.718   6.211   3.044 -0.0597 -1.6162 -1.4733
  217MOL    H7743709   2.555   6.232   3.091 -1.0914 -0.9209 -1.3646
  217MOL    H7843710   2.588   6.471   2.998 -0.0406  0.6096  0.9158
  217MOL    H7943711   2.655   6.467   3.351 -2.2543 -0.3874  0.6615
  217MOL    H8043712   2.585   6.577   3.221  0.6303  0.8255  1.3407
  217MOL    H8143713   2.522   6.425   3.253  1.7665 -2.2108 -0.3841
  217MOL    C8243714   2.805   6.436   2.941 -0.7655 -0.6976 -0.3528
  217MOL    C8343715   2.817   6.569   2.869  0.6523 -0.3547 -0.4481
  217MOL    O8443716   2.711   6.566   2.768  0.1887  0.0847 -0.4933
  217MOL    C8543717   2.763   6.555   2.641  0.4206  0.1843 -0.3284
  217MOL    H8643718   2.825   6.363   2.863 -4.1282 -0.0588 -1.9473
  217MOL    H8743719   2.883   6.437   3.017 -0.5938 -0.5010 -0.5279
  217MOL    H8843720   2.912   6.585   2.819  0.6229  0.0128 -0.3827
  217MOL    H8943721   2.845   6.626   2.629  0.5676 -0.2401 -2.0055
  217MOL    H9043722   2.797   6.453   2.629 -2.0554 -0.5234 -1.8708
  217MOL    H9143723   2.683   6.569   2.567 -0.8363  0.9666  1.1520
  217MOL    C9243724   2.786   6.695   2.959 -0.2391  0.1218 -0.2422
  217MOL    C9343725   2.895   6.720   3.060 -0.1808  0.1536 -0.5856
  217MOL    O9443726   3.025   6.734   2.997 -0.0810 -0.4589 -0.2238
  217MOL    C9543727   3.117   6.633   3.038  0.1806 -0.4486 -0.1858
  217MOL    H9643728   2.682   6.697   2.993 -0.2134 -0.4413 -0.1219
  217MOL    H9743729   2.788   6.786   2.900 -0.0554  1.3008  1.5673
  217MOL    H9843730   2.904   6.637   3.129 -1.7378  0.3581 -0.1118
  217MOL    H9943731   3.085   6.539   2.994  0.1005  0.4664 -2.1548
  217MOL   H10043732   3.215   6.660   2.998  0.7098 -1.2487  0.5568
  217MOL   H10143733   3.127   6.634   3.147 -0.2390 -1.4827 -0.1351
  217MOL   C10243734   2.881   6.843   3.154 -0.2752  0.0052  0.5444
  217MOL   C10343735   2.829   6.973   3.093 -0.2450  0.4284 -0.4337
  217MOL   O10443736   2.689   6.955   3.063  0.1091  0.1839  0.2701
  217MOL   C10543737   2.660   7.027   2.947 -0.0319 -0.4107 -0.0037
  217MOL   H10643738   2.982   6.857   3.194  0.2893  3.6462 -1.8907
  217MOL   H10743739   2.829   6.825   3.248  1.6710  2.8598  2.2415
  217MOL   H10843740   2.884   6.991   3.001  2.3207 -0.2365  0.9378
  217MOL   H10943741   2.693   7.131   2.941 -1.2688 -0.0941 -1.7636
  217MOL   H11043742   2.695   6.985   2.852 -3.5154 -1.5590 -0.8605
  217MOL   H11143743   2.554   7.025   2.924  0.1922  2.2965 -1.6125
  217MOL   C11243744   2.841   7.095   3.187  0.1047 -0.4570 -0.2363
  217MOL   C11343745   2.990   7.129   3.217 -0.5361 -0.2634  0.5428
  217MOL   O11443746   3.061   7.163   3.100 -0.7508  0.4754  0.4033
  217MOL   C11543747   3.176   7.085   3.090 -0.1457 -0.1141 -0.4000
  217MOL   H11643748   2.787   7.088   3.282  0.7683 -1.8280  0.0485
  217MOL   H11743749   2.797   7.180   3.135 -0.2801 -1.0829 -0.9321
  217MOL   H11843750   3.028   7.042   3.270  0.7138 -0.8889 -1.3155
  217MOL   H11943751   3.219   7.081   3.190  0.0220  0.2173 -0.4572
  217MOL   H12043752   3.153   6.985   3.054  0.2655 -0.5213  0.4597
  217MOL   H12143753   3.243   7.135   3.019  1.5205 -0.4187  0.9265
  217MOL   C12243754   2.986   7.254   3.314 -0.1709  0.3220  0.0584
  217MOL   C12343755   3.112   7.308   3.381  0.0786 -0.9732  0.3352
  217MOL   O12443756   3.087   7.428   3.450  0.4975 -0.1566  0.2364
  217MOL   C12543757   3.134   7.550   3.389 -0.2997  0.4733  0.0332
  217MOL   H12643758   2.920   7.220   3.393 -0.2405 -2.0120 -0.9708
  217MOL   H12743759   2.931   7.339   3.274 -2.3661  0.4454  3.1799
  217MOL   H12843760   3.178   7.339   3.300 -1.7831 -0.8870 -1.1719
  217MOL   H12943761   3.102   7.637   3.447  1.5608  0.8168  0.5683
  217MOL   H13043762   3.242   7.546   3.375 -0.0897 -2.4755  1.9751
  217MOL   H13143763   3.080   7.566   3.296 -0.2301  0.7664  0.0414
  217MOL   C13243764   3.181   7.209   3.480 -0.2960 -0.4110 -0.1130
  217MOL   C13343765   3.319   7.258   3.530  1.0163  0.9014 -0.4684
  217MOL   O13443766   3.358   7.165   3.630 -0.3797 -0.2377 -0.3649
  217MOL   C13543767   3.337   7.217   3.760 -0.3228  0.0524  0.0081
  217MOL   H13643768   3.183   7.108   3.438  0.3066 -0.5612  0.2685
  217MOL   H13743769   3.119   7.209   3.570  0.3149 -0.7205  0.3064
  217MOL   H13843770   3.307   7.356   3.575  0.6592 -0.9428  3.7475
  217MOL   H13943771   3.231   7.194   3.766 -0.1020 -1.2554 -0.7579
  217MOL   H14043772   3.394   7.159   3.833 -1.0479  1.5009  1.7381
  217MOL   H14143773   3.365   7.321   3.777 -3.6474  0.9577  0.1967
  217MOL   C14243774   3.435   7.262   3.423  0.6051 -0.2624  0.1914
  217MOL   C14343775   3.574   7.288   3.478 -0.0779  0.2287 -0.1504
  217MOL   O14443776   3.616   7.170   3.533  0.4853  0.4581  0.0261
  217MOL   C14543777   3.693   7.182   3.651 -0.4589 -0.5258  0.0041
  217MOL   H14643778   3.408   7.330   3.342  1.0227 -0.0065  0.2625
  217MOL   H14743779   3.447   7.163   3.379  0.8588 -0.2794  0.2943
  217MOL   H14843780   3.568   7.366   3.554 -0.7317  1.2809 -1.2677
  217MOL   H14943781   3.786   7.237   3.639 -1.3514  1.0205 -0.0243
  217MOL   H15043782   3.636   7.234   3.728 -0.3905 -1.4171  0.6700
  217MOL   H15143783   3.704   7.080   3.687  2.0017  0.4803  2.2258
  217MOL   C15243784   3.672   7.343   3.373  0.1294 -0.3633  0.5378
  217MOL   C15343785   3.654   7.495   3.339  0.3173  0.2253 -0.6214
  217MOL   O15443786   3.689   7.570   3.450  0.6328 -0.4249 -0.3869
  217MOL   C15543787   3.600   7.683   3.475 -0.1683 -0.4070  0.2022
  217MOL   H15643788   3.664   7.272   3.290 -2.1037 -0.4046  0.7430
  217MOL   H15743789   3.771   7.333   3.416 -0.0950 -0.0295  1.1418
  217MOL   H15843790   3.552   7.519   3.310  0.1538  3.6936  2.4926
  217MOL   H15943791   3.581   7.738   3.383  0.3455  2.0402  1.5144
  217MOL   H16043792   3.502   7.658   3.516  0.2221 -0.5268  1.0889
  217MOL   H16143793   3.632   7.762   3.543 -1.4904  0.8429 -0.5953
  217MOL   C16243794   3.734   7.538   3.215  0.0076  0.2127  0.3344
  217MOL   C16343795   3.685   7.494   3.080  0.1772 -0.4409  0.2883
  217MOL   O16443796   3.550   7.548   3.076 -0.5185 -0.5740  0.5206
  217MOL   C16543797   3.464   7.488   2.984  0.1508  0.0653  0.1917
  217MOL   H16643798   3.838   7.510   3.230  0.1566  0.7878  0.4021
  217MOL   H16743799   3.738   7.647   3.208 -1.6195  0.2857  0.5214
  217MOL   H16843800   3.662   7.388   3.070 -1.6742 -0.0849  0.5715
  217MOL   H16943801   3.372   7.541   3.011 -0.6485 -1.0308 -0.3197
  217MOL   H17043802   3.497   7.512   2.883  0.6011  2.0889  0.8027
  217MOL   H17143803   3.457   7.381   3.001 -0.6294 -0.1519 -1.3917
  217MOL   C17243804   3.776   7.537   2.970 -0.7921  0.4047 -0.5521
  217MOL   C17343805   3.895   7.449   2.938 -0.1282  0.0957 -0.4909
  217MOL   O17443806   3.857   7.315   2.925  1.3288  0.1913  0.1297
  217MOL   C17543807   3.939   7.219   2.994  0.2740  0.7024  0.3059
  217MOL   H17643808   3.782   7.645   2.954  0.8396  0.0739 -2.3709
  217MOL   H17743809   3.715   7.508   2.885 -1.0460 -0.7033  0.0084
  217MOL   H17843810   3.967   7.453   3.019 -1.0106 -0.7519  0.3322
  217MOL   H17943811   3.898   7.119   2.980  1.1621 -0.2397  3.9831
  217MOL   H18043812   4.040   7.230   2.953  0.4759  3.2735  1.4283
  217MOL   H18143813   3.945   7.235   3.101  0.4056 -1.2338  0.6018
  217MOL   C18243814   3.953   7.490   2.799 -0.4781 -0.7978  0.7714
  217MOL   C18343815   4.027   7.624   2.796 -0.5495 -0.6147 -0.4035
  217MOL   O18443816   4.116   7.626   2.911 -0.5363  0.7540  0.1453
  217MOL   C18543817   4.104   7.731   2.999 -0.3942 -0.6107 -1.2474
  217MOL   H18643818   3.877   7.471   2.723  0.7832 -1.5821 -0.3116
  217MOL   H18743819   4.036   7.424   2.775  0.4637  0.3348  0.8958
  217MOL   H18843820   3.950   7.702   2.799 -1.6468 -1.7212  0.7944
  217MOL   H18943821   4.001   7.746   3.031  0.3724 -1.7931  2.0160
  217MOL   H19043822   4.151   7.711   3.095  0.4745  2.0850 -1.0769
  217MOL   H19143823   4.133   0.015   2.955 -0.1303 -0.2681 -0.3502
  217MOL   C19243824   4.121   7.640   2.671  0.0455 -0.7261  0.4261
  217MOL   C19343825   4.163   7.787   2.664 -0.8125  0.2133 -0.7821
  217MOL   O19443826   4.052   0.070   2.649 -0.2296 -0.0552 -0.1821
  217MOL   C19543827   4.075   0.192   2.706 -0.7610 -0.4011  0.3707
  217MOL   H19643828   4.076   7.604   2.578 -0.4607 -1.6235  1.0032
  217MOL   H19743829   4.214   7.585   2.680  0.3530 -0.1695  0.6423
  217MOL   H19843830   4.229   0.008   2.583  1.7316 -0.5619  0.9295
  217MOL   H19943831   4.013   0.278   2.678  0.4843 -0.5500 -3.0747
  217MOL   H20043832   4.076   0.179   2.815  0.1676  1.1565  0.5645
  217MOL   H20143833   4.171   0.236   2.679 -0.3880 -0.5561  1.4148
  217MOL   H20243834   4.220   7.804   2.755 -1.5404  0.6230 -0.3978
  218MOL     C143835   1.986   1.042   6.141  0.2786 -0.8131  0.0074
  218MOL     C243836   2.090   1.092   6.238 -0.3013 -0.5952  0.2893
  218MOL     O343837   2.087   1.008   6.357 -0.8730 -0.1980  0.2363
  218MOL     C443838   1.973   1.023   6.434 -0.1101  0.3482  0.2475
  218MOL     H543839   1.982   1.106   6.053  1.2988 -1.6071 -0.6315
  218MOL     H643840   2.023   0.945   6.108  1.6536 -0.8089  1.4742
  218MOL     H743841   2.054   1.193   6.260  0.0251  0.3356 -3.1343
  218MOL     H843842   1.881   0.981   6.392  0.1774  0.4380 -0.4762
  218MOL     H943843   1.992   0.966   6.525  0.7482 -1.1969 -0.8849
  218MOL    H1043844   1.962   1.119   6.484 -1.1094  1.0247 -1.2488
  218MOL    H1143845   1.885   1.025   6.177 -0.2866  0.3719 -1.0146
  218MOL    C1243846   2.234   1.103   6.183  0.1344  0.0622 -0.4595
  218MOL    C1343847   2.345   1.184   6.262 -0.2715  0.2889 -0.4284
  218MOL    O1443848   2.300   1.317   6.250  0.0480 -0.5527  0.5437
  218MOL    C1543849   2.403   1.403   6.204  0.3031 -0.2067  0.1409
  218MOL    H1643850   2.223   1.145   6.083 -1.7597 -3.4334 -1.8218
  218MOL    H1743851   2.269   1.001   6.166 -0.5849 -0.2393 -0.1137
  218MOL    H1843852   2.439   1.170   6.208  1.0714  0.7233  1.7631
  218MOL    H1943853   2.435   1.366   6.107  0.2384 -1.2162  0.5020
  218MOL    H2043854   2.357   1.501   6.192  1.7841  0.5952  0.8033
  218MOL    H2143855   2.485   1.414   6.276 -1.5672 -0.5962  2.3673
  218MOL    C2243856   2.363   1.134   6.408 -0.2148 -0.0916 -0.7049
  218MOL    C2343857   2.423   0.991   6.425 -0.2524  0.9563 -0.0679
  218MOL    O2443858   2.569   0.983   6.428  0.2575  0.3827 -0.6099
  218MOL    C2543859   2.634   0.995   6.301 -0.1713  0.1649 -0.7953
  218MOL    H2643860   2.269   1.138   6.461  0.0448 -2.6826 -0.0021
  218MOL    H2743861   2.438   1.204   6.447 -1.9469  0.6891  1.2936
  218MOL    H2843862   2.371   0.926   6.354  0.6311  1.4307 -1.1567
  218MOL    H2943863   2.575   0.949   6.221 -0.4617 -1.0426  0.0900
  218MOL    H3043864   2.644   1.099   6.270  0.5373 -0.0004 -1.1246
  218MOL    H3143865   2.738   0.966   6.313  0.1189  1.2120 -0.7533
  218MOL    C3243866   2.392   0.947   6.571 -0.0019 -0.2753  0.3395
  218MOL    C3343867   2.387   0.792   6.573  0.3229 -0.0516  0.2919
  218MOL    O3443868   2.365   0.755   6.709 -0.0793  0.1589  0.0390
  218MOL    C3543869   2.468   0.677   6.763 -0.4074 -0.2930 -0.1586
  218MOL    H3643870   2.290   0.984   6.581  0.1148  0.3342 -0.6863
  218MOL    H3743871   2.458   0.992   6.644 -1.0087  1.0426  0.4665
  218MOL    H3843872   2.481   0.753   6.534  0.6128  0.9983 -0.0614
  218MOL    H3943873   2.498   0.590   6.704  0.0013 -0.7245  0.6722
  218MOL    H4043874   2.555   0.742   6.775 -0.3942 -0.2277 -0.6132
  218MOL    H4143875   2.454   0.639   6.864  0.0272  0.8821  0.3542
  218MOL    C4243876   2.274   0.727   6.500 -0.0684  1.0247  0.1658
  218MOL    C4343877   2.276   0.569   6.515 -0.2782 -0.0544 -0.0121
  218MOL    O4443878   2.151   0.522   6.461 -0.7539  0.2447 -0.5646
  218MOL    C4543879   2.057   0.492   6.565 -0.2044  0.6295 -0.3800
  218MOL    H4643880   2.258   0.743   6.394 -0.5673  0.3224  0.1318
  218MOL    H4743881   2.185   0.765   6.551 -0.8582 -0.5415 -0.0205
  218MOL    H4843882   2.294   0.549   6.620  0.0423 -0.6456 -0.1807
  218MOL    H4943883   2.044   0.580   6.628 -3.5395  0.0645 -0.1882
  218MOL    H5043884   1.960   0.465   6.523 -0.5444  0.3494  0.5653
  218MOL    H5143885   2.089   0.410   6.629  1.5693  1.2817 -0.3811
  218MOL    C5243886   2.404   0.511   6.443 -0.0156  0.0253 -0.3247
  218MOL    C5343887   2.393   0.359   6.437  0.5034  0.2343 -0.0993
  218MOL    O5443888   2.493   0.312   6.345 -0.1722  0.8918  0.0820
  218MOL    C5543889   2.444   0.306   6.207 -0.4692 -0.0753 -0.2308
  218MOL    H5643890   2.503   0.528   6.485 -0.0029 -0.0495 -0.3230
  218MOL    H5743891   2.415   0.556   6.344  0.3541 -0.3450 -0.4583
  218MOL    H5843892   2.293   0.337   6.399  0.6448 -0.2208 -0.2109
  218MOL    H5943893   2.385   0.215   6.194  1.5819 -1.5195  0.3195
  218MOL    H6043894   2.389   0.395   6.175  0.3429  1.0376  1.3928
  218MOL    H6143895   2.535   0.300   6.148  1.6195  0.9410  2.7717
  218MOL    C6243896   2.406   0.278   6.568 -0.0725  0.1983 -0.3188
  218MOL    C6343897   2.379   0.121   6.552 -0.7349 -0.2086 -0.3151
  218MOL    O6443898   2.414   0.059   6.679  0.0506  0.4239  0.0121
  218MOL    C6543899   2.532   7.789   6.657 -0.0269  0.0644  0.1630
  218MOL    H6643900   2.342   0.326   6.642 -0.3717 -0.6952  0.0046
  218MOL    H6743901   2.509   0.289   6.602 -0.0641 -2.6537  0.6887
  218MOL    H6843902   2.444   0.083   6.473  1.8617 -0.7425  2.0110
  218MOL    H6943903   2.553   7.742   6.753  0.6243 -0.8586 -0.4256
  218MOL    H7043904   2.498   7.712   6.587 -0.5504 -0.5031  1.0355
  218MOL    H7143905   2.606   0.043   6.609  0.6073 -0.2648  0.6875
  218MOL    C7243906   2.230   0.091   6.520  0.1329 -0.1099 -0.3528
  218MOL    C7343907   2.184   7.756   6.490 -0.3868 -0.6042 -0.4173
  218MOL    O7443908   2.050   7.773   6.459  0.3099 -0.1275  0.3891
  218MOL    C7543909   1.961   7.760   6.570  0.5906  0.2709  0.2813
  218MOL    H7643910   2.206   0.139   6.425 -2.8973 -0.5444  0.1419
  218MOL    H7743911   2.173   0.143   6.597  0.9902  0.4190 -0.0667
  218MOL    H7843912   2.207   7.699   6.580 -0.0917 -0.7351 -0.5736
  218MOL    H7943913   2.003   7.701   6.651 -0.8423 -1.0410  0.0839
  218MOL    H8043914   1.922   0.044   6.608 -0.0015 -0.1633  0.7552
  218MOL    H8143915   1.873   7.705   6.537 -1.2638  2.0988  2.0097
  218MOL    C8243916   2.256   7.684   6.377 -0.9364  0.3171  0.4391
  218MOL    C8343917   2.198   7.550   6.333 -0.1031  0.0303  0.4810
  218MOL    O8443918   2.267   7.511   6.218 -0.4225 -0.8980  0.1372
  218MOL    C8543919   2.199   7.418   6.131 -0.4468  0.1513 -0.5120
  218MOL    H8643920   2.361   7.671   6.403 -0.5035 -2.0519 -2.1551
  218MOL    H8743921   2.268   7.744   6.286 -2.1530  1.6556  1.1460
  218MOL    H8843922   2.094   7.565   6.305  0.0928  1.3697  0.4052
  218MOL    H8943923   2.125   7.459   6.063 -3.1444 -1.0916  1.6019
  218MOL    H9043924   2.276   7.373   6.068 -1.2420 -1.2661 -0.4865
  218MOL    H9143925   2.157   7.330   6.180  0.2815 -0.3016 -0.6857
  218MOL    C9243926   2.210   7.442   6.438 -0.5853  0.0637 -0.1622
  218MOL    C9343927   2.082   7.405   6.523  1.0152 -0.1575 -0.5385
  218MOL    O9443928   1.978   7.354   6.432  0.3554 -0.5592 -0.7178
  218MOL    C9543929   1.857   7.431   6.442  0.2855 -0.8912  0.3358
  218MOL    H9643930   2.292   7.463   6.508 -1.1554  0.5990  0.3508
  218MOL    H9743931   2.250   7.355   6.387 -1.0358 -1.1009  1.4300
  218MOL    H9843932   2.050   7.498   6.570 -0.0464 -1.2334  0.9171
  218MOL    H9943933   1.776   7.378   6.392 -2.7959  1.6728  2.3676
  218MOL   H10043934   1.828   7.441   6.547  1.9209 -0.9053  0.7989
  218MOL   H10143935   1.860   7.525   6.386  1.8232 -0.2278  1.4975
  218MOL   C10243936   2.117   7.291   6.624  0.7529 -0.2012  0.1495
  218MOL   C10343937   2.034   7.293   6.756  0.6783  0.0804 -0.2914
  218MOL   O10443938   2.056   7.171   6.822 -0.3703 -0.2173  0.3893
  218MOL   C10543939   1.964   7.135   6.914  0.1522  0.2621 -0.2496
  218MOL   H10643940   2.219   7.300   6.661  0.5504 -0.7534  0.8435
  218MOL   H10743941   2.112   7.202   6.561  0.4179 -0.5807  0.7083
  218MOL   H10843942   1.933   7.307   6.719  1.0795  1.2991 -0.9558
  218MOL   H10943943   1.859   7.138   6.884  0.1553  0.7003 -0.2239
  218MOL   H11043944   1.992   7.033   6.941  2.3538  0.9129  0.0622
  218MOL   H11143945   1.974   7.193   7.006  0.4809  0.5678 -0.4722
  218MOL   C11243946   2.057   7.418   6.846  1.0636 -0.2583 -1.0554
  218MOL   C11343947   2.208   7.432   6.896  0.2024 -0.1961 -0.4495
  218MOL   O11443948   2.223   7.557   6.964  0.4758 -0.6058  0.0373
  218MOL   C11543949   2.251   7.671   6.882  0.2907 -0.0582  0.1643
  218MOL   H11643950   1.989   7.420   6.931  3.4923 -0.5596  0.9782
  218MOL   H11743951   2.039   7.506   6.784 -1.9487 -0.4661 -0.5519
  218MOL   H11843952   2.273   7.442   6.809 -0.5215  0.1619 -0.9568
  218MOL   H11943953   2.161   7.686   6.822 -0.1593  0.5368  0.9722
  218MOL   H12043954   2.268   7.762   6.939  0.6976 -0.8779  1.3634
  218MOL   H12143955   2.347   7.660   6.832  1.0382  1.6334  1.1655
  218MOL   C12243956   2.261   7.316   6.985  0.2541 -0.8117 -0.2947
  218MOL   C12343957   2.402   7.350   7.048 -0.1389  0.7646  0.0968
  218MOL   O12443958   2.430   7.239   7.132 -0.0040 -0.5102 -0.0529
  218MOL   C12543959   2.376   7.250   7.265 -0.2622 -0.2841 -0.1593
  218MOL   H12643960   2.270   7.227   6.923  0.8826 -0.7427 -0.3125
  218MOL   H12743961   2.183   7.298   7.058 -0.5880  1.9087 -0.4517
  218MOL   H12843962   2.388   7.444   7.101  1.5850  1.1818 -0.1659
  218MOL   H12943963   2.399   7.336   7.329  0.0430 -0.5781  0.1243
  218MOL   H13043964   2.269   7.265   7.248 -0.1518 -0.6564 -1.2272
  218MOL   H13143965   2.376   7.156   7.319  1.5753 -1.4178 -2.0727
  218MOL   C13243966   2.503   7.371   6.932  0.6475 -0.3645  0.1233
  218MOL   C13343967   2.646   7.377   6.993  0.2249  0.4140  0.5555
  218MOL   O13443968   2.735   7.359   6.890 -0.4530  0.5414 -0.7277
  218MOL   C13543969   2.827   7.253   6.912 -0.7347 -0.5263 -0.0551
  218MOL   H13643970   2.482   7.461   6.873  2.2940 -0.1082 -0.1017
  218MOL   H13743971   2.504   7.293   6.856  0.8340  0.0023 -0.2559
  218MOL   H13843972   2.668   7.305   7.072 -0.3861 -0.8282 -0.3854
  218MOL   H13943973   2.765   7.163   6.907  1.5796 -2.1244 -0.8416
  218MOL   H14043974   2.897   7.249   6.828 -1.8064 -0.4398 -0.9690
  218MOL   H14143975   2.890   7.255   7.001 -0.7055 -0.8339 -0.0665
  218MOL   C14243976   2.675   7.524   7.044 -0.8301 -0.0473 -0.2590
  218MOL   C14343977   2.812   7.534   7.126  0.2081 -0.3745 -0.5667
  218MOL   O14443978   2.895   7.611   7.045  0.0884 -0.7549 -0.3692
  218MOL   C14543979   3.035   7.559   7.053  0.5551  0.0657  0.4525
  218MOL   H14643980   2.596   7.567   7.105  0.2591 -0.2686  1.3547
  218MOL   H14743981   2.695   7.588   6.958  3.5408 -0.0080  0.6826
  218MOL   H14843982   2.853   7.436   7.152 -0.4138 -0.2019  1.0750
  218MOL   H14943983   3.088   7.583   7.145 -0.0262 -1.3112  1.1557
  218MOL   H15043984   3.036   7.450   7.048 -1.2341  0.0738 -0.5089
  218MOL   H15143985   3.095   7.596   6.969  2.7359 -0.9405  1.5266
  218MOL   C15243986   2.796   7.600   7.265 -0.1650  0.2404 -0.1405
  218MOL   C15343987   2.697   7.525   7.355 -0.3137  0.2202  0.4661
  218MOL   O15443988   2.780   7.424   7.418 -0.1863  0.3383 -0.1626
  218MOL   C15543989   2.711   7.320   7.487  0.3621  0.2870 -0.0573
  218MOL   H15643990   2.771   7.706   7.255  0.1366  0.2879 -0.4090
  218MOL   H15743991   2.889   7.612   7.322 -1.4458 -1.4703  2.3960
  218MOL   H15843992   2.625   7.468   7.296  0.9154 -0.5857 -0.2757
  218MOL   H15943993   2.624   7.283   7.434  1.4882 -0.2269 -1.5800
  218MOL   H16043994   2.781   7.239   7.507  0.2750  0.5105  1.2427
  218MOL   H16143995   2.678   7.349   7.587 -1.2105  0.4752 -0.6251
  218MOL   C16243996   2.640   7.609   7.470 -0.7349  0.0846 -0.5817
  218MOL   C16343997   2.540   7.712   7.408  0.4045  0.1429  0.0124
  218MOL   O16443998   2.445   7.653   7.323  0.6038 -0.0538  0.1020
  218MOL   C16543999   2.368   7.745   7.240  0.2246  0.0999  0.0583
  218MOL   H16644000   2.712   7.671   7.523  0.1494  0.2719 -1.9991
  218MOL   H16744001   2.576   7.545   7.531  1.2938 -1.0737  0.3764
  218MOL   H16844002   2.603   7.778   7.349 -3.3124  2.3642 -1.6569
  218MOL   H16944003   2.429   7.810   7.178 -1.4707  2.0408  0.4003
  218MOL   H17044004   2.323   7.673   7.172 -0.6025  0.3657  0.3206
  218MOL   H17144005   2.280   7.793   7.282 -1.0426 -0.8219 -1.4862
  218MOL   C17244006   2.477   0.001   7.506  0.5083  0.4511 -0.3628
  218MOL   C17344007   2.411   7.752   7.637  0.1751  0.2683  0.2333
  218MOL   O17444008   2.329   0.036   7.699 -0.0439  0.2962  0.0587
  218MOL   C17544009   2.396   0.145   7.769  0.3870  0.4070  0.3739
  218MOL   H17644010   2.396   0.055   7.455  2.1181  2.2477 -1.0700
  218MOL   H17744011   2.556   0.074   7.522  1.6359 -0.9150  0.4320
  218MOL   H17844012   2.493   7.721   7.701 -1.3457 -1.9106  1.2033
  218MOL   H17944013   2.435   0.204   7.686  2.9379 -0.8741  0.6195
  218MOL   H18044014   2.321   0.212   0.002 -0.2717  0.6784 -1.1423
  218MOL   H18144015   2.472   0.112   0.029 -1.4812 -0.8669  1.8672
  218MOL   C18244016   2.306   7.641   7.608  0.2734  0.3806  0.0551
  218MOL   C18344017   2.256   7.567   7.734  0.2352  0.5927 -0.6776
  218MOL   O18444018   2.151   7.475   7.686 -0.8050  0.0963  0.3572
  218MOL   C18544019   2.019   7.502   7.728  0.5870 -0.3393 -1.1863
  218MOL   H18644020   2.329   7.561   7.537  0.3639  0.1906  0.3010
  218MOL   H18744021   2.224   7.689   7.554 -0.7303 -0.4150  0.8656
  218MOL   H18844022   2.211   7.637   7.805 -2.4298 -1.7857  0.0541
  218MOL   H18944023   1.990   7.601   7.692  1.6539  0.3341 -0.2240
  218MOL   H19044024   1.953   7.425   7.687  2.2455 -2.8046  0.6299
  218MOL   H19144025   2.015   7.502   0.026 -4.1179  0.4892 -1.2466
  218MOL   C19244026   2.365   7.479   7.801 -0.7641  0.8530 -0.2535
  218MOL   C19344027   2.319   7.399   0.112  0.2322  0.4226  0.5205
  218MOL   O19444028   2.386   7.440   0.227 -0.3556 -0.0391  0.2170
  218MOL   C19544029   2.355   7.354   0.342  0.1783 -0.1926 -0.6418
  218MOL   H19644030   2.455   7.535   0.015  0.5527 -1.1957 -0.3248
  218MOL   H19744031   2.410   7.409   7.731  1.8161  0.5910  1.6091
  218MOL   H19844032   2.329   7.292   0.095 -0.0152  0.3959  0.5453
  218MOL   H19944033   2.396   7.403   0.430 -1.3616  1.2032 -0.6880
  218MOL   H20044034   2.248   7.349   0.361 -0.2104  1.2199 -2.2574
  218MOL   H20144035   2.399   7.254   0.331  0.1780 -0.4212  1.3094
  218MOL   H20244036   2.213   7.420   0.124  0.5701  3.4461 -1.2330
  219MOL     C144037   0.863   3.107   3.980 -0.4970 -0.8386 -0.1241
  219MOL     C244038   0.775   2.987   4.015  0.3859 -0.3836  0.2917
  219MOL     O344039   0.865   2.871   4.020 -0.5646 -0.2846  0.3682
  219MOL     C444040   0.876   2.796   3.898  0.4177  0.4822 -0.1802
  219MOL     H544041   0.923   3.093   3.890 -1.0836 -1.2006 -0.4620
  219MOL     H644042   0.799   3.190   3.949  0.5569 -0.0118 -0.0937
  219MOL     H744043   0.706   2.971   3.932  0.4719 -0.4412  0.2311
  219MOL     H844044   0.948   2.715   3.889 -0.8541 -0.4787 -2.1185
  219MOL     H944045   0.786   2.737   3.882  0.6177  0.2985 -0.6277
  219MOL    H1044046   0.886   2.870   3.819 -1.0991  0.3598 -0.4952
  219MOL    H1144047   0.926   3.134   4.064 -0.4150  1.6095 -0.9363
  219MOL    C1244048   0.705   3.002   4.151 -0.1942 -0.7205 -0.3981
  219MOL    C1344049   0.623   2.880   4.189 -0.3105  0.4968  0.2932
  219MOL    O1444050   0.588   2.911   4.326  0.0699 -0.0031 -0.1073
  219MOL    C1544051   0.569   2.803   4.411  0.5797 -0.1954  0.0680
  219MOL    H1644052   0.650   3.096   4.159 -0.5658 -0.9876  0.2501
  219MOL    H1744053   0.786   2.996   4.224  0.7146 -0.6573 -1.3877
  219MOL    H1844054   0.693   2.797   4.192  1.4613  1.9644  0.8687
  219MOL    H1944055   0.667   2.758   4.428 -0.0946 -0.6052  3.0664
  219MOL    H2044056   0.529   2.839   4.506  0.0229  1.9695 -0.9569
  219MOL    H2144057   0.508   2.721   4.373 -0.7345  0.8912 -0.1762
  219MOL    C2244058   0.499   2.842   4.105  0.4354 -0.1705  0.5766
  219MOL    C2344059   0.400   2.956   4.062 -0.1250 -0.7573 -0.3105
  219MOL    O2444060   0.308   2.900   3.965  0.4428  0.0843 -0.3337
  219MOL    C2544061   0.327   2.952   3.835  0.1007 -0.2371 -0.3786
  219MOL    H2644062   0.439   2.761   4.149 -2.6484  0.5190 -2.1765
  219MOL    H2744063   0.540   2.796   4.016  1.4729 -1.6189  1.7685
  219MOL    H2844064   0.460   3.037   4.021  0.8014 -1.6710 -0.7914
  219MOL    H2944065   0.421   2.930   3.786  0.9832  1.6339  0.4204
  219MOL    H3044066   0.251   2.906   3.772  0.0052  0.3896 -0.7328
  219MOL    H3144067   0.321   3.061   3.846  3.7385  0.1722 -2.0072
  219MOL    C3244068   0.315   3.010   4.183  0.0550  0.4360 -0.5773
  219MOL    C3344069   0.227   3.132   4.168 -0.1092 -0.0916  0.0588
  219MOL    O3444070   0.140   3.135   4.280 -0.2999 -0.0629 -0.0400
  219MOL    C3544071   0.028   3.052   4.274  0.2066 -0.4325  0.0574
  219MOL    H3644072   0.385   3.025   4.265  0.0478 -3.4106  0.2723
  219MOL    H3744073   0.248   2.929   4.212 -1.4230  1.0730 -2.1631
  219MOL    H3844074   0.168   3.123   4.077 -1.0026 -1.0319  0.7256
  219MOL    H3944075   7.773   3.094   4.198  2.3274  0.6664 -1.2198
  219MOL    H4044076   0.050   2.953   4.234  1.5824 -0.5412  1.0486
  219MOL    H4144077   7.773   3.055   4.361  0.8926 -0.2811  0.5700
  219MOL    C4244078   0.303   3.268   4.165 -0.6406  0.5297 -0.0512
  219MOL    C4344079   0.214   3.402   4.132 -0.8496 -0.6229 -0.3725
  219MOL    O4444080   0.300   3.494   4.073  0.3436  0.3961  0.1826
  219MOL    C4544081   0.396   3.548   4.160 -0.4723  0.5214 -0.0979
  219MOL    H4644082   0.375   3.266   4.084 -3.1047  0.1914 -2.3139
  219MOL    H4744083   0.360   3.279   4.257  1.8953 -1.5767 -1.3289
  219MOL    H4844084   0.172   3.445   4.223  0.2771 -1.5406  0.6087
  219MOL    H4944085   0.488   3.491   4.175 -0.0383  2.1022  3.4627
  219MOL    H5044086   0.423   3.650   4.136 -0.6648  0.7216  0.5456
  219MOL    H5144087   0.357   3.546   4.262  0.1994 -1.7962  0.1540
  219MOL    C5244088   0.092   3.379   4.040  0.3638 -0.0635  0.1430
  219MOL    C5344089   7.803   3.495   4.026  0.4923  0.3376 -0.1600
  219MOL    O5444090   7.707   3.466   3.925 -0.1318 -0.2994  0.6872
  219MOL    C5544091   7.736   3.513   3.799  0.0468 -0.4898  0.2569
  219MOL    H5644092   0.046   3.286   4.074 -0.2095 -0.4123 -1.5350
  219MOL    H5744093   0.135   3.351   3.943 -1.8944 -0.1739 -0.8524
  219MOL    H5844094   0.056   3.578   3.996  2.1156 -0.5808  0.6636
  219MOL    H5944095   7.683   3.455   3.723  0.2824  0.7464 -0.8576
  219MOL    H6044096   7.720   3.621   3.805  0.1187 -0.5504  1.6687
  219MOL    H6144097   0.032   3.503   3.780  0.2984 -0.4298  1.6196
  219MOL    C6244098   7.726   3.542   4.163  0.2266  0.7988  0.4988
  219MOL    C6344099   7.796   3.647   4.252 -0.1570 -0.2661  0.5012
  219MOL    O6444100   7.771   3.771   4.198 -0.2564 -0.0312 -0.0710
  219MOL    C6544101   0.059   3.876   4.222  0.1033  0.6897  0.4094
  219MOL    H6644102   7.715   3.448   4.217  1.9517  0.5498  0.4465
  219MOL    H6744103   7.626   3.577   4.137  0.6255  1.9857  0.5422
  219MOL    H6844104   0.094   3.635   4.246 -0.1544  0.4744 -1.0516
  219MOL    H6944105   0.144   3.863   4.155 -0.6163 -0.4129 -0.3139
  219MOL    H7044106   0.006   3.966   4.191 -0.5532 -0.0093 -0.5496
  219MOL    H7144107   0.091   3.882   4.326  2.4240 -0.7122 -0.1727
  219MOL    C7244108   7.733   3.659   4.396 -0.0535  0.8014 -0.3690
  219MOL    C7344109   7.790   3.554   4.494  0.4039 -0.0593 -0.0094
  219MOL    O7444110   0.107   3.610   4.527 -0.2124  0.5130 -0.4274
  219MOL    C7544111   0.211   3.527   4.591  0.3473  0.1876 -0.4321
  219MOL    H7644112   7.625   3.642   4.392  0.0320  0.5224 -1.6819
  219MOL    H7744113   7.741   3.753   4.451 -0.0246  0.9498 -0.6264
  219MOL    H7844114   7.795   3.454   4.450  1.0245 -0.6542  1.3741
  219MOL    H7944115   0.209   3.427   4.547  0.6593 -0.3639  0.7977
  219MOL    H8044116   0.312   3.559   4.566  0.9418 -0.7773  0.6781
  219MOL    H8144117   0.199   3.529   4.699 -0.5289 -0.4952 -0.5093
  219MOL    C8244118   7.706   3.539   4.625 -0.2071 -0.3037 -0.3558
  219MOL    C8344119   7.557   3.500   4.598  0.1792  0.0655  0.0036
  219MOL    O8444120   7.534   3.425   4.479  0.0728  0.2580 -0.1060
  219MOL    C8544121   7.568   3.292   4.490 -0.8329 -0.1649  0.4273
  219MOL    H8644122   7.727   3.627   4.685 -0.6852  0.2002 -0.9156
  219MOL    H8744123   7.748   3.450   4.672 -1.4501 -0.0118  1.3565
  219MOL    H8844124   7.505   3.593   4.576 -1.0009 -0.7824 -0.8543
  219MOL    H8944125   7.656   3.263   4.549  0.1515 -0.0618 -0.9590
  219MOL    H9044126   7.484   3.238   4.534 -0.2727  0.4769  2.3597
  219MOL    H9144127   7.580   3.245   4.392 -0.2470  0.4957  0.1813
  219MOL    C9244128   7.488   3.441   4.722  0.7145 -0.0262 -1.0294
  219MOL    C9344129   7.336   3.452   4.717 -0.7928  0.5056 -0.0294
  219MOL    O9444130   7.290   3.360   4.826 -0.4837  0.1026 -0.3719
  219MOL    C9544131   7.227   3.232   4.788  0.5147 -0.0991 -0.1982
  219MOL    H9644132   7.531   3.498   4.805  1.0455 -0.5508 -0.8339
  219MOL    H9744133   7.505   3.335   4.741 -3.0732 -0.7264 -1.1492
  219MOL    H9844134   7.298   3.420   4.620 -3.0385  0.8792  0.6857
  219MOL    H9944135   7.138   3.243   4.727 -0.1040  0.6249  0.8137
  219MOL   H10044136   7.300   3.173   4.733 -0.8030 -0.6423 -1.3841
  219MOL   H10144137   7.194   3.172   4.874  0.7916 -2.1080 -1.4649
  219MOL   C10244138   7.274   3.582   4.745 -0.6703 -0.2532 -0.3381
  219MOL   C10344139   7.122   3.590   4.766 -0.0862  0.1277 -0.1051
  219MOL   O10444140   7.088   3.725   4.794 -0.1483  0.1184 -0.1101
  219MOL   C10544141   6.984   3.740   4.899  0.1174 -0.0853 -0.3835
  219MOL   H10644142   7.298   3.655   4.668  0.9152 -0.5023 -0.1065
  219MOL   H10744143   7.319   3.633   4.830  0.8518  1.0560 -1.8795
  219MOL   H10844144   7.095   3.532   4.854 -0.7458  0.2149 -0.2462
  219MOL   H10944145   6.908   3.664   4.880  0.0824 -0.1553  0.0357
  219MOL   H11044146   7.023   3.710   4.996 -1.4191 -1.9189 -0.3004
  219MOL   H11144147   6.953   3.845   4.890 -2.2995 -0.9221 -2.5548
  219MOL   C11244148   7.034   3.546   4.643  1.0585  0.2709 -0.4341
  219MOL   C11344149   7.043   3.629   4.518 -0.4762  0.4947  0.0326
  219MOL   O11444150   7.164   3.580   4.455 -0.4593 -0.1064 -0.3556
  219MOL   C11544151   7.232   3.670   4.374  0.0205  0.7107 -0.1360
  219MOL   H11644152   6.932   3.551   4.681  0.9956 -0.4859 -0.4787
  219MOL   H11744153   7.046   3.441   4.616  1.0003  0.3939 -0.9454
  219MOL   H11844154   7.049   3.736   4.538  0.4319  0.3029  0.8141
  219MOL   H11944155   7.157   3.703   4.301  0.5014  0.2858 -0.8308
  219MOL   H12044156   7.279   3.755   4.423  0.0517  1.7036 -1.8530
  219MOL   H12144157   7.311   3.625   4.315 -0.1347  1.5828 -1.0420
  219MOL   C12244158   6.927   3.601   4.423 -0.0129 -0.0484  0.4411
  219MOL   C12344159   6.849   3.721   4.374  0.3443 -0.5716  0.2686
  219MOL   O12444160   6.764   3.684   4.262 -0.0418 -0.2252  0.1326
  219MOL   C12544161   6.827   3.672   4.138  0.5951  0.3004 -0.2188
  219MOL   H12644162   6.856   3.541   4.479  0.2748  0.0779  0.9360
  219MOL   H12744163   6.952   3.542   4.335 -0.6850  1.2673 -0.6630
  219MOL   H12844164   6.921   3.795   4.338  0.8452 -1.7879 -1.2987
  219MOL   H12944165   6.903   3.595   4.126  0.7154  0.1267  1.5586
  219MOL   H13044166   6.756   3.648   4.059 -0.1199  0.4460  0.3683
  219MOL   H13144167   6.868   3.770   4.114  0.6420 -0.2002 -2.2594
  219MOL   C13244168   6.759   3.780   4.490 -0.2525 -0.2260  0.1517
  219MOL   C13344169   6.701   3.914   4.452 -0.2247 -0.1052 -0.6545
  219MOL   O13444170   6.559   3.902   4.459 -0.0333 -0.7020 -0.4588
  219MOL   C13544171   6.495   3.833   4.348  0.6539 -1.0064  0.0063
  219MOL   H13644172   6.808   3.789   4.587 -0.6855  1.4507  0.2300
  219MOL   H13744173   6.684   3.708   4.522 -0.1589 -0.2547  0.3087
  219MOL   H13844174   6.720   3.944   4.349 -2.2982  1.5338 -0.5963
  219MOL   H13944175   6.507   3.726   4.333  0.4518 -0.6353 -3.1713
  219MOL   H14044176   6.386   3.843   4.349  0.8194  1.3363 -1.3775
  219MOL   H14144177   6.518   3.875   4.250  1.0142 -1.1014  0.0514
  219MOL   C14244178   6.754   4.027   4.535 -1.0399 -0.3178  0.4092
  219MOL   C14344179   6.889   4.088   4.490  0.0687  0.0460 -0.7032
  219MOL   O14444180   6.893   4.219   4.555 -0.1527 -0.2236  0.3724
  219MOL   C14544181   6.836   4.327   4.478 -0.4083  0.1118  0.1406
  219MOL   H14644182   6.759   3.996   4.640  0.9767  0.3049  0.5188
  219MOL   H14744183   6.684   4.111   4.534  1.5493  1.9434  2.3421
  219MOL   H14844184   6.905   4.106   4.384  1.2840  2.3649 -0.1629
  219MOL   H14944185   6.728   4.334   4.489 -0.7533  0.8124 -3.1116
  219MOL   H15044186   6.868   4.422   4.520  1.7757 -0.5886  0.1514
  219MOL   H15144187   6.855   4.336   4.371  0.7583  1.2494  0.4260
  219MOL   C15244188   7.004   4.015   4.562 -0.3605 -0.1380  1.0312
  219MOL   C15344189   7.137   4.092   4.564  0.0869 -0.5852  0.6629
  219MOL   O15444190   7.219   4.035   4.661  0.7455 -0.3103  0.5386
  219MOL   C15544191   7.199   4.082   4.797 -0.3505 -0.3787 -0.7734
  219MOL   H15644192   7.021   3.925   4.502  0.1701  0.1174  0.7912
  219MOL   H15744193   6.979   3.970   4.658  1.1111 -2.2054  0.4691
  219MOL   H15844194   7.125   4.197   4.594  0.9549 -0.5546  0.9202
  219MOL   H15944195   7.101   4.064   4.841 -0.0784  1.6749  0.7234
  219MOL   H16044196   7.277   4.036   4.857 -0.7101  1.8646  1.4981
  219MOL   H16144197   7.221   4.189   4.797 -2.0592 -0.0119 -0.6484
  219MOL   C16244198   7.227   4.084   4.444  0.3880  0.3574 -0.5524
  219MOL   C16344199   7.374   4.119   4.441  0.0261 -0.0964 -0.5461
  219MOL   O16444200   7.440   4.111   4.315  0.4144  0.2985  0.4523
  219MOL   C16544201   7.542   4.016   4.307  0.2160  0.1851  0.1838
  219MOL   H16644202   7.170   4.144   4.374 -3.1811 -2.9365 -0.6024
  219MOL   H16744203   7.220   3.985   4.399  1.3072  0.3285 -0.6448
  219MOL   H16844204   7.414   4.047   4.512  1.4529  0.5057 -0.7184
  219MOL   H16944205   7.495   3.923   4.276  0.0908  0.5962 -0.8709
  219MOL   H17044206   7.619   4.054   4.240 -0.5435  1.1684 -0.1345
  219MOL   H17144207   7.590   3.994   4.403  1.8674  0.9952 -0.4422
  219MOL   C17244208   7.412   4.260   4.499 -0.0155 -0.1823  0.1871
  219MOL   C17344209   7.554   4.306   4.513 -0.4143  0.2643 -0.0910
  219MOL   O17444210   7.598   4.329   4.377  0.6181 -0.0820 -0.2395
  219MOL   C17544211   7.742   4.314   4.357 -0.8230  0.5478  0.1709
  219MOL   H17644212   7.376   4.255   4.602 -3.4674 -0.6610 -0.9769
  219MOL   H17744213   7.344   4.330   4.451 -0.2805  0.2217  1.1286
  219MOL   H17844214   7.607   4.219   4.551 -0.8709 -0.3611 -0.8723
  219MOL   H17944215   7.753   4.268   4.259  0.0129  3.2124 -1.0287
  219MOL   H18044216   7.795   4.407   4.378 -0.9120  0.2713  1.7166
  219MOL   H18144217   7.784   4.245   4.431 -2.0790 -0.8107 -0.3522
  219MOL   C18244218   7.564   4.439   4.589  0.0900  0.3704 -0.4974
  219MOL   C18344219   7.687   4.447   4.677  0.5852 -0.4472  0.0652
  219MOL   O18444220   7.686   4.586   4.720 -0.2849  0.0210  0.3239
  219MOL   C18544221   7.777   4.668   4.653  0.5841 -0.1965  0.6769
  219MOL   H18644222   7.474   4.457   4.648  0.1302 -0.6229 -0.1225
  219MOL   H18744223   7.555   4.518   4.515 -1.0704  0.1951 -0.5511
  219MOL   H18844224   7.779   4.425   4.624  1.2732  0.6677  0.7649
  219MOL   H18944225   7.770   4.762   4.708  1.0291 -0.6667  1.5414
  219MOL   H19044226   0.063   4.620   4.661 -0.2033 -1.3916  3.4869
  219MOL   H19144227   7.738   4.690   4.553 -1.7075 -0.1155  1.5467
  219MOL   C19244228   7.688   4.355   4.798  0.6897 -1.0876  0.0169
  219MOL   C19344229   7.552   4.362   4.867 -0.1237  0.7976 -0.2545
  219MOL   O19444230   7.563   4.280   4.984 -0.3177  0.0504  0.2439
  219MOL   C19544231   7.620   4.365   5.091  0.9033  0.5951 -0.0863
  219MOL   H19644232   7.768   4.390   4.864 -0.0438 -0.7540  0.7274
  219MOL   H19744233   7.704   4.250   4.775 -1.6744 -2.1221  2.8331
  219MOL   H19844234   7.470   4.321   4.807  1.0027 -0.5877 -0.8678
  219MOL   H19944235   7.724   4.385   5.066  0.3112  3.3893 -0.4844
  219MOL   H20044236   7.555   4.452   5.104 -1.2034 -1.0278  0.6055
  219MOL   H20144237   7.620   4.305   5.182  1.4123 -0.9233 -1.0665
  219MOL   H20244238   7.526   4.462   4.901 -0.4166  0.7782 -0.4215
  220MOL     C144239   4.256   7.223   2.650  0.2061  0.0779  0.9165
  220MOL     C244240   4.374   7.244   2.738  0.0014  0.0113 -0.2637
  220MOL     O344241   4.445   7.366   2.709  0.3582 -0.1914 -0.4901
  220MOL     C444242   4.513   7.358   2.587 -0.1315 -0.0380  0.0718
  220MOL     H544243   4.181   7.301   2.650  0.3311  0.2003 -0.6002
  220MOL     H644244   4.274   7.193   2.547 -0.3914 -1.6972  1.3007
  220MOL     H744245   4.445   7.161   2.743 -1.0572 -0.8710  0.2684
  220MOL     H844246   4.583   7.274   2.582 -0.1360  0.0533 -2.6574
  220MOL     H944247   4.448   7.334   2.503 -0.0949  0.7547 -0.1849
  220MOL    H1044248   4.565   7.450   2.560  1.0709 -0.2319  1.6446
  220MOL    H1144249   4.207   7.139   2.699 -1.2353 -0.2925 -1.1449
  220MOL    C1244250   4.324   7.265   2.875 -0.7719  0.2942  0.3896
  220MOL    C1344251   4.433   7.297   2.986 -0.5810 -0.3631  0.2845
  220MOL    O1444252   4.365   7.348   3.097 -0.2952 -0.3794 -0.1889
  220MOL    C1544253   4.388   7.484   3.129 -0.9497 -0.4623  0.0767
  220MOL    H1644254   4.270   7.176   2.906  0.8472 -1.2513 -1.0891
  220MOL    H1744255   4.264   7.356   2.875 -0.5712  0.4270  0.8445
  220MOL    H1844256   4.497   7.376   2.947  0.9856 -1.0250  1.4693
  220MOL    H1944257   4.327   7.519   3.212 -1.0407  0.1794 -0.2540
  220MOL    H2044258   4.494   7.498   3.152 -1.6003  2.0142  1.6784
  220MOL    H2144259   4.355   7.549   3.048  0.8562  1.2421  0.6790
  220MOL    C2244260   4.519   7.173   3.018  1.7094 -0.2276  0.0416
  220MOL    C2344261   4.670   7.197   3.020 -0.2388  0.6873 -0.7302
  220MOL    O2444262   4.729   7.079   3.069 -0.2416 -0.0075 -0.0863
  220MOL    C2544263   4.718   7.048   3.205  0.0746  0.0578  0.4635
  220MOL    H2644264   4.488   7.084   2.964 -0.6889  0.5937 -0.0391
  220MOL    H2744265   4.491   7.142   3.119  1.2361 -0.1814 -0.0717
  220MOL    H2844266   4.686   7.279   3.090  1.7876  0.3139 -0.7253
  220MOL    H2944267   4.627   6.992   3.224  1.3534 -1.3322  2.7644
  220MOL    H3044268   4.806   6.991   3.237  0.6590 -0.2476 -1.6417
  220MOL    H3144269   4.718   7.140   3.264  1.2963 -0.3546  1.1368
  220MOL    C3244270   4.731   7.244   2.886 -0.9317  0.4806  0.5536
  220MOL    C3344271   4.887   7.237   2.866 -0.1728  0.3067 -0.4275
  220MOL    O3444272   4.920   7.212   2.727 -0.0674  0.5626 -0.1552
  220MOL    C3544273   4.948   7.074   2.698 -0.2684  0.7300  0.3468
  220MOL    H3644274   4.695   7.345   2.867  0.0049  1.4031  3.3684
  220MOL    H3744275   4.686   7.180   2.811  1.2942 -1.3961  0.7546
  220MOL    H3844276   4.938   7.164   2.929  2.6890  3.1254  0.6648
  220MOL    H3944277   5.041   7.059   2.752 -0.2991  2.2311  0.8433
  220MOL    H4044278   4.858   7.018   2.725 -0.5828  0.3299 -1.4548
  220MOL    H4144279   4.973   7.070   2.592 -0.4858  1.6899  0.2569
  220MOL    C4244280   4.958   7.375   2.881  0.1030  0.6475 -1.3805
  220MOL    C4344281   4.963   7.420   3.033 -0.0770  0.4394 -0.5976
  220MOL    O4444282   5.092   7.467   3.065 -0.4992  0.1336 -0.5442
  220MOL    C4544283   5.190   7.371   3.090 -0.3896 -0.3252  0.8347
  220MOL    H4644284   4.899   7.443   2.821  0.9645  0.4994 -2.4016
  220MOL    H4744285   5.052   7.388   2.828  0.4305 -0.3938 -1.0680
  220MOL    H4844286   4.926   7.340   3.098 -1.0254  1.1542 -0.2471
  220MOL    H4944287   5.288   7.409   3.121 -0.1943 -0.7771  0.7786
  220MOL    H5044288   5.155   7.316   3.178  0.6813 -0.5120  1.1568
  220MOL    H5144289   5.207   7.299   3.009 -1.0237 -1.1534  1.4245
  220MOL    C5244290   4.854   7.528   3.054 -0.7139  0.7085  0.1263
  220MOL    C5344291   4.835   7.584   3.194 -0.2706 -0.9092 -0.1411
  220MOL    O5444292   4.735   7.689   3.208  0.1112  0.5035  0.1296
  220MOL    C5544293   4.790   0.008   3.187 -0.4478  0.0641  0.4564
  220MOL    H5644294   4.755   7.492   3.027 -0.4322  1.5342 -2.1584
  220MOL    H5744295   4.880   7.611   2.988  2.1228  0.3938  0.7846
  220MOL    H5844296   4.934   7.606   3.234 -0.0921  1.0541 -1.5294
  220MOL    H5944297   4.815   0.019   3.082 -2.2489 -1.0694 -0.1158
  220MOL    H6044298   4.715   0.085   3.204 -0.7914 -0.3782  0.9874
  220MOL    H6144299   4.876   0.032   3.250  0.7373  2.0605 -1.8382
  220MOL    C6244300   4.783   7.489   3.307  0.6783  0.3162  0.6711
  220MOL    C6344301   4.796   7.522   3.455 -0.1723 -0.0009 -0.8577
  220MOL    O6444302   4.734   7.415   3.525  0.2627  0.8719  0.4199
  220MOL    C6544303   4.683   7.445   3.650 -0.1920 -0.2461  0.0163
  220MOL    H6644304   4.812   7.384   3.293  1.2159  0.7006 -1.2453
  220MOL    H6744305   4.679   7.470   3.284  0.3320  1.1230  1.5510
  220MOL    H6844306   4.735   7.608   3.482  2.4294  0.9477  2.3519
  220MOL    H6944307   4.611   7.526   3.661 -0.3924 -0.0906 -2.2385
  220MOL    H7044308   4.636   7.349   3.670  2.1217 -1.1706  1.1082
  220MOL    H7144309   4.761   7.457   3.724 -0.2171 -0.5662  0.0966
  220MOL    C7244310   4.940   7.546   3.506 -0.0158  0.2963 -0.1422
  220MOL    C7344311   5.044   7.425   3.489 -0.5247 -0.6315  0.3825
  220MOL    O7444312   5.161   7.481   3.541 -0.0693 -0.3397  0.3558
  220MOL    C7544313   5.280   7.431   3.486 -0.4675 -0.2257  0.1666
  220MOL    H7644314   4.922   7.566   3.611 -0.4701 -2.2848  0.3094
  220MOL    H7744315   4.989   7.637   3.470 -0.8593  0.6459 -0.4141
  220MOL    H7844316   5.062   7.412   3.382  4.4316 -1.2455  1.1615
  220MOL    H7944317   5.296   7.323   3.486 -0.1668 -0.1960 -1.5727
  220MOL    H8044318   5.302   7.463   3.385  1.1942 -1.1021  0.2376
  220MOL    H8144319   5.357   7.484   3.542  1.4958 -0.2996 -2.4103
  220MOL    C8244320   5.018   7.295   3.567 -0.5105  0.4918 -0.8030
  220MOL    C8344321   4.964   7.177   3.481  0.0764 -0.3981  0.3879
  220MOL    O8444322   5.075   7.140   3.398  0.0812 -0.3479  0.1114
  220MOL    C8544323   5.056   7.080   3.271 -0.5445 -0.3772 -0.0212
  220MOL    H8644324   4.950   7.314   3.650 -0.1875 -0.8519 -0.2076
  220MOL    H8744325   5.111   7.271   3.619 -0.1770  3.1503 -0.0964
  220MOL    H8844326   4.877   7.212   3.425 -0.5122 -1.2903  0.7187
  220MOL    H8944327   5.161   7.080   3.240 -0.4381  0.0671  0.3271
  220MOL    H9044328   5.015   6.979   3.279 -0.5816 -0.4453 -1.0915
  220MOL    H9144329   4.991   7.140   3.207  1.2441  0.9683 -0.6231
  220MOL    C9244330   4.926   7.044   3.556  0.0027  0.1098 -0.2321
  220MOL    C9344331   4.794   7.042   3.634 -0.0204  0.0674 -0.2695
  220MOL    O9444332   4.688   6.990   3.549  0.2739 -0.0261 -0.3790
  220MOL    C9544333   4.563   7.060   3.560 -0.2363 -0.8566 -0.8510
  220MOL    H9644334   5.008   7.014   3.622  0.7580 -2.4551 -2.2511
  220MOL    H9744335   4.925   6.961   3.486 -0.0148  0.3347 -0.5019
  220MOL    H9844336   4.758   7.143   3.656  2.1496  0.6476  0.8442
  220MOL    H9944337   4.539   7.086   3.663  1.4717 -2.1514 -0.1091
  220MOL   H10044338   4.558   7.156   3.508 -1.9558 -0.0813  0.6773
  220MOL   H10144339   4.480   7.013   3.507 -0.7825  0.6239 -1.3443
  220MOL   C10244340   4.808   6.973   3.778 -0.4764 -0.4409  0.1707
  220MOL   C10344341   4.945   6.997   3.857 -0.0517  0.2501  0.1702
  220MOL   O10444342   4.978   7.138   3.852  0.3774  0.5127 -0.0616
  220MOL   C10544343   5.110   7.181   3.883 -0.3515 -0.4993  0.5653
  220MOL   H10644344   4.794   6.865   3.768  2.9358 -0.8103 -1.1015
  220MOL   H10744345   4.725   7.014   3.836 -0.2442 -1.0055  0.9252
  220MOL   H10844346   5.024   6.938   3.811 -0.6960 -0.2709 -0.2842
  220MOL   H10944347   5.123   7.178   3.991  0.7158  1.4622  0.5327
  220MOL   H11044348   5.177   7.114   3.829 -1.0792 -1.3108  0.6655
  220MOL   H11144349   5.124   7.281   3.840 -2.5353 -0.7011 -0.6978
  220MOL   C11244350   4.950   6.945   4.005 -0.1237 -0.2386  0.1894
  220MOL   C11344351   4.842   7.007   4.101 -0.2164  0.0603 -1.1264
  220MOL   O11444352   4.714   6.942   4.075  0.1675  0.4425 -0.5583
  220MOL   C11544353   4.597   7.018   4.079 -0.6030 -0.3096 -0.5635
  220MOL   H11644354   5.048   6.962   4.050  0.4321 -0.0896 -1.0609
  220MOL   H11744355   4.933   6.837   4.009  1.6253 -0.6020 -1.4620
  220MOL   H11844356   4.838   7.114   4.081 -0.1511  0.7925  2.5175
  220MOL   H11944357   4.595   7.084   4.166 -0.1932 -0.2195 -0.6212
  220MOL   H12044358   4.596   7.085   3.994 -2.3304 -0.7894 -0.9504
  220MOL   H12144359   4.509   6.952   4.080 -1.3679  0.6884  2.0357
  220MOL   C12244360   4.861   6.984   4.253  0.7205 -0.4981 -0.0609
  220MOL   C12344361   4.948   7.085   4.329 -0.3664 -0.8583  0.0980
  220MOL   O12444362   4.884   7.212   4.339  0.4021  0.4271 -0.4198
  220MOL   C12544363   4.929   7.316   4.255 -0.4103  0.4310  0.6318
  220MOL   H12644364   4.908   6.887   4.270  0.1618 -0.6168  0.8566
  220MOL   H12744365   4.759   6.982   4.291  0.8384 -0.3684  0.2715
  220MOL   H12844366   5.041   7.098   4.274 -0.1588 -1.0229  0.4057
  220MOL   H12944367   4.921   7.298   4.147  3.0483  1.4977  0.1361
  220MOL   H13044368   4.869   7.406   4.269 -0.4218  0.2895  1.5165
  220MOL   H13144369   5.035   7.328   4.277 -0.6723  1.9336  1.1408
  220MOL   C13244370   4.986   7.031   4.474 -0.6305 -0.4491 -0.4929
  220MOL   C13344371   5.094   6.923   4.488  0.1078  0.0750 -0.4854
  220MOL   O13444372   5.043   6.795   4.460  0.1587 -0.4537  0.6072
  220MOL   C13544373   4.983   6.725   4.564 -0.2786  0.6642  0.0791
  220MOL   H13644374   4.889   7.005   4.518 -1.3670  1.2528 -1.0636
  220MOL   H13744375   5.019   7.113   4.537  0.3411 -0.2487 -1.2449
  220MOL   H13844376   5.127   6.927   4.592 -1.0594  0.6930 -0.1213
  220MOL   H13944377   4.924   6.637   4.536  0.6453  0.1216 -0.1789
  220MOL   H14044378   5.065   6.697   4.629 -0.5309  0.9974  0.5454
  220MOL   H14144379   4.904   6.780   4.615 -1.4486 -0.6219 -0.2981
  220MOL   C14244380   5.217   6.947   4.398  0.5954  0.0632 -0.6945
  220MOL   C14344381   5.328   6.836   4.412 -0.7562  0.0188  0.3787
  220MOL   O14444382   5.411   6.853   4.294  0.0115 -0.1759 -0.1709
  220MOL   C14544383   5.406   6.750   4.203 -1.1236  0.4355 -0.1910
  220MOL   H14644384   5.268   7.042   4.415  1.4402 -0.3123 -1.1212
  220MOL   H14744385   5.184   6.946   4.295 -1.0805  0.6381 -0.1822
  220MOL   H14844386   5.272   6.743   4.413 -0.4607 -0.1995 -1.7593
  220MOL   H14944387   5.420   6.649   4.243 -2.4908  0.0599 -0.5995
  220MOL   H15044388   5.311   6.754   4.148 -0.0099  0.1075 -2.1975
  220MOL   H15144389   5.490   6.767   4.137 -1.8574  3.3828 -0.4006
  220MOL   C15244390   5.407   6.857   4.546 -0.0481 -0.7719  0.3980
  220MOL   C15344391   5.508   6.744   4.578 -0.1637  0.1365 -0.1980
  220MOL   O15444392   5.592   6.793   4.690 -0.2452  0.7815  0.5379
  220MOL   C15544393   5.722   6.739   4.714  0.1160 -0.0560 -0.7392
  220MOL   H15644394   5.336   6.869   4.627 -0.2720 -0.2874  0.1247
  220MOL   H15744395   5.459   6.952   4.539 -0.0916 -0.7607  0.2159
  220MOL   H15844396   5.585   6.740   4.501  2.2052  0.3658  2.0497
  220MOL   H15944397   5.751   6.762   4.816  0.1508  0.4936 -0.8759
  220MOL   H16044398   5.724   6.630   4.706  0.6695 -0.3378  2.5159
  220MOL   H16144399   5.796   6.779   4.645 -0.6955  4.2413  0.7862
  220MOL   C16244400   5.450   6.609   4.609  0.0947  0.0352  0.6027
  220MOL   C16344401   5.397   6.597   4.754 -0.0185  0.2848  0.2589
  220MOL   O16444402   5.274   6.677   4.776  0.4544  0.2058 -0.5550
  220MOL   C16544403   5.276   6.747   4.900 -0.4245  0.0381 -0.4865
  220MOL   H16644404   5.518   6.524   4.597 -0.7082 -0.5560  0.1962
  220MOL   H16744405   5.358   6.591   4.554  1.2433 -1.2109 -0.9722
  220MOL   H16844406   5.470   6.644   4.819  0.0094  1.4085 -0.5677
  220MOL   H16944407   5.347   6.831   4.894 -1.8232  1.2789 -0.0258
  220MOL   H17044408   5.182   6.801   4.911  1.5053  3.2616  1.1737
  220MOL   H17144409   5.292   6.686   4.988 -2.2024 -0.0230 -0.1925
  220MOL   C17244410   5.359   6.449   4.795 -0.4214  0.1272  0.1933
  220MOL   C17344411   5.481   6.366   4.834  0.7866 -0.4918  0.2612
  220MOL   O17444412   5.573   6.336   4.730 -0.1255 -0.5753 -0.5031
  220MOL   C17544413   5.551   6.213   4.669 -0.3587 -0.2515 -1.1746
  220MOL   H17644414   5.298   6.396   4.722  1.4214  0.9750 -2.0173
  220MOL   H17744415   5.302   6.443   4.888  2.2495 -0.7540  1.8425
  220MOL   H17844416   5.424   6.277   4.861 -1.1136 -0.0105 -2.0731
  220MOL   H17944417   5.623   6.208   4.587  0.1819  0.7322 -0.7744
  220MOL   H18044418   5.559   6.125   4.732 -0.9843  0.3470 -0.2625
  220MOL   H18144419   5.454   6.203   4.620 -0.9988 -2.4889  0.4672
  220MOL   C18244420   5.572   6.414   4.946 -0.1855  0.3558  0.8952
  220MOL   C18344421   5.515   6.440   5.089 -0.2085 -0.1852  0.4362
  220MOL   O18444422   5.449   6.321   5.130 -0.3633  0.5560 -0.2088
  220MOL   C18544423   5.347   6.327   5.234 -0.1351  0.5081  0.0891
  220MOL   H18644424   5.630   6.497   4.905 -0.7326  0.2782 -0.0441
  220MOL   H18744425   5.644   6.334   4.964  0.3153  1.3121  3.4614
  220MOL   H18844426   5.437   6.515   5.080 -1.7131 -1.7673 -0.1012
  220MOL   H18944427   5.306   6.227   5.252 -2.1084  1.4297  0.8781
  220MOL   H19044428   5.383   6.375   5.325  1.1379 -0.8880  0.3497
  220MOL   H19144429   5.268   6.393   5.197 -0.8918 -0.2902  0.2644
  220MOL   C19244430   5.612   6.502   5.191  0.7397  0.2330  0.9207
  220MOL   C19344431   5.657   6.643   5.155 -1.3144 -0.4219 -0.5160
  220MOL   O19444432   5.547   6.724   5.169 -0.0633 -0.0776  0.0283
  220MOL   C19544433   5.552   6.844   5.093 -0.1692  0.4868 -0.6142
  220MOL   H19644434   5.696   6.433   5.206  0.4278 -0.1228  1.0234
  220MOL   H19744435   5.573   6.504   5.292 -0.7259  3.6419  0.3684
  220MOL   H19844436   5.694   6.635   5.052 -1.1253 -0.9484 -0.4091
  220MOL   H19944437   5.568   6.822   4.987 -3.0704 -1.4901 -0.6941
  220MOL   H20044438   5.462   6.906   5.097 -1.3799 -1.3900  2.2256
  220MOL   H20144439   5.629   6.909   5.135 -0.6489  1.2025 -0.8358
  220MOL   H20244440   5.735   6.684   5.219 -1.5584  0.9631 -1.0962
  221MOL     C144441   6.305   3.626   7.739 -0.2530  0.3852  0.3742
  221MOL     C244442   6.390   3.706   0.036 -0.2748  0.8599 -0.2733
  221MOL     O344443   6.397   3.628   0.157 -0.5518  0.1943 -0.4101
  221MOL     C444444   6.363   3.691   0.274  0.6821 -0.1646  0.5633
  221MOL     H544445   6.201   3.607   7.766 -0.3490  1.8512  1.1112
  221MOL     H644446   6.310   3.689   7.650  0.1320  0.9306  0.7822
  221MOL     H744447   6.345   3.801   0.065 -0.1701  0.0603  2.6616
  221MOL     H844448   6.267   3.742   0.262  1.0167  0.0073 -1.6024
  221MOL     H944449   6.350   3.613   0.348 -0.3085  0.5814  1.1938
  221MOL    H1044450   6.446   3.751   0.310 -0.7263  0.7102  2.4442
  221MOL    H1144451   6.365   3.541   7.707 -1.8892 -0.0254 -1.6880
  221MOL    C1244452   6.538   3.741   7.810 -0.2102  0.1329 -0.4850
  221MOL    C1344453   6.553   3.864   7.714  0.5104 -0.5590  0.1438
  221MOL    O1444454   6.680   3.905   7.749  0.0761 -0.5362  0.4206
  221MOL    C1544455   6.688   4.046   7.747  0.5938 -0.1578 -0.4911
  221MOL    H1644456   6.595   3.661   7.761 -0.7806 -0.1297 -0.7252
  221MOL    H1744457   6.584   3.752   0.097  1.6899 -0.2360 -1.3007
  221MOL    H1844458   6.476   3.937   7.738  0.2524 -0.4979 -0.8437
  221MOL    H1944459   6.661   4.088   7.651 -2.4235 -2.4703 -0.7400
  221MOL    H2044460   6.614   4.077   0.011 -2.2733 -3.6336 -1.7238
  221MOL    H2144461   6.780   4.091   7.784 -0.1880  0.4462  0.7748
  221MOL    C2244462   6.550   3.810   7.562 -0.7950  0.6765  0.2957
  221MOL    C2344463   6.475   3.915   7.468  0.3627  0.2637 -0.3543
  221MOL    O2444464   6.536   4.045   7.473  0.2350 -0.0161  0.3925
  221MOL    C2544465   6.445   4.158   7.454 -0.1430  0.3544 -0.5418
  221MOL    H2644466   6.499   3.714   7.555  1.6982 -0.5342 -2.2867
  221MOL    H2744467   6.652   3.790   7.530 -1.0069  1.5546 -0.9660
  221MOL    H2844468   6.375   3.919   7.512  0.6984 -0.2734  0.4722
  221MOL    H2944469   6.408   4.155   7.351  1.7927 -1.8688 -1.2371
  221MOL    H3044470   6.362   4.145   7.524  0.8405  3.1244  1.1858
  221MOL    H3144471   6.498   4.252   7.466 -0.0018  0.3377 -1.0201
  221MOL    C3244472   6.474   3.878   7.317 -0.2306  0.4952 -0.1299
  221MOL    C3344473   6.451   3.728   7.289  0.1915  0.3941 -0.7605
  221MOL    O3444474   6.313   3.709   7.324 -0.2102 -0.1213  0.4617
  221MOL    C3544475   6.280   3.569   7.334  0.2598 -0.6452  0.0267
  221MOL    H3644476   6.575   3.907   7.286 -0.2859 -0.3056 -1.0900
  221MOL    H3744477   6.411   3.951   7.266  0.6548  0.3973 -1.3921
  221MOL    H3844478   6.527   3.670   7.341 -0.8213 -0.5818 -0.3428
  221MOL    H3944479   6.227   3.530   7.247 -2.6247  1.5911  0.7005
  221MOL    H4044480   6.371   3.513   7.353  0.0618 -0.8784  0.2910
  221MOL    H4144481   6.222   3.549   7.424 -0.4340  1.9263  0.1935
  221MOL    C4244482   6.461   3.690   7.139  0.1231  0.0178  0.1303
  221MOL    C4344483   6.614   3.687   7.095 -0.2057  0.1389  0.9927
  221MOL    O4444484   6.681   3.584   7.159 -0.2806 -0.5151  0.2716
  221MOL    C4544485   6.794   3.608   7.235 -0.3244 -0.7999  0.3874
  221MOL    H4644486   6.400   3.760   7.083 -1.0900 -2.5065 -1.8124
  221MOL    H4744487   6.419   3.591   7.121  0.5857  0.1278 -1.6696
  221MOL    H4844488   6.660   3.784   7.113 -0.6099  0.9031 -1.9066
  221MOL    H4944489   6.767   3.673   7.318 -1.8028  0.6993 -1.2025
  221MOL    H5044490   6.831   3.518   7.284  0.2462 -1.2674 -0.8946
  221MOL    H5144491   6.873   3.653   7.175 -0.7116 -1.1170 -0.3699
  221MOL    C5244492   6.602   3.646   6.936 -0.2585  0.1450  0.0967
  221MOL    C5344493   6.730   3.689   6.858  0.3831 -0.0251  0.9345
  221MOL    O5444494   6.736   3.612   6.736 -0.1322 -0.1071 -0.3218
  221MOL    C5544495   6.828   3.507   6.743  0.7767 -1.0140  0.6325
  221MOL    H5644496   6.511   3.683   6.890 -0.4061  0.2057  0.4392
  221MOL    H5744497   6.604   3.537   6.935  1.9832  0.1460 -0.0427
  221MOL    H5844498   6.816   3.677   6.924 -0.1679  0.3401  1.7199
  221MOL    H5944499   6.797   3.442   6.825  0.2298 -0.0131  1.2204
  221MOL    H6044500   6.823   3.445   6.653 -1.3831  0.4367 -0.2824
  221MOL    H6144501   6.931   3.538   6.762  0.3350  0.3967  0.7920
  221MOL    C6244502   6.734   3.835   6.816 -0.2899 -0.7540  0.6884
  221MOL    C6344503   6.818   3.881   6.702  0.4396 -0.7690  0.6318
  221MOL    O6444504   6.760   4.003   6.648 -0.2628  0.0143 -0.3556
  221MOL    C6544505   6.775   4.016   6.508 -0.5184 -0.1650 -0.1925
  221MOL    H6644506   6.762   3.886   6.909 -1.8183  0.4888  0.4907
  221MOL    H6744507   6.632   3.860   6.789  0.1014 -0.3352 -0.4060
  221MOL    H6844508   6.811   3.797   6.632  0.3501 -0.3351  0.1137
  221MOL    H6944509   6.709   4.095   6.474  0.9571  0.6574 -1.2035
  221MOL    H7044510   6.878   4.044   6.483 -0.1395 -1.2157  0.1366
  221MOL    H7144511   6.740   3.924   6.462 -0.4601 -1.5500  2.4347
  221MOL    C7244512   6.962   3.919   6.733 -0.1055 -0.1808  0.0247
  221MOL    C7344513   7.059   3.829   6.661  0.6159  0.2542  0.3349
  221MOL    O7444514   7.045   3.843   6.524 -0.0317  0.3961  0.6222
  221MOL    C7544515   7.012   3.728   6.448 -0.3955 -0.0830  0.0061
  221MOL    H7644516   6.975   3.902   6.840 -1.6439 -1.2761  0.0572
  221MOL    H7744517   6.972   4.025   6.709 -1.0903  0.2064  1.3177
  221MOL    H7844518   7.042   3.727   6.696 -3.4036  0.2764 -1.2496
  221MOL    H7944519   6.983   3.750   6.345  1.7331  3.3273  0.0395
  221MOL    H8044520   7.092   3.654   6.449 -0.3916 -0.0671  0.7501
  221MOL    H8144521   6.935   3.677   6.504 -0.7133 -1.3141 -1.5186
  221MOL    C8244522   7.202   3.867   6.700  0.3952  0.2349 -0.4233
  221MOL    C8344523   7.314   3.791   6.625  0.1765  0.0501  0.4291
  221MOL    O8444524   7.435   3.860   6.624 -0.5684  0.1375 -0.5510
  221MOL    C8544525   7.442   3.984   6.558  0.1859  0.5960 -0.0771
  221MOL    H8644526   7.207   3.858   6.808  0.7109  0.7755 -0.3924
  221MOL    H8744527   7.212   3.973   6.681  0.0408  0.5513  1.0991
  221MOL    H8844528   7.269   3.780   6.526 -0.4302  3.0069  0.3506
  221MOL    H8944529   7.546   4.017   6.553  0.5916 -0.8132 -0.9151
  221MOL    H9044530   7.400   3.995   6.459  1.4437  1.5267 -0.5155
  221MOL    H9144531   7.391   4.055   6.624  0.3352  0.1510  0.5225
  221MOL    C9244532   7.326   3.650   6.682 -0.2065  0.2471  0.1814
  221MOL    C9344533   7.426   3.558   6.598 -0.7160 -0.0091 -0.0854
  221MOL    O9444534   7.483   3.450   6.674  0.1184  0.7032  0.2253
  221MOL    C9544535   7.598   3.482   6.741 -0.0147  0.0106 -0.5923
  221MOL    H9644536   7.227   3.605   6.688  0.2441 -1.0927 -1.8920
  221MOL    H9744537   7.369   3.646   6.782 -0.6027  1.2606  0.3909
  221MOL    H9844538   7.498   3.627   6.553 -1.3422  1.1697  0.6908
  221MOL    H9944539   7.685   3.500   6.677  0.0673  0.5636 -0.3282
  221MOL   H10044540   7.589   3.575   6.797  1.8422  1.0458 -1.9404
  221MOL   H10144541   7.631   3.404   6.809 -1.6428 -0.0605  0.1239
  221MOL   C10244542   7.360   3.494   6.481  0.1472 -0.3158 -0.2364
  221MOL   C10344543   7.453   3.442   6.365  0.1023 -0.6668 -0.3535
  221MOL   O10444544   7.393   3.319   6.311 -0.5021 -0.0157 -0.0062
  221MOL   C10544545   7.488   3.221   6.294  0.4700  0.6933  0.2512
  221MOL   H10644546   7.288   3.563   6.437 -1.8268 -2.6697 -0.8561
  221MOL   H10744547   7.301   3.405   6.506 -0.9289  0.2158 -0.8349
  221MOL   H10844548   7.546   3.418   6.417  1.0937  2.1237 -0.7219
  221MOL   H10944549   7.528   3.176   6.385  0.1046 -1.6527 -0.7255
  221MOL   H11044550   7.448   3.140   6.234 -1.9035  2.1486 -0.1915
  221MOL   H11144551   7.567   3.261   6.230  0.5548  0.7008  0.3604
  221MOL   C11244552   7.490   3.538   6.254 -0.2689  0.0945 -0.0375
  221MOL   C11344553   7.590   3.649   6.293 -0.0091 -0.1813 -0.3112
  221MOL   O11444554   7.711   3.607   6.349  0.3861  0.5157  0.4753
  221MOL   C11544555   7.772   3.707   6.428 -0.0443  0.2265  0.0848
  221MOL   H11644556   7.405   3.589   6.209 -0.5740 -0.0360  0.3871
  221MOL   H11744557   7.523   3.476   6.170  0.4361  0.9069 -0.3649
  221MOL   H11844558   7.535   3.713   6.363 -0.8102 -0.9116 -0.2645
  221MOL   H11944559   0.033   3.654   6.490  0.8654  0.1275 -1.0172
  221MOL   H12044560   0.017   3.779   6.368  0.5155  1.8511  2.4887
  221MOL   H12144561   7.701   3.752   6.496  1.7564 -0.5994  2.5685
  221MOL   C12244562   7.620   3.737   6.173  0.0634 -0.3554  0.0708
  221MOL   C12344563   7.502   3.805   6.109 -0.2225 -0.6715  0.4908
  221MOL   O12444564   7.427   3.884   6.207 -0.3291 -0.3326 -0.0768
  221MOL   C12544565   7.289   3.895   6.192  0.6180  0.2956 -0.8199
  221MOL   H12644566   7.681   3.675   6.108 -1.5356  0.5592 -2.3499
  221MOL   H12744567   7.681   3.824   6.200 -0.2399 -0.8226  2.4150
  221MOL   H12844568   7.444   3.722   6.069  2.2838 -2.4422  0.3959
  221MOL   H12944569   7.270   3.944   6.096 -2.5294  0.4500 -0.2015
  221MOL   H13044570   7.243   3.797   6.181 -0.7691  0.3920  3.0829
  221MOL   H13144571   7.256   3.953   6.278 -0.6149 -1.0036 -0.3969
  221MOL   C13244572   7.533   3.911   6.006  0.5712  0.0583 -0.2725
  221MOL   C13344573   7.601   3.855   5.879  1.1170  1.1248 -0.2759
  221MOL   O13444574   7.511   3.754   5.821 -1.0547 -0.2941  0.3894
  221MOL   C13544575   7.577   3.652   5.747  0.0877 -0.5541 -0.0406
  221MOL   H13644576   7.596   3.987   6.054  2.4235 -1.4208 -0.2977
  221MOL   H13744577   7.449   3.966   5.964  1.2458  0.9343 -0.5102
  221MOL   H13844578   7.693   3.801   5.901  2.5160  3.5675  0.0051
  221MOL   H13944579   7.615   3.571   5.809 -1.4197 -0.5186  0.9791
  221MOL   H14044580   7.497   3.612   5.684 -0.1559 -2.8723  1.6894
  221MOL   H14144581   7.658   3.692   5.686  1.2540  1.1778  2.5879
  221MOL   C14244582   7.624   3.972   5.776  0.0920 -0.3214  0.1898
  221MOL   C14344583   7.751   4.054   5.791  0.0677 -0.5388 -0.7157
  221MOL   O14444584   7.756   4.117   5.917 -0.1575  0.0579  0.0436
  221MOL   C14544585   0.026   4.231   5.920 -0.3013  0.3232 -0.1348
  221MOL   H14644586   7.543   4.044   5.762  0.2293 -0.1862  0.0946
  221MOL   H14744587   7.619   3.927   5.677  2.0714 -1.4790  0.5853
  221MOL   H14844588   7.740   4.136   5.719 -0.7400 -1.7480 -1.9904
  221MOL   H14944589   7.800   4.298   5.998 -1.0150  0.7990 -0.8746
  221MOL   H15044590   0.119   4.200   5.969 -0.8525  0.2435  0.8656
  221MOL   H15144591   0.022   4.288   5.827 -0.8097  1.5982  0.6575
  221MOL   C15244592   0.071   3.987   5.752  0.3347 -0.9597 -0.0187
  221MOL   C15344593   0.083   3.940   5.605 -0.0683 -0.0055  0.2617
  221MOL   O15444594   0.105   4.050   5.521 -0.8976 -0.0807 -0.1042
  221MOL   C15544595   0.042   4.043   5.398 -0.0650 -0.1430  0.1745
  221MOL   H15644596   0.080   3.910   5.827  0.4542 -0.9250  0.0032
  221MOL   H15744597   0.158   4.051   5.770 -0.5236  0.0760  0.5246
  221MOL   H15844598   7.807   3.885   5.568  1.1953 -2.1393  0.3658
  221MOL   H15944599   7.747   4.016   5.407 -0.1235 -0.4052 -1.1526
  221MOL   H16044600   0.044   4.146   5.361 -1.5921 -0.0490  0.3229
  221MOL   H16144601   0.087   3.977   5.324 -2.9093 -1.9419 -0.0202
  221MOL   C16244602   0.193   3.839   5.597 -0.7096  0.5062 -0.6162
  221MOL   C16344603   0.147   3.690   5.613  0.1915 -0.0900 -0.1433
  221MOL   O16444604   0.065   3.657   5.492 -0.4876 -1.5285  1.0411
  221MOL   C16544605   0.141   3.637   5.373  0.4434  0.8516 -0.2800
  221MOL   H16644606   0.261   3.876   5.674 -2.2199 -0.4152  1.2111
  221MOL   H16744607   0.254   3.857   5.508  0.6805  0.2052  0.2564
  221MOL   H16844608   0.067   3.674   5.685  0.6912 -1.2494  0.1608
  221MOL   H16944609   0.174   3.533   5.373 -1.2335  0.3058 -0.8280
  221MOL   H17044610   0.074   3.660   5.291 -2.4371  2.3804  2.4134
  221MOL   H17144611   0.233   3.695   5.367 -0.9144  3.4159  2.2118
  221MOL   C17244612   0.251   3.585   5.643  0.2254 -0.8949 -0.3645
  221MOL   C17344613   0.214   3.439   5.672  0.2014  0.0901  0.7227
  221MOL   O17444614   0.328   3.386   5.728  0.0905 -0.5354  0.4887
  221MOL   C17544615   0.358   3.248   5.689 -0.1042 -0.2348  0.0883
  221MOL   H17644616   0.293   3.619   5.737  1.7937 -0.7813 -1.0968
  221MOL   H17744617   0.333   3.592   5.572 -0.6733  1.0898 -1.2170
  221MOL   H17844618   0.190   3.396   5.575 -0.7357  2.2772 -0.0434
  221MOL   H17944619   0.455   3.221   5.730 -1.5600 -2.0734  2.4895
  221MOL   H18044620   0.279   3.188   5.734 -0.1319 -0.7786 -0.6888
  221MOL   H18144621   0.357   3.227   5.582  1.6771 -0.3380  0.0786
  221MOL   C18244622   0.093   3.414   5.769  0.7500  0.0081  0.2391
  221MOL   C18344623   0.109   3.459   5.913 -0.2467 -0.0642  0.3837
  221MOL   O18444624   0.077   3.600   5.919  0.4754 -0.9263 -0.0255
  221MOL   C18544625   0.138   3.673   6.025  0.6878 -0.1850 -0.2464
  221MOL   H18644626   0.073   3.307   5.776 -0.6277 -0.0236 -3.0904
  221MOL   H18744627   0.003   3.461   5.728 -0.0297 -0.2841  1.5950
  221MOL   H18844628   0.212   3.436   5.942 -0.5656 -0.1386  1.4964
  221MOL   H18944629   0.243   3.648   6.031  0.2532 -2.2766 -1.0579
  221MOL   H19044630   0.122   3.781   6.015 -2.2921 -0.6647 -1.4071
  221MOL   H19144631   0.114   3.652   6.129  2.0309 -0.1968  0.0658
  221MOL   C19244632   0.013   3.383   6.000 -0.5818 -0.5158 -0.1831
  221MOL   C19344633   0.053   3.240   6.023  0.4881  0.3985 -0.0499
  221MOL   O19444634   0.013   3.204   6.157 -0.5271  0.1445  0.1391
  221MOL   C19544635   7.778   3.074   6.172  1.2651 -0.1425  0.0861
  221MOL   H19644636   7.719   3.384   5.970 -1.1648  1.1023  1.7408
  221MOL   H19744637   7.803   3.442   6.090 -1.2579 -2.4116  0.9384
  221MOL   H19844638   0.161   3.228   6.018  0.3755 -0.7964  0.2140
  221MOL   H19944639   7.767   3.051   6.278 -2.3192 -0.8251 -0.3609
  221MOL   H20044640   7.691   3.067   6.106  1.9702  1.9178 -1.1318
  221MOL   H20144641   0.047   3.008   6.140  1.9152  1.0966 -0.9243
  221MOL   H20244642   0.007   3.166   5.957 -0.2964 -0.2264  1.1813
  222MOL     C144643   5.148   5.522   6.301 -0.7119  0.2863 -0.2366
  222MOL     C244644   5.248   5.493   6.414  0.0318  0.5219 -0.0826
  222MOL     O344645   5.295   5.357   6.412  0.0615  0.2284  0.2876
  222MOL     C444646   5.205   5.261   6.467  0.0348  0.3634 -0.6370
  222MOL     H544647   5.065   5.453   6.310  0.4501 -1.0359  0.4992
  222MOL     H644648   5.111   5.624   6.313  0.1635  0.7468 -1.3646
  222MOL     H744649   5.209   5.515   6.513  0.7422 -0.8624  0.5127
  222MOL     H844650   5.198   5.276   6.575  3.0672 -0.9519 -0.2277
  222MOL     H944651   5.108   5.273   6.419 -0.6827 -2.1485  0.0958
  222MOL    H1044652   5.223   5.154   6.454  0.9160  0.2262  1.4327
  222MOL    H1144653   5.190   5.510   6.201  1.7779  0.1483  0.7850
  222MOL    C1244654   5.372   5.577   6.398 -0.4466  0.3698  0.3318
  222MOL    C1344655   5.364   5.725   6.444 -0.1944 -0.3347 -0.2699
  222MOL    O1444656   5.341   5.725   6.582 -0.2603  0.4265 -0.0361
  222MOL    C1544657   5.259   5.829   6.623  0.0110 -0.2124  0.1991
  222MOL    H1644658   5.412   5.573   6.297 -0.5280 -0.8721  0.3436
  222MOL    H1744659   5.452   5.537   6.461 -2.6270 -2.6138  1.2857
  222MOL    H1844660   5.272   5.760   6.398 -2.8793 -5.0851  1.1099
  222MOL    H1944661   5.303   5.928   6.607 -1.8100  0.5760 -0.0999
  222MOL    H2044662   5.161   5.823   6.574  0.8546  0.1751 -1.5892
  222MOL    H2144663   5.256   5.820   6.731  0.0793  0.8562  0.3001
  222MOL    C2244664   5.490   5.808   6.423 -0.4288 -0.4224  0.6949
  222MOL    C2344665   5.495   5.880   6.286  0.4810  0.7083 -0.3009
  222MOL    O2444666   5.385   5.968   6.287 -0.3912  0.3154  0.1490
  222MOL    C2544667   5.338   5.993   6.160  0.4026 -0.0513 -0.8562
  222MOL    H2644668   5.578   5.745   6.427 -1.8072 -2.2756  2.3633
  222MOL    H2744669   5.508   5.871   6.510  1.3493 -0.2676  0.2420
  222MOL    H2844670   5.467   5.806   6.211  1.8581 -1.4989  1.3030
  222MOL    H2944671   5.256   6.063   6.174 -0.3052 -0.9237 -0.6171
  222MOL    H3044672   5.413   6.035   6.093  2.1511 -0.7414  0.6410
  222MOL    H3144673   5.296   5.910   6.102 -0.1097  0.7119 -1.5901
  222MOL    C3244674   5.640   5.935   6.263 -0.0070 -0.9262  0.1442
  222MOL    C3344675   5.737   5.833   6.200 -0.2481 -0.1285  0.0105
  222MOL    O3444676   5.661   5.777   6.095  0.0947  0.0387  0.0250
  222MOL    C3544677   5.728   5.676   6.033  0.2314  0.6189  0.4846
  222MOL    H3644678   5.678   5.982   6.354  0.6465  0.3947 -0.7839
  222MOL    H3744679   5.625   6.012   6.186 -0.0126  0.3451  1.4009
  222MOL    H3844680   5.759   5.755   6.273 -0.7560  0.0598  0.3632
  222MOL    H3944681   5.649   5.619   5.983 -0.2967  0.8225  1.0757
  222MOL    H4044682   5.809   5.702   5.966  0.3852  0.1111  0.4683
  222MOL    H4144683   5.754   5.605   6.112 -0.2104 -0.5405 -0.3817
  222MOL    C4244684   5.866   5.909   6.157  0.0170  0.6723 -0.7552
  222MOL    C4344685   5.934   6.011   6.249 -0.4228 -1.2498 -0.2943
  222MOL    O4444686   5.977   5.930   6.353 -0.1216  0.2746 -0.3081
  222MOL    C4544687   6.000   5.998   6.482  0.3060 -0.2652 -0.6739
  222MOL    H4644688   5.833   5.960   6.066  0.0564  0.5216 -0.8542
  222MOL    H4744689   5.943   5.842   6.118  1.4935  1.4209  0.8159
  222MOL    H4844690   5.867   6.089   6.285 -1.4635 -1.8780 -0.8352
  222MOL    H4944691   6.073   6.078   6.483  0.1886 -0.1613  0.6866
  222MOL    H5044692   5.902   6.034   6.514  1.0864  1.4871 -0.2119
  222MOL    H5144693   6.023   5.925   6.560 -2.2997 -0.8590 -0.4038
  222MOL    C5244694   6.064   6.067   6.190 -0.8623 -0.2071 -0.1581
  222MOL    C5344695   6.042   6.171   6.084  0.2502 -0.2126 -0.1415
  222MOL    O5444696   5.976   6.289   6.147 -0.1519  0.7855  0.5936
  222MOL    C5544697   5.906   6.370   6.058  0.4566 -0.4264  0.4109
  222MOL    H5644698   6.109   5.976   6.150  1.8631 -0.3270  3.0033
  222MOL    H5744699   6.126   6.107   6.269  0.4724 -2.5519  0.0203
  222MOL    H5844700   5.980   6.137   6.001 -0.1909  1.0807 -0.3567
  222MOL    H5944701   5.967   6.423   5.985  0.9265 -0.7095  0.6037
  222MOL    H6044702   5.832   6.315   5.999 -0.7051  0.2762  1.1697
  222MOL    H6144703   5.841   6.435   6.117 -1.8881 -0.4003 -2.0652
  222MOL    C6244704   6.173   6.224   6.017 -0.6148 -0.1294  0.1354
  222MOL    C6344705   6.269   6.123   5.949  0.0579  0.0794 -1.0599
  222MOL    O6444706   6.198   6.072   5.830  0.0383  0.0588 -0.0276
  222MOL    C6544707   6.191   5.933   5.833 -0.1668  0.6567  0.6767
  222MOL    H6644708   6.221   6.276   6.100  0.1386  0.1921 -0.5020
  222MOL    H6744709   6.142   6.298   5.943  1.4207 -0.4485 -1.0630
  222MOL    H6844710   6.274   6.043   6.023 -0.4129 -0.8274 -2.0104
  222MOL    H6944711   6.132   5.897   5.749  1.3398 -1.0058  0.2954
  222MOL    H7044712   6.291   5.889   5.829 -1.2207 -1.5761 -2.2723
  222MOL    H7144713   6.161   5.891   5.929  2.3155 -0.3478  1.0567
  222MOL    C7244714   6.407   6.183   5.904 -0.8284  0.3600  0.5512
  222MOL    C7344715   6.495   6.253   6.010  0.1922 -0.0087  0.1058
  222MOL    O7444716   6.513   6.157   6.115 -0.4007  0.1012 -0.4121
  222MOL    C7544717   6.482   6.191   6.246  0.7136  0.0593 -0.2211
  222MOL    H7644718   6.387   6.251   5.822 -0.3764 -1.3756 -1.0371
  222MOL    H7744719   6.474   6.112   5.856 -0.6089  2.3143 -2.1654
  222MOL    H7844720   6.436   6.342   6.032  0.8720  0.1516  1.3650
  222MOL    H7944721   6.375   6.209   6.253  0.7709 -0.0688  1.1440
  222MOL    H8044722   6.513   6.108   6.310  2.2614 -0.3412 -1.4581
  222MOL    H8144723   6.534   6.285   6.266  3.9108 -1.2849 -1.6988
  222MOL    C8244724   6.640   6.297   5.970 -0.1190 -0.7911  0.3765
  222MOL    C8344725   6.650   6.383   5.833  0.4986  0.3001  0.0709
  222MOL    O8444726   6.549   6.484   5.843 -0.1682  0.0462  0.6076
  222MOL    C8544727   6.484   6.527   5.721 -0.1788  0.4824 -1.1335
  222MOL    H8644728   6.700   6.206   5.968  1.9251  0.4968  1.2128
  222MOL    H8744729   6.687   6.348   6.054 -0.1840  0.0996 -0.1220
  222MOL    H8844730   6.638   6.308   5.754  0.6195 -2.0025  2.1757
  222MOL    H8944731   6.397   6.590   5.739 -0.4241 -0.2282  0.2620
  222MOL    H9044732   6.552   6.593   5.667 -0.1480  2.0824  0.7690
  222MOL    H9144733   6.469   6.440   5.658  1.8061 -0.7840  0.0643
  222MOL    C9244734   6.789   6.443   5.811 -0.2138  0.4177  1.0243
  222MOL    C9344735   6.898   6.346   5.759 -0.1411 -0.6461 -0.1330
  222MOL    O9444736   6.926   6.236   5.846 -0.0614  0.7887 -0.2683
  222MOL    C9544737   6.982   6.263   5.971 -0.0307 -0.1282  0.3641
  222MOL    H9644738   6.808   6.495   5.905 -0.0209  0.5944  0.8853
  222MOL    H9744739   6.784   6.519   5.733  3.5761  0.2670  0.5132
  222MOL    H9844740   6.986   6.411   5.755 -1.2956  1.1184  1.9171
  222MOL    H9944741   7.082   6.304   5.956 -0.4241  0.2107 -1.4315
  222MOL   H10044742   6.923   6.339   6.022 -0.2805  1.1438 -1.7401
  222MOL   H10144743   6.992   6.170   6.026 -0.9467 -1.1738 -1.2026
  222MOL   C10244744   6.871   6.282   5.618  0.3084 -0.1294  0.2113
  222MOL   C10344745   6.986   6.199   5.559 -0.2170  0.7330 -0.5156
  222MOL   O10444746   6.916   6.147   5.446 -0.3782 -0.0610  0.4118
  222MOL   C10544747   6.983   6.071   5.349 -0.8378  0.1503 -0.4646
  222MOL   H10644748   6.857   6.363   5.547  3.0616 -0.7219 -1.0903
  222MOL   H10744749   6.784   6.217   5.618  0.2365 -0.0307 -0.3175
  222MOL   H10844750   7.009   6.116   5.627 -0.6156 -0.9266 -2.3595
  222MOL   H10944751   7.048   5.997   5.395 -2.6004 -1.4298 -0.4548
  222MOL   H11044752   6.907   6.017   5.292  0.2488 -0.8487 -0.9795
  222MOL   H11144753   7.055   6.126   5.288 -1.9659  1.2371 -0.8474
  222MOL   C11244754   7.116   6.277   5.520  0.2108 -0.3291  0.2852
  222MOL   C11344755   7.237   6.188   5.551  0.7560 -0.2483 -0.2745
  222MOL   O11444756   7.356   6.241   5.489  0.6833  0.1008  0.3407
  222MOL   C11544757   7.379   6.191   5.357 -1.0216 -0.5352  1.0984
  222MOL   H11644758   7.120   6.360   5.590  0.9542 -0.0078 -0.1367
  222MOL   H11744759   7.113   6.321   5.420  0.5517 -0.0190  0.4102
  222MOL   H11844760   7.223   6.089   5.508 -1.5053  0.2661 -0.8183
  222MOL   H11944761   7.385   6.082   5.351  1.6977 -0.5225  2.7620
  222MOL   H12044762   7.308   6.225   5.282 -0.1543  0.3320  0.6650
  222MOL   H12144763   7.477   6.225   5.322 -1.1598  0.0368  1.2661
  222MOL   C12244764   7.260   6.186   5.703 -0.5114  0.1147  0.3231
  222MOL   C12344765   7.361   6.092   5.764  0.3215 -0.2039  0.3320
  222MOL   O12444766   7.352   6.111   5.912 -0.5129 -0.3839 -0.0901
  222MOL   C12544767   7.438   6.212   5.952 -0.0712 -0.3192 -0.1308
  222MOL   H12644768   7.165   6.172   5.754 -1.8918 -1.7976 -2.6103
  222MOL   H12744769   7.290   6.285   5.736  1.0289 -0.5212  0.8809
  222MOL   H12844770   7.465   6.101   5.733  1.0108 -2.9768  1.6370
  222MOL   H12944771   7.536   6.204   5.905 -0.3683  1.6502 -1.1534
  222MOL   H13044772   7.409   6.316   5.940 -0.5232 -0.1497  2.1864
  222MOL   H13144773   7.468   6.193   6.055 -0.5927 -4.0924 -0.5996
  222MOL   C13244774   7.323   5.948   5.729  0.1056  0.1402  0.7004
  222MOL   C13344775   7.419   5.844   5.780 -0.3290 -0.1162 -0.2300
  222MOL   O13444776   7.546   5.873   5.731  0.1764 -0.1249 -0.3251
  222MOL   C13544777   7.604   5.761   5.665 -0.3319  0.6034  0.2038
  222MOL   H13644778   7.335   5.941   5.621 -0.1634  0.1247  0.6714
  222MOL   H13744779   7.222   5.921   5.759  0.3915 -0.8713  0.7765
  222MOL   H13844780   7.374   5.755   5.736 -2.1316  1.0528 -0.7994
  222MOL   H13944781   7.536   5.715   5.594  1.0791 -1.3111  0.0327
  222MOL   H14044782   7.684   5.803   5.603 -1.4261  1.8135 -0.4060
  222MOL   H14144783   7.642   5.693   5.741 -0.0042  1.6467  0.9756
  222MOL   C14244784   7.436   5.819   5.933  0.6177  0.2140  0.1233
  222MOL   C14344785   7.304   5.797   6.012 -0.4694 -0.1319 -0.2410
  222MOL   O14444786   7.243   5.681   5.954 -0.0893  0.2238 -0.5920
  222MOL   C14544787   7.098   5.680   5.942  0.0965 -0.4505 -0.2132
  222MOL   H14644788   7.477   5.913   5.970  2.0865 -0.6300  0.6920
  222MOL   H14744789   7.504   5.734   5.940  0.6293  0.1280 -0.9668
  222MOL   H14844790   7.244   5.885   5.989 -1.6895 -1.1866 -1.1285
  222MOL   H14944791   7.067   5.764   5.880 -0.2546  0.3171  0.9797
  222MOL   H15044792   7.069   5.592   5.886 -1.3951  2.2306 -3.8971
  222MOL   H15144793   7.057   5.689   6.043 -0.3002  1.4208 -0.5140
  222MOL   C15244794   7.324   5.773   6.169 -0.7798 -0.6680  0.3605
  222MOL   C15344795   7.378   5.901   6.245  0.5325  0.5991 -0.1848
  222MOL   O15444796   7.271   5.968   6.311  0.1002  0.0769 -0.8127
  222MOL   C15544797   7.179   6.053   6.242  0.1597  0.5284  0.6482
  222MOL   H15644798   7.396   5.694   6.192 -0.6107 -0.7468 -0.4337
  222MOL   H15744799   7.230   5.740   6.213  0.0852 -2.4691  0.9182
  222MOL   H15844800   7.420   5.977   6.180  1.2831 -0.1187 -0.5407
  222MOL   H15944801   7.104   6.086   6.314  0.2365 -1.9753  1.9467
  222MOL   H16044802   7.243   6.131   6.201 -0.3490  0.4811 -0.2497
  222MOL   H16144803   7.123   5.998   6.166  1.9448  1.4806 -1.4117
  222MOL   C16244804   7.479   5.868   6.358 -0.1150 -0.1999 -0.0947
  222MOL   C16344805   7.518   5.994   6.431 -0.3208  0.4855 -0.3370
  222MOL   O16444806   7.582   5.970   6.555 -0.0122 -0.1473  0.0915
  222MOL   C16544807   7.506   5.908   6.666  0.0758 -0.3540  0.3272
  222MOL   H16644808   7.567   5.815   6.321 -0.0626  0.1869 -0.5435
  222MOL   H16744809   7.424   5.799   6.421 -1.8356  1.6020  0.4269
  222MOL   H16844810   7.435   6.062   6.450  2.3457  3.7325  0.1945
  222MOL   H16944811   7.456   5.819   6.629 -0.6323 -0.0679  0.5955
  222MOL   H17044812   7.567   5.883   6.753 -1.6152 -2.3671  0.9774
  222MOL   H17144813   7.427   5.974   6.700  0.5291 -0.0185  0.7255
  222MOL   C17244814   7.609   6.087   6.356 -0.1414  0.0301 -0.1675
  222MOL   C17344815   7.651   6.217   6.434 -0.7458 -0.3491 -0.1406
  222MOL   O17444816   7.774   6.267   6.385 -0.2503 -0.1543 -0.4902
  222MOL   C17544817   0.086   6.216   6.442 -0.2848 -0.5457  0.1249
  222MOL   H17644818   7.577   6.111   6.255 -3.0661  0.3307  0.7920
  222MOL   H17744819   7.704   6.035   6.341 -1.3010 -2.8253  1.8573
  222MOL   H17844820   7.657   6.198   6.541  1.4945 -1.5335 -0.4401
  222MOL   H17944821   0.102   6.261   6.540  3.5319 -0.4363 -0.4778
  222MOL   H18044822   0.100   6.108   6.448 -1.0912 -0.7084 -0.7358
  222MOL   H18144823   0.178   6.252   6.398 -1.3623 -0.9779 -2.6066
  222MOL   C18244824   7.556   6.336   6.423 -0.2476 -0.8349 -0.0415
  222MOL   C18344825   7.584   6.449   6.530  0.1781 -0.5606  0.2419
  222MOL   O18444826   7.537   6.572   6.487  0.3092 -0.0033  0.5255
  222MOL   C18544827   7.617   6.684   6.518 -0.7062  0.5515 -0.3717
  222MOL   H18644828   7.453   6.303   6.435 -0.7448  0.1373 -1.4900
  222MOL   H18744829   7.546   6.386   6.327  2.1007  1.4173  0.8491
  222MOL   H18844830   7.692   6.459   6.539  0.2100 -0.2414 -0.4545
  222MOL   H18944831   7.553   6.770   6.496 -0.8995  0.2458 -1.0147
  222MOL   H19044832   7.651   6.695   6.621  1.8044 -0.9488 -0.9928
  222MOL   H19144833   7.702   6.680   6.450 -0.4725  0.0120 -0.0497
  222MOL   C19244834   7.519   6.419   6.656  0.2564  0.3199  0.2796
  222MOL   C19344835   7.372   6.462   6.656 -0.3927 -0.0048  0.0398
  222MOL   O19444836   7.295   6.403   6.759 -0.0297 -0.2032  0.0249
  222MOL   C19544837   7.154   6.439   6.758 -0.0261  0.2343 -0.2296
  222MOL   H19644838   7.572   6.478   6.731 -1.9237  1.8769  0.6604
  222MOL   H19744839   7.531   6.313   6.677  0.3635  0.3021  0.1292
  222MOL   H19844840   7.326   6.445   6.558 -0.2961  0.6655 -0.1230
  222MOL   H19944841   7.149   6.543   6.792 -0.6404 -0.4346  1.7772
  222MOL   H20044842   7.116   6.423   6.657 -1.1223 -2.0717  0.5171
  222MOL   H20144843   7.095   6.381   6.829 -0.9900  0.1091 -1.1195
  222MOL   H20244844   7.371   6.571   6.654  1.6463  0.0255 -0.7518
  223MOL     C144845   4.024   2.561   6.349  0.2360 -0.5339  0.2723
  223MOL     C244846   3.916   2.671   6.329 -0.6350 -0.5765 -0.5132
  223MOL     O344847   3.895   2.744   6.451  0.4937 -0.2133 -0.1396
  223MOL     C444848   3.758   2.781   6.489  0.3938  0.2394 -0.8190
  223MOL     H544849   3.993   2.491   6.271 -0.3381  0.6871 -0.6128
  223MOL     H644850   4.128   2.594   6.342 -0.0131  0.1667 -0.2062
  223MOL     H744851   3.821   2.622   6.306 -0.9014 -0.2517 -0.1180
  223MOL     H844852   3.757   2.832   6.585 -1.0941 -0.7820 -0.2755
  223MOL     H944853   3.726   2.850   6.411 -4.3827  0.0870  0.8225
  223MOL    H1044854   3.697   2.690   6.494 -1.0055  1.2150  0.2528
  223MOL    H1144855   4.007   2.503   6.439  1.2221  0.7118  1.2673
  223MOL    C1244856   3.943   2.762   6.212 -0.3769  0.4822  0.3113
  223MOL    C1344857   3.943   2.686   6.074  0.1308  0.2126 -0.0904
  223MOL    O1444858   3.809   2.655   6.041  0.3399  0.0015  0.1055
  223MOL    C1544859   3.794   2.516   6.007 -0.1926  0.6824  0.3601
  223MOL    H1644860   4.039   2.812   6.228 -1.2032  2.3612 -0.3723
  223MOL    H1744861   3.871   2.843   6.222 -0.2915  0.6572 -0.4173
  223MOL    H1844862   3.993   2.590   6.089 -0.3025 -0.2928 -1.7778
  223MOL    H1944863   3.858   2.451   6.068  0.2322  0.5379 -0.2379
  223MOL    H2044864   3.691   2.483   6.019 -0.3182  1.2522  0.9430
  223MOL    H2144865   3.813   2.497   5.902 -0.6902  0.2845  0.3411
  223MOL    C2244866   4.004   2.762   5.958  0.3646 -1.0836 -0.2768
  223MOL    C2344867   4.053   2.670   5.840 -0.1735 -1.2037  0.6286
  223MOL    O2444868   4.101   2.754   5.736  0.1444 -0.5643 -0.3298
  223MOL    C2544869   3.996   2.800   5.647 -0.2978 -0.5533  0.2392
  223MOL    H2644870   4.090   2.814   6.000  0.5115 -1.6025  0.0710
  223MOL    H2744871   3.942   2.847   5.928  1.3945 -0.4766 -0.7024
  223MOL    H2844872   3.972   2.611   5.798 -0.7599  0.4006 -0.5614
  223MOL    H2944873   3.908   2.736   5.650  1.3156 -2.9039 -0.9051
  223MOL    H3044874   3.955   2.900   5.665 -0.8598 -0.4742 -1.4525
  223MOL    H3144875   4.043   2.803   5.549  0.9624  0.5099  0.8565
  223MOL    C3244876   4.161   2.567   5.873 -0.0175  0.4757 -0.1288
  223MOL    C3344877   4.283   2.631   5.945  0.4407  0.0596  0.0854
  223MOL    O3444878   4.253   2.663   6.081  0.2397  0.5937 -0.1227
  223MOL    C3544879   4.322   2.765   6.134 -0.2757  0.1528 -0.1777
  223MOL    H3644880   4.180   2.525   5.774  0.5590  0.6352 -0.0886
  223MOL    H3744881   4.120   2.488   5.936 -0.4826 -0.1283 -1.1784
  223MOL    H3844882   4.309   2.720   5.889 -1.4944 -0.1107 -1.1192
  223MOL    H3944883   4.304   2.862   6.089 -1.3244  1.0801  2.1440
  223MOL    H4044884   4.285   2.778   6.236  0.4661 -2.2439  0.4506
  223MOL    H4144885   4.427   2.738   6.141 -0.0128  0.6117 -2.2699
  223MOL    C4244886   4.401   2.537   5.932  0.2794 -0.8311  0.3390
  223MOL    C4344887   4.474   2.536   5.792 -0.1046 -0.1429 -1.0533
  223MOL    O4444888   4.524   2.663   5.798 -0.3187  0.1668 -0.1076
  223MOL    C4544889   4.567   2.721   5.681  0.1411 -0.7601  0.6462
  223MOL    H4644890   4.367   2.438   5.961  1.5944 -0.6625  2.5917
  223MOL    H4744891   4.476   2.560   6.008  1.1357  0.9619 -1.0190
  223MOL    H4844892   4.397   2.533   5.714 -0.2239 -1.4777 -0.8986
  223MOL    H4944893   4.614   2.816   5.707  1.7036 -1.5117  0.6452
  223MOL    H5044894   4.653   2.663   5.646  0.4344 -1.0346  1.8223
  223MOL    H5144895   4.487   2.751   5.613 -0.3950 -0.9245  1.2002
  223MOL    C5244896   4.582   2.429   5.782 -0.3581  0.2320 -0.1327
  223MOL    C5344897   4.517   2.290   5.772  0.4927 -0.7860  0.5196
  223MOL    O5444898   4.417   2.298   5.666 -0.9227  0.0058  0.3948
  223MOL    C5544899   4.321   2.199   5.663  0.0837 -1.2306 -0.6526
  223MOL    H5644900   4.638   2.428   5.875 -0.4062  0.5774 -0.1000
  223MOL    H5744901   4.646   2.440   5.694  0.7177  0.7093  0.6924
  223MOL    H5844902   4.460   2.263   5.861  2.3116 -0.2049  1.8883
  223MOL    H5944903   4.258   2.214   5.575 -0.9130 -0.4505  0.1916
  223MOL    H6044904   4.353   2.096   5.650  0.7804 -1.3702  2.0402
  223MOL    H6144905   4.255   2.200   5.749 -0.5203 -0.9460 -1.1152
  223MOL    C6244906   4.614   2.167   5.759 -0.2029 -0.2904 -0.4337
  223MOL    C6344907   4.723   2.170   5.871  0.2222 -0.4686 -0.3629
  223MOL    O6444908   4.655   2.179   5.993  0.0877  0.4931 -0.0124
  223MOL    C6544909   4.741   2.228   6.103  0.6602 -0.4698 -0.3683
  223MOL    H6644910   4.662   2.182   5.662  0.2957  0.4409 -0.0801
  223MOL    H6744911   4.552   2.078   5.755  0.3760 -0.6464 -2.4272
  223MOL    H6844912   4.780   2.261   5.855 -2.2463  0.9277 -1.3938
  223MOL    H6944913   4.829   2.166   6.121  0.1605 -1.0600  0.0824
  223MOL    H7044914   4.771   2.330   6.079  3.5091 -1.3495 -0.7195
  223MOL    H7144915   4.689   2.239   6.198 -0.0666 -0.4034 -0.7763
  223MOL    C7244916   4.807   2.045   5.868  0.9535  0.2085 -0.6817
  223MOL    C7344917   4.955   2.072   5.864  0.3818 -0.1293  0.6165
  223MOL    O7444918   5.027   1.953   5.890  0.7501  0.1249 -0.5080
  223MOL    C7544919   5.050   1.922   6.017 -0.5087  0.3074 -0.1494
  223MOL    H7644920   4.775   1.979   5.787 -1.0173 -0.0116  0.2441
  223MOL    H7744921   4.787   1.992   5.961 -1.1945  0.2527 -1.0986
  223MOL    H7844922   4.975   2.137   5.949 -0.3437  0.7228  0.1495
  223MOL    H7944923   5.104   1.827   6.012 -1.2070 -0.0510 -0.9750
  223MOL    H8044924   5.097   2.004   6.072  1.1322  0.3278 -1.5759
  223MOL    H8144925   4.954   1.894   6.062 -0.9888  0.6242 -0.9635
  223MOL    C8244926   5.003   2.122   5.727 -0.9024 -0.0625 -0.2065
  223MOL    C8344927   5.148   2.180   5.710 -0.4395  0.2347  0.2324
  223MOL    O8444928   5.192   2.136   5.584 -0.4718 -0.1088  0.1382
  223MOL    C8544929   5.265   2.008   5.584  0.2813 -0.0548  0.8476
  223MOL    H8644930   4.927   2.189   5.684 -2.0037 -0.3642  1.2521
  223MOL    H8744931   4.995   2.034   5.663 -4.0850  0.2637 -0.3303
  223MOL    H8844932   5.223   2.143   5.780 -0.2150  1.2590  0.5438
  223MOL    H8944933   5.370   2.022   5.610  0.0624 -0.4716  1.9862
  223MOL    H9044934   5.208   1.930   5.635  0.1267 -0.5488 -0.0730
  223MOL    H9144935   5.259   1.954   5.490 -0.0146  0.0107  0.8277
  223MOL    C9244936   5.168   2.332   5.704  0.4439 -0.1018  0.8432
  223MOL    C9344937   5.141   2.411   5.839 -0.1945 -0.2376  0.6976
  223MOL    O9444938   5.004   2.415   5.885 -0.4351  0.0472 -0.1786
  223MOL    C9544939   4.931   2.537   5.847 -0.2728 -0.3187 -0.2087
  223MOL    H9644940   5.102   2.383   5.634 -0.5684 -0.4983  1.4945
  223MOL    H9744941   5.266   2.355   5.664  0.5144  0.5370  1.3716
  223MOL    H9844942   5.179   2.510   5.813 -2.1264  0.4857  0.5690
  223MOL    H9944943   4.823   2.538   5.859 -0.1622 -0.2373  0.8637
  223MOL   H10044944   4.970   2.618   5.909  1.2179 -1.1683 -0.0078
  223MOL   H10144945   4.951   2.556   5.742 -0.9114 -1.4848 -0.5560
  223MOL   C10244946   5.205   2.343   5.964 -1.0957 -0.3089  0.5165
  223MOL   C10344947   5.189   2.422   6.099  0.1522  0.0189  0.6520
  223MOL   O10444948   5.256   2.343   6.206 -0.7593 -0.4379 -0.5413
  223MOL   C10544949   5.175   2.257   6.282 -1.0625 -0.5600  0.4346
  223MOL   H10644950   5.308   2.336   5.929 -1.8317 -1.5205 -1.5243
  223MOL   H10744951   5.180   2.238   5.980 -2.1572 -0.3718 -1.4176
  223MOL   H10844952   5.081   2.434   6.108  0.2691  0.9058  0.9535
  223MOL   H10944953   5.110   2.213   6.206  0.7270 -0.7003 -1.0661
  223MOL   H11044954   5.245   2.192   6.334  2.0336  2.1411 -0.2229
  223MOL   H11144955   5.121   2.321   6.352 -1.5938 -0.4467 -0.0657
  223MOL   C11244956   5.264   2.560   6.093 -0.3863 -0.3676 -0.5129
  223MOL   C11344957   5.258   2.662   6.210 -0.8982 -0.0461  0.1024
  223MOL   O11444958   5.378   2.736   6.215  0.7399  0.4088  0.1534
  223MOL   C11544959   5.490   2.666   6.275 -0.1646 -0.2973  0.8071
  223MOL   H11644960   5.250   2.626   6.007  1.0986 -0.1564 -0.6093
  223MOL   H11744961   5.369   2.531   6.100 -0.3182 -0.6236 -2.3884
  223MOL   H11844962   5.240   2.616   6.307 -1.0384  0.9451  0.5505
  223MOL   H11944963   5.557   2.623   6.200 -0.2993 -0.0500  0.5452
  223MOL   H12044964   5.553   2.736   6.330 -2.3666  1.0413  1.6746
  223MOL   H12144965   5.458   2.584   6.339  0.0489 -0.0767  1.1938
  223MOL   C12244966   5.141   2.755   6.181  0.2223 -0.4238  0.0098
  223MOL   C12344967   5.032   2.744   6.294 -0.9678 -0.1106  0.0389
  223MOL   O12444968   4.939   2.853   6.278 -0.8146 -0.3286  0.1595
  223MOL   C12544969   4.985   2.975   6.326  0.0143 -0.9118 -0.5196
  223MOL   H12644970   5.095   2.735   6.084  1.7736  1.2249 -1.1120
  223MOL   H12744971   5.174   2.859   6.175 -2.0120  0.5713  3.5195
  223MOL   H12844972   5.083   2.759   6.389 -2.4475 -0.3555  0.8866
  223MOL   H12944973   4.959   2.977   6.432 -1.7552 -0.4760 -0.9340
  223MOL   H13044974   5.092   2.995   6.316 -0.1417  0.3064  0.0755
  223MOL   H13144975   4.922   3.051   6.279 -0.1815 -0.7245  0.0369
  223MOL   C13244976   4.959   2.607   6.283 -0.5074  0.9703 -0.6953
  223MOL   C13344977   4.852   2.590   6.388  0.5197  0.8190  0.1891
  223MOL   O13444978   4.748   2.497   6.350 -0.2044  0.3479  0.3755
  223MOL   C13544979   4.644   2.547   6.270 -0.8508 -0.2218 -0.1250
  223MOL   H13644980   5.033   2.527   6.287 -1.1534  0.2728 -2.2455
  223MOL   H13744981   4.919   2.605   6.181  0.3208  0.0944 -1.0143
  223MOL   H13844982   4.808   2.689   6.400  0.3671  1.0145 -1.8856
  223MOL   H13944983   4.583   2.601   6.342  0.2157  0.5758  0.1902
  223MOL   H14044984   4.677   2.606   6.184 -0.2095 -1.1881 -0.5571
  223MOL   H14144985   4.593   2.456   6.239 -0.5901 -1.0890  1.9596
  223MOL   C14244986   4.917   2.540   6.518  0.5023  0.4739  0.1530
  223MOL   C14344987   4.832   2.523   6.645  0.6125 -0.4766 -1.0328
  223MOL   O14444988   4.886   2.425   6.729  0.5810 -0.7302  0.7093
  223MOL   C14544989   4.798   2.377   6.832 -0.2216 -0.4316  0.5181
  223MOL   H14644990   5.002   2.603   6.544  1.5130 -0.6629 -0.3569
  223MOL   H14744991   4.954   2.442   6.489 -0.0900  1.0632 -2.7990
  223MOL   H14844992   4.741   2.473   6.614  0.6640 -1.1198 -0.1502
  223MOL   H14944993   4.807   2.268   6.828 -2.4952 -0.6383  0.6005
  223MOL   H15044994   4.836   2.418   6.926  2.3718 -1.0849 -0.2206
  223MOL   H15144995   4.696   2.412   6.818 -0.2271 -1.6824 -3.0655
  223MOL   C15244996   4.809   2.662   6.727 -0.4132  0.0393  0.0889
  223MOL   C15344997   4.934   2.750   6.753  0.4317 -0.7177 -0.1553
  223MOL   O15444998   4.881   2.864   6.815 -0.1843  0.0093  0.5448
  223MOL   C15544999   4.961   2.983   6.817  0.1796 -0.1980  1.0105
  223MOL   H15645000   4.759   2.643   6.822 -1.1537 -3.0218 -0.8633
  223MOL   H15745001   4.738   2.724   6.672  0.1012  1.6196  1.1898
  223MOL   H15845002   4.994   2.780   6.666  1.9996 -1.5144  0.6303
  223MOL   H15945003   5.068   2.975   6.837  0.3364  0.5887  0.5128
  223MOL   H16045004   4.951   3.020   6.715  0.8143  2.3183  1.8352
  223MOL   H16145005   4.912   3.062   6.874 -1.0770  0.9131 -1.4985
  223MOL   C16245006   5.026   2.683   6.856 -0.6062  0.6028 -0.6102
  223MOL   C16345007   5.143   2.585   6.810 -0.4918 -0.0544 -0.2325
  223MOL   O16445008   5.271   2.646   6.799 -0.2105 -0.3856  0.1557
  223MOL   C16545009   5.287   2.739   6.692  0.0423 -0.0143 -0.1951
  223MOL   H16645010   4.957   2.635   6.925  2.4322 -0.9550  1.4503
  223MOL   H16745011   5.080   2.755   6.918  1.9018 -0.9558 -0.9300
  223MOL   H16845012   5.113   2.548   6.712 -1.7638  0.0129  0.1194
  223MOL   H16945013   5.227   2.826   6.716 -0.6546 -0.3879 -0.5753
  223MOL   H17045014   5.385   2.785   6.677  0.2078 -0.2851  0.0299
  223MOL   H17145015   5.242   2.700   6.600 -0.6530  1.7293 -0.6151
  223MOL   C17245016   5.152   2.463   6.899 -0.3781 -0.0022  0.1632
  223MOL   C17345017   5.269   2.371   6.850  0.8672  0.8589  0.0282
  223MOL   O17445018   5.266   2.262   6.939 -0.1920  0.6048  0.2070
  223MOL   C17545019   5.330   2.282   7.060 -0.0785  0.3368  0.3213
  223MOL   H17645020   5.065   2.403   6.874 -0.9673  1.0321 -0.2487
  223MOL   H17745021   5.162   2.483   7.006  1.5908 -3.9451  0.8174
  223MOL   H17845022   5.365   2.422   6.855  1.3127  0.1828 -1.2489
  223MOL   H17945023   5.435   2.310   7.063  0.3973 -1.3525 -0.1076
  223MOL   H18045024   5.282   2.341   7.139 -0.0757 -0.1498  0.6917
  223MOL   H18145025   5.339   2.181   7.102  0.9337  0.4891  0.4909
  223MOL   C18245026   5.259   2.321   6.705  0.2564  0.6428  0.4751
  223MOL   C18345027   5.365   2.222   6.652  0.8866  0.0695 -0.5835
  223MOL   O18445028   5.304   2.120   6.575  0.3556 -0.7210  0.6395
  223MOL   C18545029   5.253   2.013   6.656  0.3581 -0.1399  0.2354
  223MOL   H18645030   5.254   2.412   6.645  2.4587 -0.0840 -0.8876
  223MOL   H18745031   5.158   2.280   6.710  0.4891  0.3170  4.0039
  223MOL   H18845032   5.425   2.176   6.730  2.1230  0.3760 -1.3359
  223MOL   H18945033   5.172   2.052   6.718  0.0588 -2.5299  1.4088
  223MOL   H19045034   5.215   1.940   6.585 -0.6048  3.4481 -3.1316
  223MOL   H19145035   5.333   1.975   6.719  2.2783  0.2799 -1.8738
  223MOL   C19245036   5.466   2.300   6.558  0.3416  0.6782  1.0180
  223MOL   C19345037   5.570   2.401   6.617 -0.2192 -0.0165  0.4287
  223MOL   O19445038   5.683   2.421   6.522 -0.0634 -0.1372 -0.3823
  223MOL   C19545039   5.785   2.506   6.574 -0.0450  0.4057  0.1256
  223MOL   H19645040   5.400   2.335   6.478 -0.0939 -3.0655 -0.3834
  223MOL   H19745041   5.523   2.225   6.503 -0.4232 -0.3507  1.6220
  223MOL   H19845042   5.615   2.359   6.708  1.8658  1.9341  0.3396
  223MOL   H19945043   5.877   2.492   6.519  0.2562  2.1643  0.1328
  223MOL   H20045044   5.757   2.612   6.572 -0.8166  0.2032  0.0310
  223MOL   H20145045   5.805   2.475   6.677 -0.0481  0.5345  0.1662
  223MOL   H20245046   5.521   2.496   6.633 -1.4956 -0.5299 -0.3837
  224MOL     C145047   3.585   4.980   6.449  0.0791 -0.0182 -0.3900
  224MOL     C245048   3.719   5.052   6.478  0.2242 -0.0742  0.4153
  224MOL     O345049   3.831   4.964   6.447  0.4998 -0.5063  0.2312
  224MOL     C445050   3.853   4.878   6.563  0.3901 -0.3275  0.5548
  224MOL     H545051   3.567   4.960   6.344 -0.2338  0.5608 -0.4496
  224MOL     H645052   3.586   4.888   6.508  0.3158 -0.0322 -0.4143
  224MOL     H745053   3.721   5.074   6.585  0.7310  0.8574  0.2136
  224MOL     H845054   3.835   4.931   6.657  1.4971  1.0283  0.0081
  224MOL     H945055   3.785   4.793   6.554  1.7715 -1.2011 -2.1566
  224MOL    H1045056   3.947   4.825   6.577  1.2846  0.6779 -1.4690
  224MOL    H1145057   3.500   5.036   6.489 -0.8163 -1.7292  0.1308
  224MOL    C1245058   3.733   5.177   6.388 -0.4821 -0.8077  0.0256
  224MOL    C1345059   3.695   5.312   6.458  0.3686 -0.0044  0.2476
  224MOL    O1445060   3.565   5.296   6.528  0.1954  0.2852 -0.4309
  224MOL    C1545061   3.453   5.343   6.444  0.2252 -0.1344 -0.3333
  224MOL    H1645062   3.660   5.170   6.307 -0.8902  2.1169  0.0739
  224MOL    H1745063   3.830   5.177   6.339 -0.8081 -0.1592 -0.6441
  224MOL    H1845064   3.697   5.401   6.395  2.1294 -0.1440  0.0847
  224MOL    H1945065   3.356   5.332   6.492  0.7651 -0.3473  0.7121
  224MOL    H2045066   3.473   5.442   6.402  0.5617 -0.0252  0.0843
  224MOL    H2145067   3.457   5.281   6.354  2.6760  1.4412 -1.3561
  224MOL    C2245068   3.793   5.364   6.572  0.4267 -0.4761  0.2346
  224MOL    C2345069   3.945   5.369   6.540  0.2363 -0.6384 -0.4342
  224MOL    O2445070   3.955   5.466   6.432 -0.0407  0.2375 -0.1516
  224MOL    C2545071   4.068   5.459   6.347  0.1622  0.4211 -0.0105
  224MOL    H2645072   3.782   5.287   6.649 -1.3569 -2.0392 -1.5251
  224MOL    H2745073   3.750   5.457   6.610 -0.2911 -1.0823  0.9420
  224MOL    H2845074   3.978   5.271   6.506  0.9489 -1.2382  1.8762
  224MOL    H2945075   4.091   5.357   6.319 -0.2183  0.0666  0.9261
  224MOL    H3045076   4.070   5.519   6.256 -1.5878  1.7484  0.7731
  224MOL    H3145077   4.151   5.493   6.410  0.4085 -0.9016  0.3779
  224MOL    C3245078   4.037   5.432   6.648 -0.2400 -0.5449  0.0743
  224MOL    C3345079   4.055   5.343   6.769  0.7655 -0.1665  0.0248
  224MOL    O3445080   4.140   5.231   6.731 -0.5488  0.0357  0.3352
  224MOL    C3545081   4.130   5.105   6.797 -0.0311  0.5132  1.0348
  224MOL    H3645082   3.993   5.528   6.675  1.9735  0.9927 -1.6661
  224MOL    H3745083   4.137   5.462   6.616 -0.7858  1.6655  0.3637
  224MOL    H3845084   3.959   5.305   6.805 -0.0699 -0.5177 -2.4656
  224MOL    H3945085   4.201   5.028   6.767 -2.3958 -0.6295 -1.9921
  224MOL    H4045086   4.124   5.120   6.904 -0.0270  0.2541  1.0720
  224MOL    H4145087   4.027   5.072   6.784  0.7469 -1.5108 -0.1659
  224MOL    C4245088   4.111   5.408   6.901  0.1598  0.7835 -1.1225
  224MOL    C4345089   4.247   5.484   6.896  0.4320 -0.5916 -0.5426
  224MOL    O4445090   4.289   5.524   7.033 -0.6249  0.2735 -0.4889
  224MOL    C4545091   4.243   5.645   7.082 -0.0052  0.1734 -0.2504
  224MOL    H4645092   4.101   5.326   6.971  0.0512  1.1445 -0.7127
  224MOL    H4745093   4.027   5.470   6.933  0.0896 -0.5926  1.4921
  224MOL    H4845094   4.249   5.570   6.829  1.1510  0.7925  1.2207
  224MOL    H4945095   4.142   5.624   7.119  0.2776 -1.6073 -0.4721
  224MOL    H5045096   4.301   5.680   7.168 -0.4348  0.0517  0.0941
  224MOL    H5145097   4.229   5.723   7.007 -1.3232 -0.4340 -0.6493
  224MOL    C5245098   4.359   5.393   6.847  0.1551 -0.2391  0.0575
  224MOL    C5345099   4.496   5.455   6.867 -0.2877 -0.1594 -0.3624
  224MOL    O5445100   4.606   5.359   6.856 -0.2515 -0.1162  0.6657
  224MOL    C5545101   4.634   5.297   6.974 -0.6435 -0.1804 -0.6159
  224MOL    H5645102   4.336   5.373   6.742  0.1817  0.5120 -0.0940
  224MOL    H5745103   4.352   5.296   6.896 -0.6278  0.4489  1.3249
  224MOL    H5845104   4.508   5.493   6.968  1.8445 -0.3212 -0.5224
  224MOL    H5945105   4.538   5.257   7.006 -0.5121 -0.8816 -1.0851
  224MOL    H6045106   4.694   5.208   6.953 -0.6454  0.0437 -1.5831
  224MOL    H6145107   4.691   5.357   7.046  0.4933  0.8404 -2.3265
  224MOL    C6245108   4.528   5.568   6.762  0.1691 -0.2645  0.4288
  224MOL    C6345109   4.619   5.686   6.814 -0.1448 -0.0925 -0.3728
  224MOL    O6445110   4.529   5.753   6.905  0.2284  0.0231 -0.2089
  224MOL    C6545111   4.486   5.878   6.859  0.2097 -0.1075 -0.3067
  224MOL    H6645112   4.442   5.622   6.722  1.1198 -0.6743 -2.3097
  224MOL    H6745113   4.570   5.528   6.669 -1.4952  0.1233 -0.5081
  224MOL    H6845114   4.651   5.757   6.738  2.0267 -0.4431  0.1771
  224MOL    H6945115   4.577   5.931   6.832 -0.1152 -0.2999 -1.8255
  224MOL    H7045116   4.424   5.871   6.770 -1.1794  0.1059  0.6235
  224MOL    H7145117   4.434   5.935   6.936  3.0235 -0.4531  1.9308
  224MOL    C7245118   4.759   5.636   6.868  0.3811  0.7224 -0.0031
  224MOL    C7345119   4.861   5.616   6.754 -0.2179 -0.4127  0.3190
  224MOL    O7445120   4.872   5.742   6.694 -0.5507 -0.5052  0.1156
  224MOL    C7545121   4.894   5.732   6.563 -0.9186  0.0377  0.5928
  224MOL    H7645122   4.750   5.543   6.924 -3.4468  1.0852  0.1296
  224MOL    H7745123   4.809   5.710   6.930  0.4259  2.4421 -2.0380
  224MOL    H7845124   4.810   5.545   6.689  0.4935 -0.7503  0.1287
  224MOL    H7945125   4.978   5.664   6.548 -3.4836 -2.9701 -0.7666
  224MOL    H8045126   4.813   5.686   6.507 -0.5388  0.1305 -0.0288
  224MOL    H8145127   4.913   5.832   6.525 -1.4091  0.7967  2.2797
  224MOL    C8245128   4.997   5.562   6.802 -0.7571  0.4723  0.3249
  224MOL    C8345129   4.996   5.409   6.834 -0.3301  0.1336 -0.5017
  224MOL    O8445130   5.007   5.351   6.702  0.5519  0.5244  0.5617
  224MOL    C8545131   4.970   5.219   6.686  0.2798 -0.3922  0.7430
  224MOL    H8645132   5.016   5.618   6.894 -2.7216 -0.1317  1.1138
  224MOL    H8745133   5.081   5.588   6.738  0.4807 -2.0962  0.7885
  224MOL    H8845134   4.903   5.387   6.887  0.8797  0.2774  1.7062
  224MOL    H8945135   4.870   5.214   6.729  0.6768 -0.6670  1.6353
  224MOL    H9045136   4.961   5.193   6.580  1.7364  1.7604  0.0607
  224MOL    H9145137   5.038   5.151   6.737  0.5515 -0.4289  0.3336
  224MOL    C9245138   5.114   5.346   6.913  0.0622  0.1842  0.3965
  224MOL    C9345139   5.156   5.433   7.039 -0.1279  0.4746  0.7341
  224MOL    O9445140   5.066   5.391   7.133  0.5733 -0.4426 -0.1129
  224MOL    C9545141   5.022   5.491   7.221 -0.0497 -0.1373  0.0149
  224MOL    H9645142   5.199   5.341   6.845  1.3251 -0.4636  1.9995
  224MOL    H9745143   5.099   5.247   6.954 -1.0582  0.3260  0.3595
  224MOL    H9845144   5.156   5.539   7.012 -1.0330  0.4025  0.4293
  224MOL    H9945145   4.953   5.564   7.177 -0.0125  0.6022  1.1589
  224MOL   H10045146   4.964   5.437   7.296 -2.2480  2.3147  0.1707
  224MOL   H10145147   5.099   5.548   7.273  0.3932 -1.1261  0.4556
  224MOL   C10245148   5.300   5.397   7.095  1.0012  0.0875 -0.1626
  224MOL   C10345149   5.414   5.407   7.000 -0.1181 -0.2753  0.1366
  224MOL   O10445150   5.410   5.543   6.972  0.3150  0.0983  0.0201
  224MOL   C10545151   5.421   5.584   6.833  0.6118 -0.1569  0.0964
  224MOL   H10645152   5.291   5.292   7.121  0.7871 -0.0384 -0.7405
  224MOL   H10745153   5.315   5.451   7.189  1.3380 -0.4543  0.0953
  224MOL   H10845154   5.414   5.335   6.918  0.2982  1.3781 -1.3733
  224MOL   H10945155   5.516   5.547   6.796  1.4877  2.1964 -0.0619
  224MOL   H11045156   5.338   5.549   6.771 -0.2314  1.1039  0.4874
  224MOL   H11145157   5.429   5.693   6.829  0.1326 -0.1903 -2.0300
  224MOL   C11245158   5.541   5.380   7.087  0.8302 -0.1534 -0.4455
  224MOL   C11345159   5.670   5.369   7.006 -0.0383  0.4487  0.6062
  224MOL   O11445160   5.770   5.373   7.098  0.3242 -0.6667 -0.8195
  224MOL   C11545161   5.897   5.369   7.046  0.2464  0.4966 -0.2368
  224MOL   H11645162   5.543   5.302   7.163 -0.4234 -1.0850 -1.3384
  224MOL   H11745163   5.548   5.471   7.147 -1.8693  0.0230 -0.3210
  224MOL   H11845164   5.679   5.459   6.947  0.1425  0.8380  1.2234
  224MOL   H11945165   5.913   5.430   6.957  0.7352  0.5605 -0.1122
  224MOL   H12045166   5.969   5.404   7.121 -2.1392 -0.2174  2.4476
  224MOL   H12145167   5.931   5.271   7.014  2.1060  0.4962  1.5962
  224MOL   C12245168   5.678   5.259   6.896 -0.2331 -0.7234  0.5371
  224MOL   C12345169   5.665   5.114   6.946 -0.2153  0.4975 -0.6337
  224MOL   O12445170   5.531   5.079   6.966 -0.0871  0.0222 -0.0512
  224MOL   C12545171   5.501   5.025   7.095 -0.2940 -0.3388 -0.6133
  224MOL   H12645172   5.770   5.293   6.849 -0.5586  0.6534  0.8788
  224MOL   H12745173   5.607   5.267   6.814 -0.4020  1.1699  0.8347
  224MOL   H12845174   5.726   5.131   7.035  1.1272 -1.3249 -1.1776
  224MOL   H12945175   5.514   4.917   7.081  0.1386 -0.4442  0.5085
  224MOL   H13045176   5.565   5.066   7.174 -1.5350  1.5496 -0.5870
  224MOL   H13145177   5.398   5.050   7.120 -0.2305 -0.8480  0.1907
  224MOL   C13245178   5.742   5.012   6.862  0.3702 -0.3635  0.0602
  224MOL   C13345179   5.787   4.879   6.929 -0.2663  0.0415 -0.1673
  224MOL   O13445180   5.843   4.797   6.832  0.5467  0.3796 -0.2613
  224MOL   C13545181   5.759   4.743   6.738  0.7657  0.0834 -0.1823
  224MOL   H13645182   5.838   5.056   6.833  0.6825 -0.7203  0.5500
  224MOL   H13745183   5.691   4.988   6.769  2.4496  0.3631 -1.3228
  224MOL   H13845184   5.704   4.827   6.978 -2.7182  0.9969 -3.1258
  224MOL   H13945185   5.745   4.814   6.658  2.5852  0.1485 -0.4767
  224MOL   H14045186   5.803   4.653   6.695  1.1081 -0.0697  0.4684
  224MOL   H14145187   5.662   4.705   6.770  0.9953 -2.0497 -1.9212
  224MOL   C14245188   5.902   4.906   7.030 -0.4926 -0.6298 -0.3670
  224MOL   C14345189   5.947   4.775   7.105 -0.7823  0.4181  0.5593
  224MOL   O14445190   6.093   4.781   7.122  0.6789  0.1268 -1.1371
  224MOL   C14545191   6.170   4.741   7.010 -0.1959 -0.0530  0.4619
  224MOL   H14645192   5.854   4.980   7.094 -2.3251  0.3855 -2.8042
  224MOL   H14745193   5.981   4.953   6.972 -1.9209 -0.6488 -2.3942
  224MOL   H14845194   5.919   4.693   7.040 -2.5469 -0.3311  2.2226
  224MOL   H14945195   6.267   4.764   7.054  0.9241 -1.6106 -1.1319
  224MOL   H15045196   6.152   4.636   6.989 -0.3647 -0.1774  1.2077
  224MOL   H15145197   6.141   4.797   6.921 -0.1603  0.0317  0.5041
  224MOL   C15245198   5.896   4.733   7.252 -0.2254 -0.3473  0.6477
  224MOL   C15345199   5.750   4.685   7.246  0.7192  0.0301 -0.0954
  224MOL   O15445200   5.761   4.555   7.197  0.3460 -0.6649  0.1244
  224MOL   C15545201   5.651   4.506   7.125 -0.1567  0.0183  0.3614
  224MOL   H15645202   5.905   4.813   7.325  1.0835  1.1212 -1.0660
  224MOL   H15745203   5.960   4.652   7.288 -1.0720 -0.0642  2.8704
  224MOL   H15845204   5.689   4.744   7.178  2.6086  1.7143 -0.4071
  224MOL   H15945205   5.618   4.565   7.039 -0.5630 -0.6680  0.0492
  224MOL   H16045206   5.671   4.408   7.083  0.3527 -1.6610  4.3259
  224MOL   H16145207   5.566   4.492   7.191  0.0546  0.0754  0.6476
  224MOL   C16245208   5.677   4.688   7.386 -0.1853  0.2779  0.3978
  224MOL   C16345209   5.587   4.812   7.415  0.4511  0.1243  0.4525
  224MOL   O16445210   5.477   4.821   7.320 -0.3847  0.9842  0.1330
  224MOL   C16545211   5.368   4.731   7.328 -0.2503 -0.1645 -0.3453
  224MOL   H16645212   5.752   4.687   7.465 -0.3069  1.3764  0.5370
  224MOL   H16745213   5.622   4.594   7.397 -1.4613  1.1895  2.1084
  224MOL   H16845214   5.640   4.906   7.397  0.1976  0.7523  2.8763
  224MOL   H16945215   5.402   4.628   7.340  0.0628 -0.3338 -2.4710
  224MOL   H17045216   5.315   4.750   7.421  0.0615 -1.7217  0.1760
  224MOL   H17145217   5.302   4.735   7.242 -0.2324  0.7486 -0.3229
  224MOL   C17245218   5.548   4.825   7.560 -0.2081  0.0511 -0.6503
  224MOL   C17345219   5.489   4.959   7.620  0.3914 -0.2522 -0.3516
  224MOL   O17445220   5.467   4.921   7.762  0.0409 -0.1170  0.1687
  224MOL   C17545221   5.406   5.005   0.036  0.2470  0.3566 -0.3111
  224MOL   H17645222   5.633   4.802   7.624 -1.6490  1.5532  1.9083
  224MOL   H17745223   5.486   4.737   7.579  0.4059  0.1686  2.1525
  224MOL   H17845224   5.390   4.983   7.581  0.0702 -1.8025 -0.5096
  224MOL   H17945225   5.321   5.062   0.000 -0.3615 -0.3636 -0.0174
  224MOL   H18045226   5.358   4.950   0.117 -3.9243  3.2534 -0.6789
  224MOL   H18145227   5.483   5.068   0.081 -0.3626  0.7033  0.2459
  224MOL   C18245228   5.590   5.081   7.607 -0.7667  0.5597 -0.4645
  224MOL   C18345229   5.562   5.171   7.483  0.2654  0.1542 -1.0814
  224MOL   O18445230   5.440   5.246   7.513 -0.4562  0.2990  0.1857
  224MOL   C18545231   5.361   5.299   7.408 -0.3798 -0.0466  0.0507
  224MOL   H18645232   5.696   5.060   7.619 -0.7801  0.1055 -1.1344
  224MOL   H18745233   5.566   5.143   7.694  0.8378 -0.1762  0.5276
  224MOL   H18845234   5.537   5.115   7.393 -1.6637 -0.9570  0.1005
  224MOL   H18945235   5.347   5.222   7.332  1.9449 -1.1897  0.7262
  224MOL   H19045236   5.276   5.361   7.436 -1.3599 -1.9387  1.3840
  224MOL   H19145237   5.420   5.375   7.357 -1.6827  0.0238 -1.3950
  224MOL   C19245238   5.685   5.272   7.456  0.8684 -0.5177 -0.0185
  224MOL   C19345239   5.811   5.229   7.375  1.1800 -0.1290  0.1371
  224MOL   O19445240   5.886   5.144   7.456  0.3603 -0.4943 -0.1986
  224MOL   C19545241   6.006   5.108   7.383 -0.7260 -0.6851 -0.1737
  224MOL   H19645242   5.719   5.319   7.548 -0.6232  0.5691 -0.0031
  224MOL   H19745243   5.638   5.357   7.405  1.0707 -0.5029 -0.1805
  224MOL   H19845244   5.870   5.311   7.335 -0.6076  0.6671 -0.9308
  224MOL   H19945245   5.967   5.054   7.296  0.9648 -0.6585 -0.9792
  224MOL   H20045246   6.054   5.200   7.349 -2.8260  1.4002  2.2427
  224MOL   H20145247   6.079   5.045   7.433 -0.7122 -1.6575 -1.4038
  224MOL   H20245248   5.763   5.178   7.291 -0.0769 -0.1825  0.8836
  225MOL     C145249   3.541   6.638   4.092  0.0921 -0.2760 -0.1746
  225MOL     C245250   3.634   6.525   4.141  0.8174  0.3486  0.0867
  225MOL     O345251   3.547   6.449   4.221 -0.7835 -0.2278 -0.9023
  225MOL     C445252   3.586   6.417   4.355  0.2342 -0.1302  0.0975
  225MOL     H545253   3.503   6.702   4.172 -0.3585 -0.2109 -0.4386
  225MOL     H645254   3.606   6.702   4.033  1.6137  0.8007  2.5515
  225MOL     H745255   3.717   6.562   4.203 -0.4230 -1.9135  3.2513
  225MOL     H845256   3.684   6.370   4.356 -0.0679 -0.8101 -1.5411
  225MOL     H945257   3.585   6.512   4.408  2.7646 -0.4372  0.7224
  225MOL    H1045258   3.514   6.349   4.402 -0.1017  0.4710  0.4651
  225MOL    H1145259   3.445   6.610   4.047  0.5760 -2.0193 -0.1592
  225MOL    C1245260   3.674   6.441   4.020 -0.2703 -0.4078 -0.1860
  225MOL    C1345261   3.778   6.335   4.058 -0.2381  0.7049  0.0952
  225MOL    O1445262   3.789   6.235   3.958  0.2834 -0.1340  0.2057
  225MOL    C1545263   3.714   6.117   3.989 -0.1315  0.2518 -0.3859
  225MOL    H1645264   3.712   6.512   3.947 -2.4726  1.5788  0.5238
  225MOL    H1745265   3.579   6.401   3.984 -1.7283  3.4034 -0.7981
  225MOL    H1845266   3.756   6.295   4.157  0.1498  0.0843 -0.0642
  225MOL    H1945267   3.740   6.066   4.082 -0.9887  0.2444 -0.1479
  225MOL    H2045268   3.608   6.141   3.992 -0.2107  0.2638 -2.8660
  225MOL    H2145269   3.734   6.037   3.918 -0.3613 -0.8330  0.7521
  225MOL    C2245270   3.924   6.374   4.066 -0.5208 -0.3326  0.0047
  225MOL    C2345271   4.027   6.276   4.116 -0.5797  0.5424  0.3825
  225MOL    O2445272   4.147   6.324   4.055  0.3954  0.4380  0.0104
  225MOL    C2545273   4.207   6.257   3.947  0.2533  0.5143  0.1794
  225MOL    H2645274   3.912   6.454   4.140 -1.0223  0.4882 -0.9617
  225MOL    H2745275   3.959   6.423   3.975 -1.4227 -0.6805 -0.5266
  225MOL    H2845276   4.012   6.171   4.090  0.1666  0.9486 -1.7352
  225MOL    H2945277   4.273   6.331   3.903 -0.2666  1.5396  1.1055
  225MOL    H3045278   4.255   6.163   3.976  1.2802  1.8830  3.1055
  225MOL    H3145279   4.129   6.225   3.878  0.6533 -1.1822  0.4887
  225MOL    C3245280   4.044   6.281   4.270 -0.4068 -0.3836 -1.1904
  225MOL    C3345281   4.134   6.164   4.319  0.4654 -0.0313  0.5740
  225MOL    O3445282   4.145   6.180   4.464  0.3739  0.3904  0.0369
  225MOL    C3545283   4.274   6.192   4.501 -0.0671  0.3844 -0.4349
  225MOL    H3645284   3.939   6.268   4.298 -0.8972  3.6637 -0.7291
  225MOL    H3745285   4.092   6.377   4.289  1.8062 -1.5988 -0.5522
  225MOL    H3845286   4.232   6.161   4.271 -1.4872  0.7384 -3.6734
  225MOL    H3945287   4.350   6.242   4.442  0.1429 -1.5739 -1.8704
  225MOL    H4045288   4.277   6.239   4.599 -0.6203  1.3710 -0.8913
  225MOL    H4145289   4.317   6.093   4.518  0.4947  0.9423  1.4618
  225MOL    C4245290   4.065   6.022   4.307 -0.2589  0.8097 -0.4448
  225MOL    C4345291   3.933   5.993   4.386 -0.4419 -0.1107 -0.2815
  225MOL    O4445292   3.824   6.042   4.314  0.2979 -0.8986 -0.2301
  225MOL    C4545293   3.698   6.052   4.385  0.3237 -0.5734 -0.0134
  225MOL    H4645294   4.142   5.949   4.334 -0.3113  0.6852 -0.6293
  225MOL    H4745295   4.048   6.000   4.202  1.0248 -1.6541 -0.1655
  225MOL    H4845296   3.939   6.047   4.481 -0.5600  0.6926 -0.7282
  225MOL    H4945297   3.708   6.115   4.473  1.8966 -2.3341  1.0963
  225MOL    H5045298   3.632   6.104   4.315  1.3342 -1.0011 -1.3012
  225MOL    H5145299   3.645   5.965   4.424 -1.4122  0.3949 -0.1441
  225MOL    C5245300   3.906   5.850   4.438 -0.0652  0.2293  1.2000
  225MOL    C5345301   3.856   5.749   4.329 -0.3193 -0.5273 -0.6268
  225MOL    O5445302   3.954   5.738   4.228 -0.3818 -0.3263  0.1460
  225MOL    C5545303   3.908   5.693   4.106 -0.2034  0.0118 -0.4069
  225MOL    H5645304   3.831   5.860   4.516 -0.1991 -3.1019  1.5576
  225MOL    H5745305   3.992   5.802   4.484  0.2823  0.7726  1.1151
  225MOL    H5845306   3.762   5.786   4.289 -0.0798  1.3051  0.4621
  225MOL    H5945307   3.823   5.755   4.079 -0.3008  0.4399  0.8258
  225MOL    H6045308   3.982   5.727   4.035 -0.2165  0.5587 -0.1637
  225MOL    H6145309   3.889   5.587   4.090 -0.3720  0.2538 -1.8250
  225MOL    C6245310   3.847   5.599   4.374  0.2800  0.5793  0.0605
  225MOL    C6345311   3.724   5.567   4.464 -0.1336  0.0612  0.8775
  225MOL    O6445312   3.741   5.647   4.585  0.3159  0.1832 -0.4736
  225MOL    C6545313   3.655   5.619   4.694  0.5617  0.1080 -0.0161
  225MOL    H6645314   3.936   5.573   4.432 -1.2927 -0.8263  1.9070
  225MOL    H6745315   3.827   5.539   4.286  0.8378 -0.7590  0.8283
  225MOL    H6845316   3.751   5.465   4.493  2.9565  0.8220  0.8334
  225MOL    H6945317   3.690   5.673   4.782  0.1340  2.8838 -1.5066
  225MOL    H7045318   3.560   5.669   4.675  0.8041  0.7931  0.5503
  225MOL    H7145319   3.633   5.514   4.716 -1.2392  0.1564 -1.4101
  225MOL    C7245320   3.582   5.593   4.402 -0.6838  0.6340 -0.4101
  225MOL    C7345321   3.481   5.477   4.415  0.1052 -0.1382 -1.4235
  225MOL    O7445322   3.407   5.519   4.530 -0.3348  0.3256 -0.1232
  225MOL    C7545323   3.360   5.408   4.608  0.3034  0.1541  0.1324
  225MOL    H7645324   3.610   5.604   4.297  1.7035 -1.2068 -0.0083
  225MOL    H7745325   3.539   5.689   4.431 -2.9969 -0.1729 -1.0902
  225MOL    H7845326   3.526   5.378   4.422 -0.6541 -0.5403 -2.0635
  225MOL    H7945327   3.306   5.435   4.699 -1.3973 -1.6006 -0.3309
  225MOL    H8045328   3.281   5.356   4.555  0.0139  2.1738 -1.4764
  225MOL    H8145329   3.436   5.335   4.636 -0.8348 -2.0325 -2.2444
  225MOL    C8245330   3.378   5.467   4.299  0.0394 -0.3233  0.1121
  225MOL    C8345331   3.438   5.405   4.172  0.8401 -0.2829 -0.6008
  225MOL    O8445332   3.493   5.281   4.210  0.3677 -0.3024 -0.2065
  225MOL    C8545333   3.417   5.168   4.216  0.4457  0.0635  0.3452
  225MOL    H8645334   3.343   5.569   4.280 -0.8335 -0.8818 -1.3576
  225MOL    H8745335   3.298   5.403   4.337  0.2886 -0.4129  0.4960
  225MOL    H8845336   3.521   5.472   4.149  1.2479 -0.3777  0.5162
  225MOL    H8945337   3.483   5.082   4.234  0.7560  0.7285  2.5273
  225MOL    H9045338   3.356   5.168   4.306  1.8054 -0.1108  1.2857
  225MOL    H9145339   3.363   5.128   4.130  0.7579 -0.2371  0.2862
  225MOL    C9245340   3.354   5.411   4.044 -0.6387  0.0780  0.6587
  225MOL    C9345341   3.313   5.546   3.993  0.7559 -0.1113 -0.2413
  225MOL    O9445342   3.428   5.607   3.949  0.1631 -0.1573 -0.0871
  225MOL    C9545343   3.461   5.730   4.021  0.4267  1.0845 -0.0881
  225MOL    H9645344   3.266   5.349   4.063 -0.2740 -0.4978  0.4786
  225MOL    H9745345   3.412   5.364   3.965 -0.7151 -1.7072  1.6255
  225MOL    H9845346   3.264   5.599   4.074  1.8002  0.1839  0.2017
  225MOL    H9945347   3.378   5.800   4.013 -0.3604  0.1188 -0.5806
  225MOL   H10045348   3.476   5.717   4.128  1.6646 -0.5380 -0.4354
  225MOL   H10145349   3.550   5.770   3.973  0.7679 -1.6696 -1.8586
  225MOL   C10245350   3.220   5.545   3.869 -0.4299  0.4414 -0.3335
  225MOL   C10345351   3.186   5.689   3.811 -0.6512 -0.6481 -0.0356
  225MOL   O10445352   3.117   5.676   3.686 -0.3069 -0.3718 -0.0712
  225MOL   C10545353   3.206   5.696   3.577  0.0078 -0.2163  0.3983
  225MOL   H10645354   3.130   5.492   3.898 -2.6087  2.3314 -3.2899
  225MOL   H10745355   3.266   5.483   3.791  0.5395 -2.0808  2.1446
  225MOL   H10845356   3.276   5.750   3.802 -1.4471  1.2650  3.6866
  225MOL   H10945357   3.293   5.631   3.577  1.9497  2.2631 -0.4306
  225MOL   H11045358   3.170   5.669   3.478  0.0256 -0.4794  0.4650
  225MOL   H11145359   3.222   5.803   3.562 -1.0410 -0.1643 -0.3741
  225MOL   C11245360   3.081   5.748   3.901 -0.0328  0.0620  0.8696
  225MOL   C11345361   3.034   5.887   3.859  0.1197 -0.8928 -0.0330
  225MOL   O11445362   2.931   5.932   3.948 -0.4621 -0.3977 -0.2111
  225MOL   C11545363   2.800   5.879   3.918 -0.1073 -0.2289  0.2175
  225MOL   H11645364   3.115   5.760   4.004  2.0010 -0.2503  0.2642
  225MOL   H11745365   2.995   5.683   3.888  0.8181 -0.7264 -0.9797
  225MOL   H11845366   2.993   5.884   3.758  0.1752 -0.3633 -0.0707
  225MOL   H11945367   2.726   5.903   3.995 -0.9913 -1.0289 -0.3627
  225MOL   H12045368   2.775   5.934   3.827  0.1104 -0.3134  0.1077
  225MOL   H12145369   2.783   5.773   3.901  2.0905 -0.7297  1.0534
  225MOL   C12245370   3.148   6.000   3.871 -0.4170  0.0789  0.1160
  225MOL   C12345371   3.121   6.148   3.828 -0.8535  0.2398  0.3278
  225MOL   O12445372   3.247   6.200   3.779 -0.1023  0.1732  0.4335
  225MOL   C12545373   3.322   6.262   3.883 -0.1352  0.5481  0.3444
  225MOL   H12645374   3.239   5.967   3.820 -2.1248 -3.3818 -0.8364
  225MOL   H12745375   3.180   5.997   3.975  1.3186 -1.3697 -0.4400
  225MOL   H12845376   3.095   6.205   3.918  1.2813  1.0231  0.4833
  225MOL   H12945377   3.277   6.352   3.925  1.4012  0.2935  2.6741
  225MOL   H13045378   3.358   6.190   3.957  0.8640  0.3509 -0.3151
  225MOL   H13145379   3.413   6.279   3.826 -1.5400 -1.6503 -2.6814
  225MOL   C13245380   3.039   6.153   3.707  1.1540  0.4483  0.0127
  225MOL   C13345381   2.998   6.291   3.647  0.1567 -0.2617  0.2608
  225MOL   O13445382   2.947   6.255   3.519  0.6311 -0.3152 -0.1633
  225MOL   C13545383   2.948   6.360   3.424 -0.5358 -0.4857  0.4981
  225MOL   H13645384   2.945   6.100   3.722  1.2623 -0.1000 -1.1614
  225MOL   H13745385   3.091   6.092   3.633 -0.9386 -1.1095 -0.2349
  225MOL   H13845386   3.083   6.357   3.632 -0.6411 -0.0289 -3.8170
  225MOL   H13945387   2.908   6.455   3.459 -1.8437 -1.4076  1.5507
  225MOL   H14045388   3.041   6.385   3.373 -1.2670  1.8780  0.2734
  225MOL   H14145389   2.877   6.333   3.346  0.6807  1.8060 -1.4614
  225MOL   C14245390   2.888   6.358   3.741 -0.2406 -0.7272  0.0868
  225MOL   C14345391   2.873   6.514   3.746  0.0523  0.5825 -0.3484
  225MOL   O14445392   2.779   6.536   3.843  0.0284  0.7807 -0.0671
  225MOL   C14545393   2.718   6.665   3.853 -0.1571 -0.8075 -0.2184
  225MOL   H14645394   2.901   6.328   3.845 -2.5325  1.8277  1.1594
  225MOL   H14745395   2.789   6.327   3.706 -0.5402  0.9236 -0.5881
  225MOL   H14845396   2.832   6.559   3.656 -0.4519  2.0109  0.5936
  225MOL   H14945397   2.661   6.679   3.945  0.8742  2.1120  0.0211
  225MOL   H15045398   2.790   6.746   3.858  0.3099 -1.0151 -2.5981
  225MOL   H15145399   2.666   6.686   3.759  0.9570 -1.5007 -1.0110
  225MOL   C15245400   2.999   6.582   3.800  0.7929  0.1520 -0.4096
  225MOL   C15345401   3.095   6.638   3.692  0.1664  0.1105 -0.7093
  225MOL   O15445402   3.042   6.756   3.638  0.2812 -0.3706  0.1113
  225MOL   C15545403   3.035   6.767   3.493 -0.1327 -0.2363  0.2249
  225MOL   H15645404   3.044   6.505   3.863 -1.2328 -0.3205  0.4977
  225MOL   H15745405   2.983   6.662   3.873 -2.5369 -0.9158  0.0964
  225MOL   H15845406   3.118   6.565   3.615  0.3359  1.1721 -1.6643
  225MOL   H15945407   3.019   6.667   3.451 -0.4684  0.0367 -0.3090
  225MOL   H16045408   2.943   6.819   3.467  0.5173  0.8524  0.0650
  225MOL   H16145409   3.114   6.820   3.440 -0.3813  1.0043  1.0831
  225MOL   C16245410   3.234   6.674   3.750 -0.2131 -0.4117 -0.0431
  225MOL   C16345411   3.345   6.702   3.654  0.5423 -0.4424 -0.2112
  225MOL   O16445412   3.460   6.740   3.727 -0.1709  1.0427 -0.6032
  225MOL   C16545413   3.472   6.882   3.750 -0.2592  0.2571 -0.5906
  225MOL   H16645414   3.257   6.581   3.802 -0.4683 -0.4377  0.0207
  225MOL   H16745415   3.231   6.742   3.835  1.6647  2.3239 -2.0624
  225MOL   H16845416   3.318   6.779   3.581 -0.4655 -1.0244 -0.4710
  225MOL   H16945417   3.379   6.926   3.784 -0.3076  1.1457 -1.8130
  225MOL   H17045418   3.544   6.909   3.827  1.8474 -2.5319 -1.4933
  225MOL   H17145419   3.497   6.926   3.653 -0.0234  1.7207  0.1301
  225MOL   C17245420   3.383   6.574   3.579  0.6256 -0.4273  0.3858
  225MOL   C17345421   3.477   6.599   3.455  0.1591  0.3454 -0.1557
  225MOL   O17445422   3.506   6.484   3.386  0.1770 -0.2818  0.2510
  225MOL   C17545423   3.562   6.379   3.464 -0.1456  0.1937  0.2518
  225MOL   H17645424   3.291   6.532   3.539  0.5062  2.8854 -3.0946
  225MOL   H17745425   3.438   6.508   3.645  0.5088 -2.2200 -1.2599
  225MOL   H17845426   3.566   6.645   3.496 -1.1093  2.1923  0.6076
  225MOL   H17945427   3.646   6.408   3.527 -0.3066  3.2172 -0.8744
  225MOL   H18045428   3.490   6.331   3.530  0.6721  0.7847  1.5696
  225MOL   H18145429   3.600   6.301   3.397  2.5446  0.8710  0.9110
  225MOL   C18245430   3.418   6.694   3.342  0.0704 -0.1837  0.5434
  225MOL   C18345431   3.491   6.687   3.213  0.7252 -0.3634 -0.2349
  225MOL   O18445432   3.424   6.764   3.121 -0.5371 -0.0872  0.6328
  225MOL   C18545433   3.462   6.765   2.986  0.2303 -0.2369  0.3528
  225MOL   H18645434   3.417   6.798   3.375 -1.3624  0.8886 -2.6284
  225MOL   H18745435   3.317   6.657   3.323 -0.2949  0.9687  0.1584
  225MOL   H18845436   3.485   6.586   3.172  0.4210 -0.9145  1.1719
  225MOL   H18945437   3.444   6.672   2.933 -0.0046 -0.7710  1.3619
  225MOL   H19045438   3.413   6.850   2.939  4.3312  1.6860 -0.7460
  225MOL   H19145439   3.567   6.792   2.972 -0.6192  0.8459 -4.6131
  225MOL   C19245440   3.641   6.725   3.219 -0.0902  0.5920  0.4837
  225MOL   C19345441   3.660   6.872   3.258 -0.2408 -0.3844 -0.2942
  225MOL   O19445442   3.801   6.887   3.268  0.2470  0.1331  0.1833
  225MOL   C19545443   3.840   7.024   3.294 -0.0128  0.1157 -0.4919
  225MOL   H19645444   3.679   6.692   3.122  0.7302  2.1417  0.2577
  225MOL   H19745445   3.678   6.651   3.290 -0.5588  0.8728  1.0228
  225MOL   H19845446   3.618   6.889   3.357  0.4860  1.3002 -0.2533
  225MOL   H19945447   3.949   7.032   3.284 -0.2125  2.1326 -1.2674
  225MOL   H20045448   3.792   7.086   3.219 -3.1674  2.5745  3.3438
  225MOL   H20145449   3.808   7.070   3.387 -2.3061  2.8246 -2.5594
  225MOL   H20245450   3.615   6.941   3.187  0.0427  0.6863  0.5482
  226MOL     C145451   2.042   1.476   0.519 -0.2088 -0.7170  0.4096
  226MOL     C245452   2.065   1.355   0.609 -0.3264 -0.4927  0.0887
  226MOL     O345453   2.173   1.283   0.556  0.2064 -0.5865 -0.5649
  226MOL     C445454   2.155   1.207   0.443  0.3612 -0.0313 -0.9763
  226MOL     H545455   2.032   1.450   0.414 -0.8336 -2.0346  0.7903
  226MOL     H645456   1.956   1.538   0.546  1.1061  1.9593 -1.2712
  226MOL     H745457   1.976   1.294   0.626 -1.8896  1.7622  0.2372
  226MOL     H845458   2.052   1.172   0.438  0.0586  0.4045  1.4626
  226MOL     H945459   2.165   1.258   0.347  2.1489  0.4025 -0.5772
  226MOL    H1045460   2.232   1.130   0.438  0.1892 -0.4045  1.6577
  226MOL    H1145461   2.127   1.544   0.526 -0.9280  0.5790 -2.7530
  226MOL    C1245462   2.097   1.403   0.749  0.3154  0.2021 -0.3057
  226MOL    C1345463   2.138   1.288   0.839  0.5420 -0.4040  0.1397
  226MOL    O1445464   2.202   1.347   0.951 -0.6040 -0.2336  0.2461
  226MOL    C1545465   2.265   1.265   1.045  0.1128  0.6951 -0.4054
  226MOL    H1645466   2.019   1.467   0.790 -1.9011 -2.7267  0.2416
  226MOL    H1745467   2.190   1.458   0.738  0.2605  0.1593 -1.0102
  226MOL    H1845468   2.210   1.224   0.789 -0.2661 -0.6977 -0.6754
  226MOL    H1945469   2.330   1.188   1.003  0.3830  0.1390  0.9757
  226MOL    H2045470   2.311   1.325   1.125  0.8773 -0.5166  0.0755
  226MOL    H2145471   2.197   1.206   1.106  0.0567 -1.5252 -2.5663
  226MOL    C2245472   2.020   1.192   0.881  0.0003 -0.6855 -0.2553
  226MOL    C2345473   1.896   1.258   0.941 -0.1989 -0.0491 -0.0457
  226MOL    O2445474   1.785   1.165   0.937 -0.0508 -0.3021  0.0784
  226MOL    C2545475   1.707   1.157   0.823 -0.0073 -0.8180  0.2607
  226MOL    H2645476   2.064   1.115   0.943  1.9414 -0.4852 -1.3374
  226MOL    H2745477   1.991   1.146   0.786 -1.5168 -0.7027  0.2015
  226MOL    H2845478   1.866   1.342   0.878 -1.7708 -1.5859 -1.3988
  226MOL    H2945479   1.628   1.228   0.846 -0.7706 -1.6802  0.3159
  226MOL    H3045480   1.766   1.181   0.735  0.6541 -3.2017  0.0001
  226MOL    H3145481   1.668   1.057   0.800  3.0062 -2.2115  0.9509
  226MOL    C3245482   1.931   1.305   1.086 -0.8754  0.1576 -0.1212
  226MOL    C3345483   1.810   1.379   1.156 -0.9071 -1.1322 -0.1899
  226MOL    O3445484   1.837   1.370   1.299 -0.1583 -0.3198 -0.2399
  226MOL    C3545485   1.786   1.247   1.362 -0.2841 -0.2605 -0.3623
  226MOL    H3645486   2.009   1.381   1.085 -0.3348 -0.3938 -0.2322
  226MOL    H3745487   1.965   1.217   1.141 -0.0382 -0.1954 -1.1739
  226MOL    H3845488   1.718   1.326   1.130  0.1629 -2.4346 -1.3756
  226MOL    H3945489   1.841   1.159   1.331 -1.9321 -1.6060  0.4314
  226MOL    H4045490   1.796   1.256   1.470 -0.4513 -2.7913 -0.1145
  226MOL    H4145491   1.680   1.232   1.338  0.2178 -3.3323 -0.8473
  226MOL    C4245492   1.792   1.528   1.123  0.4142 -0.3133 -0.1356
  226MOL    C4345493   1.767   1.589   0.985 -0.1058 -0.2435  0.0996
  226MOL    O4445494   1.655   1.535   0.914  0.4693  0.3593  0.0122
  226MOL    C4545495   1.528   1.546   0.981  0.5779  0.2232 -0.1938
  226MOL    H4645496   1.882   1.581   1.155  1.0682  0.5991 -3.2058
  226MOL    H4745497   1.715   1.565   1.190 -1.1609 -1.3477 -1.3287
  226MOL    H4845498   1.847   1.561   0.916 -1.3318 -0.3853 -1.2904
  226MOL    H4945499   1.520   1.648   1.018 -2.2548 -0.3671  0.9783
  226MOL    H5045500   1.438   1.529   0.922  0.6989  2.5230 -1.0653
  226MOL    H5145501   1.522   1.487   1.073 -0.2750 -0.4845 -0.6924
  226MOL    C5245502   1.768   1.746   0.992 -0.1451  0.2620 -0.3460
  226MOL    C5345503   1.905   1.810   0.999 -0.2481  0.0548  1.1288
  226MOL    O5445504   1.990   1.750   0.895  0.9823 -0.5157 -0.1619
  226MOL    C5545505   2.122   1.722   0.927  0.6049  0.3193 -0.4757
  226MOL    H5645506   1.707   1.769   1.079  0.5423  1.5840 -0.1993
  226MOL    H5745507   1.734   1.799   0.903  2.3059 -0.0504 -1.5196
  226MOL    H5845508   1.943   1.792   1.100 -1.0521  1.1125  1.6371
  226MOL    H5945509   2.114   1.629   0.983 -0.2569 -1.1034 -2.9160
  226MOL    H6045510   2.179   1.688   0.841 -0.9773 -2.0931 -0.6109
  226MOL    H6145511   2.168   1.803   0.984  0.9990 -0.4409  0.2974
  226MOL    C6245512   1.910   1.969   0.980 -0.1252  0.3770 -0.2128
  226MOL    C6345513   1.827   2.045   1.085  0.1180  1.1427 -0.6869
  226MOL    O6445514   1.868   1.988   1.209 -0.0748  0.2758  0.3131
  226MOL    C6545515   1.771   1.991   1.316 -0.1054  0.5528 -0.3177
  226MOL    H6645516   1.867   1.992   0.882  1.6528 -0.0284 -1.1227
  226MOL    H6745517   2.015   1.997   0.988 -0.4080  1.0482  1.2712
  226MOL    H6845518   1.718   2.038   1.079  0.1479  0.1468 -0.1234
  226MOL    H6945519   1.752   2.093   1.349 -2.0545  0.5748 -1.4123
  226MOL    H7045520   1.682   1.938   1.283 -0.1604  1.7086 -2.0885
  226MOL    H7145521   1.806   1.931   1.400  0.3009 -0.9749 -1.5686
  226MOL    C7245522   1.870   2.193   1.087  0.1372  0.2079 -0.3393
  226MOL    C7345523   1.819   2.270   0.959 -0.2154 -0.8906 -0.0149
  226MOL    O7445524   1.682   2.252   0.956 -0.4621  0.1131  0.1097
  226MOL    C7545525   1.615   2.251   0.825 -0.1083  0.8962 -0.6385
  226MOL    H7645526   1.978   2.203   1.093  0.1233 -0.6495  2.2746
  226MOL    H7745527   1.818   2.248   1.166  1.0727 -0.0254  0.4395
  226MOL    H7845528   1.860   2.225   0.868  0.3784 -0.7410  0.1745
  226MOL    H7945529   1.675   2.175   0.774  1.7788  0.3500  2.2646
  226MOL    H8045530   1.514   2.212   0.839 -0.7781  2.0193 -2.2143
  226MOL    H8145531   1.609   2.347   0.774 -1.5556  1.1151 -0.0795
  226MOL    C8245532   1.840   2.424   0.964  0.4187 -0.3727 -0.0069
  226MOL    C8345533   1.986   2.453   0.940 -0.0187 -0.4858  0.5175
  226MOL    O8445534   2.011   2.436   0.802 -0.5798 -0.2996  0.1777
  226MOL    C8545535   2.122   2.350   0.774 -0.2847  0.2457 -0.8191
  226MOL    H8645536   1.809   2.452   1.064  0.5746 -3.0131  0.8063
  226MOL    H8745537   1.775   2.476   0.892  0.5273 -0.4059 -0.1290
  226MOL    H8845538   2.055   2.398   1.004  0.0670  0.0461  0.8868
  226MOL    H8945539   2.113   2.253   0.822 -0.6016  0.6182 -0.1249
  226MOL    H9045540   2.134   2.347   0.665 -0.4129 -0.6059 -0.8080
  226MOL    H9145541   2.214   2.401   0.802  2.4850 -3.9864 -1.7734
  226MOL    C9245542   2.019   2.595   0.976  0.3042  0.0718  0.3266
  226MOL    C9345543   2.020   2.627   1.133  0.0277 -0.5972 -0.0884
  226MOL    O9445544   2.109   2.544   1.202  0.6271  0.5226  0.1010
  226MOL    C9545545   2.046   2.456   1.294  0.6774  0.7471 -0.2396
  226MOL    H9645546   1.949   2.663   0.927  0.6744  1.7512  2.0778
  226MOL    H9745547   2.111   2.626   0.927  2.1505 -2.7465  1.8413
  226MOL    H9845548   1.918   2.618   1.171 -0.2880  1.5296 -0.3663
  226MOL    H9945549   2.120   2.378   1.315 -0.3469  0.3864  2.3342
  226MOL   H10045550   2.010   2.508   1.383  1.3559  1.9651 -0.6661
  226MOL   H10145551   1.950   2.427   1.252  0.5813 -1.1800  1.2058
  226MOL   C10245552   2.062   2.769   1.165  0.3921  0.2889 -0.1666
  226MOL   C10345553   2.210   2.800   1.130 -0.6357 -0.7470 -0.7354
  226MOL   O10445554   2.230   2.815   0.986  0.5121  0.2273 -0.0957
  226MOL   C10545555   2.350   2.761   0.939 -0.7125  0.0915 -0.5397
  226MOL   H10645556   2.050   2.775   1.273 -1.1174  2.0257 -0.4163
  226MOL   H10745557   1.987   2.833   1.118 -2.3847 -2.2617  0.6354
  226MOL   H10845558   2.270   2.717   1.167  0.9106  1.1166  1.0580
  226MOL   H10945559   2.385   2.665   0.977  0.1658  0.1572 -1.1636
  226MOL   H11045560   2.341   2.747   0.831 -0.0601  0.5579 -0.6587
  226MOL   H11145561   2.428   2.836   0.953 -0.0259 -0.6080 -0.6051
  226MOL   C11245562   2.269   2.926   1.206  0.2340  0.2522 -0.4743
  226MOL   C11345563   2.286   2.920   1.358  0.5143  0.3681 -0.2919
  226MOL   O11445564   2.404   2.850   1.388  0.2384 -0.5306  0.1673
  226MOL   C11545565   2.416   2.781   1.519 -0.2645 -0.1108  0.4524
  226MOL   H11645566   2.192   2.995   1.174  0.5789 -0.0220 -1.9473
  226MOL   H11745567   2.363   2.956   1.160  0.0246  1.8833  0.1211
  226MOL   H11845568   2.198   2.867   1.396  0.9360  0.0523  0.2632
  226MOL   H11945569   2.508   2.724   1.528 -0.3968 -0.5997 -1.0308
  226MOL   H12045570   2.399   2.846   1.604  1.2802  1.9422 -0.7500
  226MOL   H12145571   2.337   2.706   1.527 -1.6117  1.0547 -1.3965
  226MOL   C12245572   2.308   3.060   1.422 -0.6884 -0.8653 -0.6997
  226MOL   C12345573   2.183   3.142   1.456  0.0439 -0.5612 -0.0228
  226MOL   O12445574   2.128   3.190   1.331  0.5006 -0.1628 -0.0573
  226MOL   C12545575   2.190   3.302   1.269 -0.2592 -0.0837 -1.0157
  226MOL   H12645576   2.374   3.117   1.358 -0.7221  0.3392  0.3081
  226MOL   H12745577   2.360   3.049   1.517  0.3550  1.3626 -0.9762
  226MOL   H12845578   2.217   3.236   1.498 -2.1815  0.5324 -0.5693
  226MOL   H12945579   2.144   3.322   1.172  2.1704  1.7110 -1.8430
  226MOL   H13045580   2.183   3.390   1.333 -0.0057 -2.3443  2.2261
  226MOL   H13145581   2.296   3.289   1.247 -0.5771 -0.7328 -2.2471
  226MOL   C13245582   2.071   3.070   1.533 -0.2848 -0.5627  0.1812
  226MOL   C13345583   1.955   3.159   1.586 -0.1779  0.2487 -0.1694
  226MOL   O13445584   1.869   3.065   1.663 -0.0400 -0.7713 -0.2227
  226MOL   C13545585   1.743   3.115   1.701  0.8906  0.0268 -0.6637
  226MOL   H13645586   2.117   3.012   1.613  0.3531  0.0082  0.2299
  226MOL   H13745587   2.035   2.995   1.463 -2.2564  0.5304  0.0072
  226MOL   H13845588   1.904   3.179   1.492  1.0800 -1.1191 -1.1518
  226MOL   H13945589   1.747   3.196   1.774  0.7239 -1.8733  1.5093
  226MOL   H14045590   1.688   3.146   1.613 -1.7718  0.9913  1.2818
  226MOL   H14145591   1.680   3.046   1.757  0.5371  1.5840  0.9043
  226MOL   C14245592   1.988   3.294   1.656 -0.5092  0.9155  0.5559
  226MOL   C14345593   2.037   3.278   1.799 -0.0312 -0.1431 -0.2125
  226MOL   O14445594   2.161   3.214   1.821  0.0069 -0.0175 -0.0558
  226MOL   C14545595   2.161   3.093   1.894  0.9464  0.5436 -0.5581
  226MOL   H14645596   1.902   3.359   1.645  0.8268  2.6739  0.3379
  226MOL   H14745597   2.066   3.350   1.605  2.2282 -1.6893  1.7274
  226MOL   H14845598   1.956   3.223   1.847  0.3320 -1.6494 -1.3105
  226MOL   H14945599   2.095   3.098   1.980  0.9613 -1.4206 -0.4090
  226MOL   H15045600   2.110   3.013   1.840  0.3157 -1.0650  2.3122
  226MOL   H15145601   2.262   3.066   1.922  0.1627  0.5921  2.4411
  226MOL   C15245602   2.047   3.405   1.877 -0.8628  1.4904  1.4237
  226MOL   C15345603   1.916   3.466   1.912 -0.6773 -0.1995 -0.0870
  226MOL   O15445604   1.893   3.409   2.039  1.0326  0.1415  0.4690
  226MOL   C15545605   1.758   3.417   2.094 -0.3173  0.1283  0.1083
  226MOL   H15645606   2.114   3.467   1.818  0.1287  0.1528  1.1034
  226MOL   H15745607   2.095   3.388   1.974 -0.4596 -1.1250  0.8180
  226MOL   H15845608   1.835   3.440   1.844 -1.7096  1.9788  0.2597
  226MOL   H15945609   1.679   3.380   2.028 -0.8523  0.1918  0.7061
  226MOL   H16045610   1.748   3.366   2.190 -3.0733 -0.9763 -0.6992
  226MOL   H16145611   1.738   3.523   2.106  2.5262  0.5313  1.7653
  226MOL   C16245612   1.937   3.616   1.936  0.1380 -0.1222  0.4203
  226MOL   C16345613   1.967   3.705   1.807 -0.0081  0.5978  0.0375
  226MOL   O16445614   1.877   3.659   1.700  0.1863 -0.5732  0.3702
  226MOL   C16545615   1.917   3.668   1.563  0.5294  0.1969  0.1192
  226MOL   H16645616   2.018   3.625   2.009 -0.6680 -2.1794  1.6182
  226MOL   H16745617   1.854   3.661   1.991 -0.4022 -1.6841  0.9172
  226MOL   H16845618   2.069   3.694   1.768 -0.2949 -0.7611 -0.3283
  226MOL   H16945619   1.985   3.752   1.545 -0.5653  1.0306 -0.2047
  226MOL   H17045620   1.970   3.575   1.544  0.8152  0.7887 -2.0976
  226MOL   H17145621   1.838   3.678   1.489  0.4410  1.5421  0.3790
  226MOL   C17245622   1.940   3.849   1.827  0.1575 -0.2283 -0.0275
  226MOL   C17345623   2.044   3.924   1.914  0.3785 -0.1296  0.2998
  226MOL   O17445624   2.153   3.947   1.831  0.3229  0.0743 -0.1970
  226MOL   C17545625   2.143   4.061   1.741 -0.2004 -0.6126  0.0762
  226MOL   H17645626   1.852   3.861   1.889  0.8347  0.0407  0.9035
  226MOL   H17745627   1.928   3.907   1.736 -0.4814 -1.4599 -0.7297
  226MOL   H17845628   2.074   3.857   1.995 -0.6215  0.7545  1.4216
  226MOL   H17945629   2.050   4.070   1.685 -0.8284 -3.2775  0.5973
  226MOL   H18045630   2.148   4.148   1.806 -0.6673 -0.0156 -0.6732
  226MOL   H18145631   2.231   4.052   1.677  0.4058  0.4612  0.7340
  226MOL   C18245632   1.987   4.056   1.980 -0.3994  0.0978  0.1884
  226MOL   C18345633   1.900   4.022   2.110 -0.2513 -0.2438 -0.9584
  226MOL   O18445634   1.988   3.962   2.198  0.6582  0.1093 -0.3443
  226MOL   C18545635   1.926   3.880   2.303 -0.1676  0.7894  0.1204
  226MOL   H18645636   1.912   4.094   1.910 -1.0886 -2.4871 -0.5492
  226MOL   H18745637   2.063   4.123   2.019 -0.4345  1.1767 -1.5341
  226MOL   H18845638   1.820   3.950   2.090 -0.4549 -0.6692  1.2741
  226MOL   H18945639   1.880   3.786   2.271  0.6505  1.0785 -1.9846
  226MOL   H19045640   2.013   3.849   2.362  0.8976 -0.2389 -1.9233
  226MOL   H19145641   1.852   3.921   2.372  1.0640  1.1813  1.2481
  226MOL   C19245642   1.835   4.138   2.182  0.4371 -0.1507 -0.3231
  226MOL   C19345643   1.702   4.176   2.125  0.2615 -0.2001 -0.4324
  226MOL   O19445644   1.654   4.293   2.179 -0.3852 -0.6048 -0.0155
  226MOL   C19545645   1.521   4.319   2.122 -0.2746  0.6983  0.4867
  226MOL   H19645646   1.901   4.224   2.170 -0.6744  0.7436 -0.0402
  226MOL   H19745647   1.805   4.114   2.284  0.4744  0.3970 -0.1846
  226MOL   H19845648   1.627   4.100   2.142  2.9263 -2.3016  2.6175
  226MOL   H19945649   1.516   4.302   2.015  0.3081  1.6111  0.2982
  226MOL   H20045650   1.452   4.251   2.172 -0.1276 -0.5764 -1.0173
  226MOL   H20145651   1.497   4.422   2.149  2.7740  0.9309  2.6145
  226MOL   H20245652   1.715   4.198   2.019  0.2974 -0.8453 -0.5583
  227MOL     C145653   3.108   0.277   0.493  0.1928  0.1926  0.2409
  227MOL     C245654   2.968   0.297   0.433 -0.5752  1.1205  0.3836
  227MOL     O345655   2.881   0.202   0.494 -0.5841 -0.2008  0.2656
  227MOL     C445656   2.870   0.072   0.440  0.4665 -0.6335  0.1557
  227MOL     H545657   3.177   0.324   0.423  0.9540 -0.3063  0.6443
  227MOL     H645658   3.127   0.330   0.586 -2.3660  0.2349  0.7558
  227MOL     H745659   2.977   0.278   0.326  1.3652 -0.5712  0.8251
  227MOL     H845660   2.968   0.022   0.438 -0.1272 -1.7981 -1.1837
  227MOL     H945661   2.809   0.033   0.522 -0.6015  3.1376  1.2311
  227MOL    H1045662   2.812   0.062   0.348  1.2943 -1.2446 -0.3106
  227MOL    H1145663   3.149   0.175   0.495 -1.9234 -0.6560  2.0695
  227MOL    C1245664   2.913   0.438   0.440  0.1943 -0.6579 -0.5663
  227MOL    C1345665   2.988   0.541   0.349  0.2841  0.2485  0.3154
  227MOL    O1445666   2.976   0.508   0.210 -0.4692  0.0855  0.0655
  227MOL    C1545667   3.107   0.501   0.144  0.0475  0.4679  0.0724
  227MOL    H1645668   2.920   0.466   0.546 -0.1990 -0.7488 -0.5147
  227MOL    H1745669   2.805   0.435   0.427 -0.0641  0.2510  1.1267
  227MOL    H1845670   3.090   0.536   0.388  0.9475 -2.2127 -1.5666
  227MOL    H1945671   3.164   0.423   0.194  2.4212  0.1918 -2.8856
  227MOL    H2045672   3.101   0.474   0.038 -0.0777 -1.0742  0.4596
  227MOL    H2145673   3.158   0.597   0.159  0.9096  0.0440 -0.0741
  227MOL    C2245674   2.929   0.678   0.361  1.0372 -0.5339 -0.3182
  227MOL    C2345675   2.918   0.747   0.495 -0.1185 -0.7419  0.5515
  227MOL    O2445676   2.808   0.692   0.560  0.4354  0.3291  0.4331
  227MOL    C2545677   2.691   0.769   0.536 -0.7060 -0.0185  0.0931
  227MOL    H2645678   2.836   0.693   0.306 -0.1943 -0.4690  1.7171
  227MOL    H2745679   2.997   0.746   0.310 -0.8419  1.4102 -0.3089
  227MOL    H2845680   2.905   0.855   0.483 -0.2341 -0.6139  1.7644
  227MOL    H2945681   2.720   0.865   0.580 -0.5136 -0.5339  1.1029
  227MOL    H3045682   2.672   0.784   0.430 -0.5953 -1.0040 -0.0648
  227MOL    H3145683   2.601   0.723   0.576  0.1292 -2.4068 -0.7167
  227MOL    C3245684   3.041   0.728   0.597  0.4789 -0.5768 -0.1451
  227MOL    C3345685   3.173   0.773   0.539  0.0547  0.2227 -0.6227
  227MOL    O3445686   3.172   0.903   0.474  0.2770  0.6452 -0.4507
  227MOL    C3545687   3.271   0.926   0.374  0.6870 -0.1808  0.2591
  227MOL    H3645688   3.037   0.622   0.620  2.4217 -0.9701 -1.5025
  227MOL    H3745689   3.028   0.789   0.686 -2.3826 -1.7938  0.3138
  227MOL    H3845690   3.185   0.693   0.466 -0.9818 -0.0571 -0.4929
  227MOL    H3945691   3.230   0.926   0.273  0.7729  1.7711  0.1972
  227MOL    H4045692   3.325   1.014   0.408  1.6962  0.4220 -2.7708
  227MOL    H4145693   3.339   0.841   0.373  0.3688 -0.4344 -1.0586
  227MOL    C4245694   3.293   0.759   0.639 -0.0851 -0.4635 -0.2139
  227MOL    C4345695   3.317   0.872   0.737 -0.4063 -0.3492  0.2924
  227MOL    O4445696   3.215   0.855   0.834  0.6678 -0.3782  0.3333
  227MOL    C4545697   3.133   0.968   0.853 -0.4853 -0.0933 -0.2693
  227MOL    H4645698   3.377   0.743   0.572 -0.3309 -1.0880 -0.3764
  227MOL    H4745699   3.282   0.672   0.703 -2.2941  0.1462  0.3010
  227MOL    H4845700   3.301   0.966   0.684 -0.3950 -1.0602 -1.0057
  227MOL    H4945701   3.061   0.934   0.928  4.0453 -2.2841  3.3342
  227MOL    H5045702   3.180   1.056   0.896 -0.0011 -0.5266  0.0973
  227MOL    H5145703   3.074   1.000   0.767 -0.8798 -0.4637 -0.1369
  227MOL    C5245704   3.454   0.864   0.809  0.5913  0.0908 -0.2758
  227MOL    C5345705   3.570   0.911   0.727 -0.0968 -0.3655  0.7071
  227MOL    O5445706   3.531   1.027   0.649 -0.2434  0.2166 -0.3242
  227MOL    C5545707   3.582   1.033   0.519 -0.4120  0.1197 -0.0439
  227MOL    H5645708   3.464   0.765   0.852  3.3880  0.2459 -0.4990
  227MOL    H5745709   3.461   0.930   0.896 -0.9951  2.6754 -2.0269
  227MOL    H5845710   3.596   0.823   0.668 -1.9197 -1.2259  1.1495
  227MOL    H5945711   3.691   1.030   0.514 -0.4571 -0.5830 -0.7798
  227MOL    H6045712   3.546   0.948   0.462  2.3932 -0.0101 -1.7398
  227MOL    H6145713   3.549   1.123   0.466 -0.1319  1.2841  1.7284
  227MOL    C6245714   3.703   0.942   0.813  0.1842  0.4676 -0.3103
  227MOL    C6345715   3.782   0.827   0.870 -0.6677 -0.5014  0.0635
  227MOL    O6445716   3.718   0.771   0.987  0.2280  0.0261 -0.1003
  227MOL    C6545717   3.791   0.723   1.091  0.4709  0.5511 -0.5122
  227MOL    H6645718   3.681   1.012   0.893  2.5061  2.0412 -1.0047
  227MOL    H6745719   3.768   1.010   0.759  0.7581  0.0387 -0.1566
  227MOL    H6845720   3.875   0.879   0.893 -0.1648 -1.6015  0.5189
  227MOL    H6945721   3.724   0.697   1.173  0.9373 -1.2510 -0.6819
  227MOL    H7045722   3.863   0.643   1.071  3.3091  2.4692  1.5741
  227MOL    H7145723   3.859   0.799   1.129 -1.0173  0.9214  1.4638
  227MOL    C7245724   3.825   0.710   0.779  0.3588 -0.2114 -0.1501
  227MOL    C7345725   3.884   0.745   0.643  0.2452 -0.3331 -0.0342
  227MOL    O7445726   4.014   0.793   0.668  0.5020  0.2424 -0.9664
  227MOL    C7545727   4.041   0.920   0.616  0.9290  0.2462  0.5112
  227MOL    H7645728   3.731   0.655   0.769  0.7641 -1.0532  0.7171
  227MOL    H7745729   3.892   0.647   0.836  0.0342  0.0274  0.5003
  227MOL    H7845730   3.812   0.817   0.604  0.4210  0.1249  0.4726
  227MOL    H7945731   3.969   0.990   0.660 -1.0184 -1.2327 -0.2271
  227MOL    H8045732   4.142   0.959   0.628  0.8315  0.7242 -0.1828
  227MOL    H8145733   4.037   0.918   0.507  3.2001  0.4516  0.4145
  227MOL    C8245734   3.907   0.624   0.553  0.6036 -0.4699  0.1216
  227MOL    C8345735   3.926   0.661   0.400 -0.6471  0.1888 -1.2688
  227MOL    O8445736   3.971   0.531   0.345  0.3599 -0.5019 -0.3546
  227MOL    C8545737   4.043   0.547   0.226 -0.1126 -0.2430 -0.2263
  227MOL    H8645738   3.832   0.547   0.566  0.8773 -0.7330  0.1370
  227MOL    H8745739   3.995   0.570   0.588  0.8645  1.5819  2.8655
  227MOL    H8845740   4.011   0.729   0.399 -0.0303 -0.5059  0.4169
  227MOL    H8945741   4.008   0.610   0.144 -1.7948  1.2595  1.6106
  227MOL    H9045742   4.143   0.582   0.254 -0.4710  0.3595  0.2922
  227MOL    H9145743   4.047   0.444   0.189 -2.1021 -0.1084 -0.8665
  227MOL    C9245744   3.807   0.726   0.332  0.9423 -0.7510  0.4518
  227MOL    C9345745   3.665   0.643   0.329 -0.1671 -0.4428  0.0327
  227MOL    O9445746   3.555   0.730   0.301 -0.3282 -0.1527  0.1872
  227MOL    C9545747   3.568   0.818   0.194 -0.0918 -0.7216 -0.3991
  227MOL    H9645748   3.837   0.736   0.228  0.3012  0.1507  0.3486
  227MOL    H9745749   3.785   0.826   0.369 -0.4288 -0.5984 -0.7458
  227MOL    H9845750   3.654   0.602   0.429  1.9150  0.8576  0.8507
  227MOL    H9945751   3.628   0.901   0.230 -0.0303 -0.9228 -0.0354
  227MOL   H10045752   3.602   0.785   0.096 -0.4031 -2.0619 -0.0578
  227MOL   H10145753   3.472   0.869   0.182  0.0825 -0.2030  0.3812
  227MOL   C10245754   3.673   0.534   0.216  0.0290  0.0743  0.2304
  227MOL   C10345755   3.552   0.445   0.200  0.2520 -0.0815 -0.1207
  227MOL   O10445756   3.530   0.408   0.066  0.4572 -0.4327  0.4375
  227MOL   C10545757   3.451   0.494   7.804  0.1797  0.0092  0.6041
  227MOL   H10645758   3.765   0.476   0.227 -0.1473  0.3683  3.4652
  227MOL   H10745759   3.684   0.583   0.118  0.7752 -1.0765 -0.2728
  227MOL   H10845760   3.464   0.490   0.245  1.4996 -0.4071  2.7504
  227MOL   H10945761   3.351   0.500   0.036  0.0179  0.1937  0.1983
  227MOL   H11045762   3.495   0.593   7.790 -1.0859  0.3407 -1.1278
  227MOL   H11145763   3.449   0.465   7.699  2.4765 -2.1955  1.1139
  227MOL   C11245764   3.565   0.314   0.285 -0.1339 -0.7785  0.1834
  227MOL   C11345765   3.593   0.323   0.443  0.3959 -0.8581 -0.2238
  227MOL   O11445766   3.470   0.371   0.497 -0.3908 -0.3051 -0.1224
  227MOL   C11545767   3.487   0.431   0.626  0.2084  0.3225  0.1476
  227MOL   H11645768   3.645   0.262   0.233 -0.2167 -1.7173  0.9931
  227MOL   H11745769   3.477   0.253   0.266 -1.2314  1.2159 -1.3957
  227MOL   H11845770   3.676   0.393   0.458 -0.6709  1.2845 -3.6692
  227MOL   H11945771   3.546   0.522   0.616  0.4192  0.1145 -0.5224
  227MOL   H12045772   3.390   0.469   0.659  0.4682  1.8713 -0.8183
  227MOL   H12145773   3.537   0.367   0.699 -0.6231 -0.9656 -0.4041
  227MOL   C12245774   3.621   0.183   0.505 -0.5069  0.7095  0.5713
  227MOL   C12345775   3.760   0.126   0.478 -0.5065 -0.8766  0.0585
  227MOL   O12445776   3.858   0.189   0.573  0.1037  0.3046  0.2171
  227MOL   C12545777   3.979   0.222   0.504  0.3331  0.0092 -0.1120
  227MOL   H12645778   3.540   0.112   0.488  1.0242 -1.0201  0.2546
  227MOL   H12745779   3.618   0.195   0.613 -0.5744  1.7709  0.4516
  227MOL   H12845780   3.794   0.151   0.377  0.8692 -0.7898  0.5383
  227MOL   H12945781   4.003   0.138   0.440  0.7571  1.0959 -1.4059
  227MOL   H13045782   3.973   0.312   0.443 -0.0322 -0.7136 -1.1471
  227MOL   H13145783   4.053   0.223   0.584 -1.2931  2.3767  1.4581
  227MOL   C13245784   3.765   7.785   0.500  0.1856  0.4596 -0.0721
  227MOL   C13345785   3.710   7.702   0.378 -0.2795 -0.0264 -0.0648
  227MOL   O13445786   3.795   7.723   0.268 -0.2609  0.2024 -0.0954
  227MOL   C13545787   3.734   7.728   0.140  0.1196  0.3346  0.8270
  227MOL   H13645788   3.729   7.756   0.598  1.2331  0.0840  0.2058
  227MOL   H13745789   3.870   7.756   0.497 -0.2055 -0.9051 -1.2136
  227MOL   H13845790   3.617   7.741   0.338 -1.1052 -1.0952  0.8023
  227MOL   H13945791   3.796   7.750   0.053 -1.8172  3.5248  0.1589
  227MOL   H14045792   3.691   7.631   0.117  1.0725  0.2557 -0.7071
  227MOL   H14145793   3.659   7.807   0.139 -0.4065 -0.1603 -1.0394
  227MOL   C14245794   3.704   7.556   0.408 -0.0812  0.1577  0.0592
  227MOL   C14345795   3.608   7.504   0.515 -0.0546 -0.3954 -0.6023
  227MOL   O14445796   3.477   7.532   0.468  0.2993  0.2996  0.6209
  227MOL   C14545797   3.378   7.546   0.569 -0.1637  0.0703 -0.0142
  227MOL   H14645798   3.805   7.526   0.435 -1.2162 -2.0526  1.9660
  227MOL   H14745799   3.677   7.489   0.326 -2.7880 -0.1901  1.1947
  227MOL   H14845800   3.623   7.553   0.611  3.2429 -0.5392 -1.0013
  227MOL   H14945801   3.396   7.634   0.632  1.2302  1.1165 -1.8312
  227MOL   H15045802   3.276   7.562   0.534 -0.1883 -1.2731 -0.5609
  227MOL   H15145803   3.371   7.470   0.647  2.1210  1.2867  1.4176
  227MOL   C15245804   3.612   7.346   0.529 -0.8265  0.1474  0.1160
  227MOL   C15345805   3.729   7.289   0.600 -0.0778 -0.4397 -0.2004
  227MOL   O15445806   3.763   7.359   0.724  0.3138  0.5619 -0.2260
  227MOL   C15545807   3.892   7.418   0.740 -0.3207 -0.6852  0.6425
  227MOL   H15645808   3.592   7.306   0.430  0.2562  1.6019 -0.7129
  227MOL   H15745809   3.525   7.314   0.587  1.3627 -0.8456  2.9574
  227MOL   H15845810   3.810   7.307   0.529  1.0539 -1.3833  0.8350
  227MOL   H15945811   3.976   7.349   0.727  0.4515  0.4362 -0.4554
  227MOL   H16045812   3.913   7.500   0.671  0.2635  0.1687  1.8175
  227MOL   H16145813   3.896   7.452   0.843 -0.6298 -2.5074  1.2753
  227MOL   C16245814   3.739   7.140   0.633 -1.3136 -0.5696  0.3769
  227MOL   C16345815   3.646   7.098   0.745 -0.5755  0.4237 -0.1205
  227MOL   O16445816   3.573   6.985   0.689  0.4490  0.0804 -0.0813
  227MOL   C16545817   3.456   7.019   0.628  0.2898 -0.1078  0.0428
  227MOL   H16645818   3.841   7.119   0.664 -1.4571 -3.0129 -0.6974
  227MOL   H16745819   3.719   7.086   0.541  0.8901 -0.1604 -0.3572
  227MOL   H16845820   3.590   7.187   0.773  1.6346  2.2320 -1.2780
  227MOL   H16945821   3.387   7.073   0.692  0.6399  1.5847 -0.9652
  227MOL   H17045822   3.473   7.065   0.531 -1.4834 -2.1914 -1.3166
  227MOL   H17145823   3.415   6.920   0.606 -1.2230  0.3888  0.6029
  227MOL   C17245824   3.725   7.049   0.872 -0.1169  0.0233 -0.3017
  227MOL   C17345825   3.671   7.068   1.013  0.5401 -0.5097 -0.1814
  227MOL   O17445826   3.626   6.939   1.044 -0.7050 -0.4317  0.4728
  227MOL   C17545827   3.492   6.926   1.080  0.6567  0.8731 -0.1021
  227MOL   H17645828   3.818   7.104   0.859  1.1994 -2.4106 -1.4943
  227MOL   H17745829   3.755   6.948   0.846  0.9984  0.4792 -0.8053
  227MOL   H17845830   3.593   7.144   1.014  1.7557  0.7510  0.0558
  227MOL   H17945831   3.481   6.819   1.094 -0.6271  1.1582  1.1974
  227MOL   H18045832   3.474   6.958   1.183  0.4209 -1.7897  0.7122
  227MOL   H18145833   3.427   6.963   1.001  1.0349 -3.1158 -2.4138
  227MOL   C18245834   3.787   7.106   1.113 -0.1388 -0.5471 -0.5906
  227MOL   C18345835   3.731   7.134   1.253 -0.4032  0.1139  0.7168
  227MOL   O18445836   3.844   7.161   1.341  0.1473 -0.4873 -0.2498
  227MOL   C18545837   3.831   7.103   1.469 -0.0561  0.5736 -0.4345
  227MOL   H18645838   3.841   7.195   1.082  1.6026 -1.9318 -1.6308
  227MOL   H18745839   3.858   7.024   1.107 -0.4542 -0.9020  0.3084
  227MOL   H18845840   3.684   7.043   1.291 -0.5487 -1.5242 -3.1633
  227MOL   H18945841   3.912   7.131   1.535 -1.9558  1.2828  1.6461
  227MOL   H19045842   3.736   7.127   1.517 -0.0421 -0.3237  0.0587
  227MOL   H19145843   3.820   6.994   1.472 -0.8616  0.7178  2.9641
  227MOL   C19245844   3.624   7.244   1.276 -0.3327 -0.7471 -0.7178
  227MOL   C19345845   3.667   7.387   1.256 -0.0725 -0.4469 -0.4527
  227MOL   O19445846   3.554   7.483   1.235 -0.3855  0.0597  0.1792
  227MOL   C19545847   3.599   7.618   1.237 -0.3981  0.3618  0.6249
  227MOL   H19645848   3.567   7.225   1.367 -1.6943 -0.1747 -1.4395
  227MOL   H19745849   3.556   7.221   1.194 -0.3913  0.2985 -0.9692
  227MOL   H19845850   3.729   7.382   1.167  0.8102  1.3171  0.0454
  227MOL   H19945851   3.605   7.651   1.341 -0.4634  0.3671  0.6273
  227MOL   H20045852   3.700   7.629   1.198  0.3864  0.5416  2.6078
  227MOL   H20145853   3.534   7.680   1.175 -1.1884 -0.3033  0.7896
  227MOL   H20245854   3.715   7.418   1.349  0.3561  2.9131 -1.7321
  228MOL     C145855   3.366   1.626   0.687 -0.4809  0.0779 -0.1634
  228MOL     C245856   3.270   1.507   0.730  0.1870 -0.0088  0.0314
  228MOL     O345857   3.324   1.393   0.669 -0.5579  0.3643  0.5134
  228MOL     C445858   3.234   1.326   0.589 -0.3324  0.1140  0.0219
  228MOL     H545859   3.342   1.723   0.731 -0.0589  0.8014 -1.4996
  228MOL     H645860   3.465   1.610   0.731 -0.1036 -1.0577 -1.3906
  228MOL     H745861   3.165   1.527   0.707  0.3210 -1.7168 -2.2323
  228MOL     H845862   3.283   1.238   0.547  0.0406  0.2382  0.1919
  228MOL     H945863   3.134   1.296   0.620 -0.2573  0.4662  0.6249
  228MOL    H1045864   3.212   1.377   0.495  0.5609 -0.6283 -0.6030
  228MOL    H1145865   3.383   1.627   0.579  2.3612  1.8569  0.2346
  228MOL    C1245866   3.276   1.488   0.880  0.1056 -0.4187  0.4818
  228MOL    C1345867   3.193   1.369   0.938 -0.3380 -0.0830  0.0884
  228MOL    O1445868   3.261   1.328   1.051 -0.0402 -0.4532 -0.3530
  228MOL    C1545869   3.367   1.235   1.033 -0.1492 -0.1658 -0.3425
  228MOL    H1645870   3.258   1.579   0.938  0.7531  0.4869 -0.7072
  228MOL    H1745871   3.384   1.479   0.897  0.4262 -2.8185 -2.3946
  228MOL    H1845872   3.184   1.285   0.870  1.8554  0.0157 -0.3527
  228MOL    H1945873   3.338   1.130   1.035 -0.2400 -0.1372 -0.1960
  228MOL    H2045874   3.420   1.246   0.938  1.2127 -1.5046  0.2430
  228MOL    H2145875   3.433   1.239   1.119 -0.6236  0.2184  0.0039
  228MOL    C2245876   3.052   1.411   0.973  0.3508  0.0936  0.7021
  228MOL    C2345877   2.954   1.297   1.016 -0.4905 -0.5710  0.5144
  228MOL    O2445878   2.943   1.225   0.899  0.6128  0.3548  0.2566
  228MOL    C2545879   2.827   1.261   0.821  0.7862  0.3917  0.0235
  228MOL    H2645880   3.001   1.472   0.898 -0.6526 -1.1409  0.3504
  228MOL    H2745881   3.062   1.473   1.062 -1.3236  0.4257  0.6794
  228MOL    H2845882   2.861   1.343   1.052 -1.2757  0.6541 -2.9414
  228MOL    H2945883   2.808   1.181   0.750 -2.3484  1.4542 -0.4008
  228MOL    H3045884   2.745   1.261   0.894 -1.2808 -0.9912 -2.2260
  228MOL    H3145885   2.823   1.358   0.772  1.6801  0.5805  0.3108
  228MOL    C3245886   2.997   1.198   1.126  1.5090  0.5609  0.3051
  228MOL    C3345887   2.973   1.229   1.277 -0.5737  0.0705  0.1348
  228MOL    O3445888   2.981   1.102   1.349 -0.1284 -0.1041 -0.5538
  228MOL    C3545889   3.088   1.018   1.314  0.0163  0.2715 -0.0024
  228MOL    H3645890   3.096   1.154   1.108  0.2199 -2.6818  0.7254
  228MOL    H3745891   2.926   1.119   1.101 -0.0484  1.6600  1.2364
  228MOL    H3845892   2.872   1.266   1.298 -0.1204 -0.3521  3.3835
  228MOL    H3945893   3.101   0.946   1.395 -1.1248  0.7394  0.6000
  228MOL    H4045894   3.087   0.965   1.218  0.6689  0.7025 -0.2482
  228MOL    H4145895   3.180   1.075   1.322 -1.0013  1.8646  0.4914
  228MOL    C4245896   3.078   1.340   1.319 -0.6970 -0.8511  0.3153
  228MOL    C4345897   3.098   1.365   1.478 -0.3823  0.3165  0.4039
  228MOL    O4445898   3.196   1.468   1.494 -0.1671  0.0199  0.3459
  228MOL    C4545899   3.335   1.425   1.520 -0.0061 -0.3163  0.7181
  228MOL    H4645900   3.047   1.435   1.275 -0.7930 -1.8197 -1.8004
  228MOL    H4745901   3.174   1.321   1.270 -0.4438 -0.1371  0.5400
  228MOL    H4845902   3.135   1.272   1.521 -0.5682  0.2706  0.4672
  228MOL    H4945903   3.401   1.511   1.526 -0.2645 -0.1394  1.0680
  228MOL    H5045904   3.351   1.370   1.613  0.8437 -0.2965  0.5871
  228MOL    H5145905   3.365   1.374   1.429  2.5523 -0.8082  1.8085
  228MOL    C5245906   2.968   1.404   1.546  0.8219  0.0527 -0.4796
  228MOL    C5345907   2.975   1.386   1.698  0.6844  0.3383  0.3594
  228MOL    O5445908   2.852   1.414   1.757  0.3180  0.1844 -0.5651
  228MOL    C5545909   2.817   1.547   1.783 -0.0490 -0.7801  0.4380
  228MOL    H5645910   2.893   1.338   1.501  2.2413  0.5372 -3.6920
  228MOL    H5745911   2.934   1.502   1.514 -0.6602 -0.6242 -1.0359
  228MOL    H5845912   3.034   1.464   1.746  1.4328  1.2108 -1.9138
  228MOL    H5945913   2.709   1.553   1.794  0.0437 -1.3569  1.7187
  228MOL    H6045914   2.873   1.600   1.860 -1.9502 -0.2682  1.4943
  228MOL    H6145915   2.827   1.602   1.690 -2.1838 -0.2280  0.5186
  228MOL    C6245916   3.020   1.252   1.753 -0.1626  0.6313  0.7878
  228MOL    C6345917   2.934   1.121   1.713  0.3752 -0.2188  0.4960
  228MOL    O6445918   2.990   1.001   1.773 -0.8067 -0.5413 -0.1013
  228MOL    C6545919   3.109   0.957   1.709  0.4021 -0.0228  0.0029
  228MOL    H6645920   3.027   1.261   1.861 -0.2478 -0.5163  0.8921
  228MOL    H6745921   3.121   1.230   1.718 -1.5894  1.4734 -4.2186
  228MOL    H6845922   2.935   1.113   1.605  0.0192 -0.6987  0.5297
  228MOL    H6945923   3.190   1.029   1.717  0.8629 -0.2125 -2.5845
  228MOL    H7045924   3.134   0.862   1.756  0.1654 -0.3743 -0.5811
  228MOL    H7145925   3.101   0.937   1.603  1.9266  0.2837 -0.1893
  228MOL    C7245926   2.787   1.117   1.753 -0.5649 -0.7485  0.3604
  228MOL    C7345927   2.718   0.989   1.707  0.5874 -0.5944  0.6294
  228MOL    O7445928   2.601   0.970   1.778 -0.2639 -0.2242  0.1147
  228MOL    C7545929   2.633   0.885   1.890 -0.0104 -0.0633 -0.4195
  228MOL    H7645930   2.732   1.208   1.730 -1.1657 -1.5676 -1.5083
  228MOL    H7745931   2.792   1.125   1.862  0.9693 -1.5313  0.3550
  228MOL    H7845932   2.785   0.903   1.712 -0.8704 -1.9870 -2.4342
  228MOL    H7945933   2.541   0.855   1.941 -1.0000  1.8770 -1.0187
  228MOL    H8045934   2.681   0.791   1.863 -0.2668 -0.6600  1.1270
  228MOL    H8145935   2.697   0.925   1.968 -0.4854  0.7055 -0.4205
  228MOL    C8245936   2.672   0.991   1.559  0.1143 -0.1603 -0.3055
  228MOL    C8345937   2.617   0.864   1.499 -0.4346  0.1562 -0.2205
  228MOL    O8445938   2.525   0.895   1.391  1.0416 -0.4001  0.2000
  228MOL    C8545939   2.399   0.837   1.413  0.1983  0.4324  0.5284
  228MOL    H8645940   2.765   1.017   1.509 -0.0522  0.7946 -0.1210
  228MOL    H8745941   2.608   1.078   1.547  1.7762  0.7242 -3.4323
  228MOL    H8845942   2.566   0.807   1.577 -4.0970 -1.1501 -3.4169
  228MOL    H8945943   2.399   0.729   1.423  0.4294  0.4678  0.9145
  228MOL    H9045944   2.366   0.883   1.507  0.4163  1.1210  0.2728
  228MOL    H9145945   2.341   0.873   1.328  1.8106  2.0028  0.0632
  228MOL    C9245946   2.729   0.783   1.434  0.2646 -0.7559 -0.3248
  228MOL    C9345947   2.717   0.629   1.460 -0.4517 -1.0946 -0.0525
  228MOL    O9445948   2.806   0.555   1.368  0.5499  0.5430 -0.0700
  228MOL    C9545949   2.744   0.526   1.241  0.4162 -0.0917 -0.1263
  228MOL    H9645950   2.830   0.821   1.453 -0.3881  0.9568 -0.1798
  228MOL    H9745951   2.727   0.796   1.326 -0.3509 -0.7564 -0.3135
  228MOL    H9845952   2.616   0.599   1.433 -1.1392 -0.0234  1.2432
  228MOL    H9945953   2.644   0.487   1.255  0.3324  1.1813  3.2813
  228MOL   H10045954   2.721   0.619   1.188 -2.3892  0.3996  1.8742
  228MOL   H10145955   2.798   0.448   1.188  1.4280  0.2466  0.3831
  228MOL   C10245956   2.738   0.590   1.611  0.3239  0.6364  0.7117
  228MOL   C10345957   2.749   0.441   1.649 -0.1893 -0.5520  0.0748
  228MOL   O10445958   2.794   0.424   1.783  0.2648 -0.0827 -0.3143
  228MOL   C10545959   2.704   0.453   1.886 -0.0328  0.0355  0.3492
  228MOL   H10645960   2.652   0.626   1.666  0.9273  0.0113  2.1054
  228MOL   H10745961   2.835   0.634   1.637  0.3841  1.7583 -1.3178
  228MOL   H10845962   2.833   0.409   1.588 -0.2713 -0.0466 -0.3018
  228MOL   H10945963   2.762   0.457   1.978 -0.5527  1.9154  0.6183
  228MOL   H11045964   2.665   0.554   1.883  1.5529  0.6406 -3.0148
  228MOL   H11145965   2.631   0.373   1.895  0.9138 -0.7206  1.4472
  228MOL   C11245966   2.614   0.363   1.616 -0.7175  0.1641 -0.0594
  228MOL   C11345967   2.636   0.212   1.644 -0.4994  0.5952  0.0792
  228MOL   O11445968   2.510   0.146   1.670  0.1156  0.7144 -0.0409
  228MOL   C11545969   2.437   0.164   1.787 -0.3042  0.6425  1.0375
  228MOL   H11645970   2.587   0.360   1.511 -1.2519  1.3017  0.0433
  228MOL   H11745971   2.533   0.404   1.677 -0.1440 -0.4578  1.1445
  228MOL   H11845972   2.689   0.215   1.739  0.5251  0.8983 -0.4987
  228MOL   H11945973   2.495   0.132   1.874 -2.4452  0.4936  2.4507
  228MOL   H12045974   2.412   0.269   1.801  0.7276  0.8744  1.2273
  228MOL   H12145975   2.344   0.107   1.790  0.6109 -0.8791  1.3304
  228MOL   C12245976   2.716   0.141   1.529  0.3333 -0.0196  0.4699
  228MOL   C12345977   2.738   7.800   1.538 -0.1011 -0.2362 -0.4529
  228MOL   O12445978   2.806   7.762   1.416  0.4162  1.1310  0.0683
  228MOL   C12545979   2.715   7.720   1.314 -0.5088  0.0691 -0.1576
  228MOL   H12645980   2.808   0.196   1.508  0.0676  0.1856 -0.1656
  228MOL   H12745981   2.658   0.156   1.438 -1.3208  0.0513  1.5128
  228MOL   H12845982   2.640   7.755   1.548  0.2143 -1.1295 -1.3242
  228MOL   H12945983   2.779   7.690   1.231  0.1665  0.8909  0.0488
  228MOL   H13045984   2.642   7.644   1.341 -0.3375  0.5548  1.7377
  228MOL   H13145985   2.654   7.809   1.296  2.1944  1.7725 -1.2862
  228MOL   C13245986   2.831   7.769   1.660  0.3869  0.0897 -0.0603
  228MOL   C13345987   2.870   7.630   1.690 -0.1177 -0.1315 -1.2615
  228MOL   O13445988   2.889   7.619   1.832  0.5867 -0.0717 -0.0292
  228MOL   C13545989   2.998   7.681   1.889  0.3844 -0.1710  0.0616
  228MOL   H13645990   2.791   0.004   1.750  0.8443 -1.1202  0.7709
  228MOL   H13745991   2.925   0.013   1.648  0.7458 -0.8115 -1.6452
  228MOL   H13845992   2.959   7.594   1.638 -0.2423 -1.6426 -0.4804
  228MOL   H13945993   2.975   7.787   1.898 -0.0322 -0.2281 -0.3269
  228MOL   H14045994   3.015   7.648   1.992  0.4034 -0.5862 -0.0742
  228MOL   H14145995   3.089   7.674   1.829 -1.2888 -1.5823 -2.3610
  228MOL   C14245996   2.755   7.526   1.669  0.1926 -0.0135  0.5159
  228MOL   C14345997   2.789   7.385   1.704 -0.0338  0.0987  0.5347
  228MOL   O14445998   2.678   7.300   1.733 -0.3533  0.7560 -0.3240
  228MOL   C14545999   2.616   7.318   1.866  0.7563 -0.1008 -0.0052
  228MOL   H14646000   2.708   7.525   1.570 -1.4796 -0.4861  1.2895
  228MOL   H14746001   2.678   7.565   1.735  1.1243  0.7708  1.1506
  228MOL   H14846002   2.845   7.388   1.798 -1.5940 -0.9232  1.5112
  228MOL   H14946003   2.525   7.259   1.876  0.1808  1.1572  2.8681
  228MOL   H15046004   2.681   7.287   1.948  3.5209 -0.2805 -2.1885
  228MOL   H15146005   2.584   7.421   1.884  1.5688 -0.0069  0.9968
  228MOL   C15246006   2.873   7.316   1.591  0.7477 -0.2550 -0.5608
  228MOL   C15346007   2.796   7.253   1.479  0.1546 -0.0276 -0.0086
  228MOL   O15446008   2.757   7.344   1.383 -0.2004 -0.4685  0.2168
  228MOL   C15546009   2.614   7.355   1.374 -0.0172 -0.5606  0.5850
  228MOL   H15646010   2.938   7.248   1.646  0.9658  2.2176  2.4037
  228MOL   H15746011   2.948   7.387   1.557  0.4481  0.3833  0.0840
  228MOL   H15846012   2.713   7.195   1.518 -1.6038  1.8010 -0.9561
  228MOL   H15946013   2.568   7.258   1.354  2.4992 -1.5279 -0.6493
  228MOL   H16046014   2.571   7.396   1.466 -1.2589  1.1775 -0.7598
  228MOL   H16146015   2.588   7.421   1.292  1.1630 -1.5440 -0.5944
  228MOL   C16246016   2.881   7.141   1.415  0.3304 -1.0039 -0.8557
  228MOL   C16346017   2.810   7.046   1.313  0.3657 -1.2320  0.0877
  228MOL   O16446018   2.914   6.975   1.237  0.0592 -0.1018  0.5997
  228MOL   C16546019   2.974   6.862   1.299 -0.3051  0.1763  0.1529
  228MOL   H16646020   2.915   7.078   1.497  0.2954  0.2006  0.1097
  228MOL   H16746021   2.975   7.186   1.381  0.0800  0.0429 -0.2145
  228MOL   H16846022   2.770   7.103   1.229  2.6814 -1.4584 -1.2115
  228MOL   H16946023   3.069   6.838   1.250 -0.9215 -0.9368 -0.5167
  228MOL   H17046024   2.993   6.882   1.404  1.1282  0.1694 -0.0856
  228MOL   H17146025   2.902   6.781   1.300  1.2220 -1.2178 -0.3611
  228MOL   C17246026   2.702   6.952   1.374  0.0222 -1.0219 -0.7397
  228MOL   C17346027   2.621   6.875   1.269  0.1096  0.5664 -0.0162
  228MOL   O17446028   2.553   6.768   1.316 -0.3424  0.5845  0.5408
  228MOL   C17546029   2.635   6.652   1.345  0.5436 -1.0606  0.0499
  228MOL   H17646030   2.626   7.007   1.429  0.3837  0.4800 -1.7078
  228MOL   H17746031   2.754   6.894   1.451  0.8300  1.8863  0.9972
  228MOL   H17846032   2.688   6.845   1.190 -0.4514  2.2286 -1.1543
  228MOL   H17946033   2.704   6.676   1.426 -1.0409  1.5075  0.7232
  228MOL   H18046034   2.560   6.579   1.376 -1.8660  0.7706 -1.2460
  228MOL   H18146035   2.689   6.625   1.255  1.0624  0.1825 -0.0293
  228MOL   C18246036   2.511   6.969   1.212  0.4558 -0.0174 -0.7142
  228MOL   C18346037   2.422   6.918   1.091  0.3593 -0.8593  0.2755
  228MOL   O18446038   2.332   7.026   1.061  0.5970 -0.2296 -0.0505
  228MOL   C18546039   2.202   7.023   1.131 -0.6921 -0.5551 -0.4250
  228MOL   H18646040   2.541   7.072   1.189 -2.4799  1.3659  1.2816
  228MOL   H18746041   2.440   6.987   1.293  0.5807 -1.4914 -0.2623
  228MOL   H18846042   2.368   6.828   1.118 -0.5804  0.0358  1.4477
  228MOL   H18946043   2.159   7.118   1.100 -1.9391 -1.1609 -0.6138
  228MOL   H19046044   2.135   6.938   1.119  0.9252 -1.8367 -0.4954
  228MOL   H19146045   2.224   7.042   1.236 -0.9098 -1.5482 -0.1967
  228MOL   C19246046   2.503   6.881   0.966  0.6551  0.2110 -0.8269
  228MOL   C19346047   2.420   6.886   0.838 -0.6583 -0.0621 -0.0273
  228MOL   O19446048   2.479   6.810   0.731  0.0827  0.4629  0.0313
  228MOL   C19546049   2.430   6.850   0.611 -1.0388 -0.3133 -0.2370
  228MOL   H19646050   2.540   6.780   0.983  1.0952  0.6137  0.6842
  228MOL   H19746051   2.585   6.953   0.968  0.1724  0.7845 -1.3852
  228MOL   H19846052   2.413   6.991   0.810  0.5990  0.2250  0.7480
  228MOL   H19946053   2.481   6.795   0.531  0.2058  0.1615  0.2120
  228MOL   H20046054   2.326   6.820   0.605 -1.1308  0.2780 -1.8467
  228MOL   H20146055   2.442   6.958   0.600 -0.5902 -0.2525  0.7932
  228MOL   H20246056   2.324   6.840   0.865  0.1242 -0.8928  1.4120
  229MOL     C146057   5.407   3.617   3.875 -0.4684 -0.3106 -0.4717
  229MOL     C246058   5.444   3.577   3.728  0.2903  0.1896 -0.3779
  229MOL     O346059   5.323   3.549   3.656  0.0582  0.0137  0.4956
  229MOL     C446060   5.338   3.447   3.563  0.0356  0.5765  0.3085
  229MOL     H546061   5.327   3.691   3.874  0.7505  1.0298 -2.1234
  229MOL     H646062   5.391   3.531   3.939 -2.0543  2.3425  2.8663
  229MOL     H746063   5.507   3.488   3.728 -0.7373 -0.5627  0.4362
  229MOL     H846064   5.402   3.470   3.478 -0.2650  2.6353  0.6259
  229MOL     H946065   5.395   3.361   3.600  0.2086  0.3179 -0.5514
  229MOL    H1046066   5.243   3.424   3.516 -0.4413  0.7934  1.1586
  229MOL    H1146067   5.497   3.661   3.919  0.6077 -0.4970 -2.4438
  229MOL    C1246068   5.504   3.701   3.648  0.3686 -0.1603  0.5690
  229MOL    C1346069   5.644   3.747   3.688  0.1552  0.1295  0.1365
  229MOL    O1446070   5.653   3.805   3.820  0.3302  0.3425  0.1246
  229MOL    C1546071   5.575   3.924   3.833 -0.6578  0.2014  0.5359
  229MOL    H1646072   5.440   3.789   3.650  1.0821  0.4246 -1.8074
  229MOL    H1746073   5.517   3.673   3.544  1.5591  0.6559  0.4899
  229MOL    H1846074   5.681   3.827   3.624  0.0634  0.8816  1.0084
  229MOL    H1946075   5.603   3.993   3.753 -1.1180 -1.8637 -1.4409
  229MOL    H2046076   5.467   3.914   3.828 -0.5050 -0.7011 -1.2359
  229MOL    H2146077   5.588   3.962   3.934  0.3344  1.2458  0.0316
  229MOL    C2246078   5.750   3.631   3.682  0.1635  0.3981  0.2531
  229MOL    C2346079   5.749   3.552   3.552  0.0833 -0.1782 -0.3257
  229MOL    O2446080   5.764   3.643   3.446  0.2389  0.6479 -0.1606
  229MOL    C2546081   5.715   3.590   3.322  0.8127 -0.6844 -0.7183
  229MOL    H2646082   5.728   3.566   3.766  0.7876 -0.4226 -0.2178
  229MOL    H2746083   5.847   3.679   3.694  0.6022  0.1056 -1.8619
  229MOL    H2846084   5.653   3.500   3.547  0.6010 -1.2376  0.6186
  229MOL    H2946085   5.619   3.636   3.299  0.8036  0.2597  1.0973
  229MOL    H3046086   5.785   3.624   3.246  0.4333 -0.7739 -1.1145
  229MOL    H3146087   5.690   3.484   3.317  0.7389 -0.6482 -1.1173
  229MOL    C3246088   5.843   3.436   3.547  0.7066  0.5334  0.7758
  229MOL    C3346089   5.798   3.317   3.632  0.2302 -0.2473 -0.0562
  229MOL    O3446090   5.693   3.244   3.570 -0.5100  0.2365  0.2419
  229MOL    C3546091   5.619   3.161   3.658 -0.4161  0.2147  0.5761
  229MOL    H3646092   5.938   3.484   3.574  1.8871 -0.2076 -1.8743
  229MOL    H3746093   5.861   3.400   3.446 -0.1409  1.1338  0.4086
  229MOL    H3846094   5.757   3.361   3.722  1.9270  0.0949  0.5724
  229MOL    H3946095   5.513   3.154   3.634 -0.5198 -0.4242  1.2309
  229MOL    H4046096   5.665   3.063   3.665  1.1883  0.6500 -2.7620
  229MOL    H4146097   5.618   3.202   3.759 -2.0749  0.3762  0.4953
  229MOL    C4246098   5.910   3.214   3.661 -0.0691 -0.3275 -0.4664
  229MOL    C4346099   6.030   3.258   3.751 -0.6778  0.5860  0.1843
  229MOL    O4446100   6.105   3.366   3.691 -0.2327  0.1831 -0.0729
  229MOL    C4546101   6.187   3.325   3.578 -0.2198 -0.2884  0.0970
  229MOL    H4646102   5.955   3.176   3.569 -0.1955  0.4614 -0.8589
  229MOL    H4746103   5.869   3.131   3.719 -1.2822 -0.3687 -1.3779
  229MOL    H4846104   6.103   3.178   3.760  0.5319  0.9873 -4.5291
  229MOL    H4946105   6.273   3.260   3.593 -0.1575  0.1888  1.9747
  229MOL    H5046106   6.122   3.281   3.502  0.4193 -0.1385 -0.5409
  229MOL    H5146107   6.230   3.413   3.531  1.4678 -1.1294  0.0285
  229MOL    C5246108   5.999   3.305   3.897 -0.7021 -0.2169 -0.2915
  229MOL    C5346109   5.943   3.195   3.981 -0.1920  0.2569  0.7555
  229MOL    O5446110   6.038   3.091   3.976  0.9086 -0.1096 -0.0801
  229MOL    C5546111   5.985   2.958   3.985  0.3287  0.7352  0.1793
  229MOL    H5646112   5.922   3.383   3.894  0.2085  0.6956 -0.4132
  229MOL    H5746113   6.094   3.333   3.943 -0.8391  1.8638 -1.2113
  229MOL    H5846114   5.850   3.160   3.937 -0.5197  0.0280  1.6282
  229MOL    H5946115   6.067   2.885   3.987 -0.1018  0.2743  1.4070
  229MOL    H6046116   5.934   2.932   4.077  0.8650  0.2215  0.3365
  229MOL    H6146117   5.926   2.943   3.894  1.2415  1.4476 -0.5531
  229MOL    C6246118   5.916   3.242   4.130  0.1404 -0.1778 -0.7204
  229MOL    C6346119   5.803   3.346   4.144 -0.0871 -0.2202  0.7175
  229MOL    O6446120   5.688   3.292   4.088 -0.2389  0.4236  0.3320
  229MOL    C6546121   5.625   3.371   3.989 -0.2284 -0.3149 -0.0893
  229MOL    H6646122   6.010   3.284   4.167 -0.3913  0.5219 -0.1593
  229MOL    H6746123   5.889   3.163   4.199 -0.8398  0.6520 -0.1379
  229MOL    H6846124   5.840   3.436   4.095  2.5863 -2.0027 -0.6984
  229MOL    H6946125   5.596   3.468   4.028 -1.9583 -0.4870 -0.9074
  229MOL    H7046126   5.699   3.381   3.910 -2.3514  1.2080 -1.9625
  229MOL    H7146127   5.538   3.318   3.949  0.4381 -0.5899 -1.1917
  229MOL    C7246128   5.769   3.364   4.297  0.2662 -0.4604  0.1726
  229MOL    C7346129   5.648   3.454   4.329 -0.0706  0.1913  0.9138
  229MOL    O7446130   5.594   3.406   4.451 -0.2024  0.1564  0.4216
  229MOL    C7546131   5.473   3.344   4.429 -0.1200  0.2055  0.0217
  229MOL    H7646132   5.857   3.407   4.346  0.4378  0.7205 -1.1788
  229MOL    H7746133   5.760   3.270   4.351  2.4582  0.1723  1.7289
  229MOL    H7846134   5.571   3.457   4.251  0.7828 -2.6155 -0.0940
  229MOL    H7946135   5.437   3.309   4.526  0.4068 -0.0705  0.1233
  229MOL    H8046136   5.400   3.395   4.368 -1.4680  0.8253  2.1027
  229MOL    H8146137   5.505   3.254   4.376 -1.5074 -0.8383  0.9229
  229MOL    C8246138   5.690   3.595   4.352  0.5985  0.2968  0.2687
  229MOL    C8346139   5.568   3.686   4.365  0.2985 -0.0172  0.0487
  229MOL    O8446140   5.584   3.783   4.465 -0.1647 -0.8507  0.9476
  229MOL    C8546141   5.563   3.727   4.597 -1.0441  0.7453  0.2633
  229MOL    H8646142   5.738   3.626   4.260 -0.0848  1.7053  0.3757
  229MOL    H8746143   5.762   3.597   4.434 -0.4589  2.2391  1.1798
  229MOL    H8846144   5.484   3.627   4.402 -0.6242  1.1109 -0.2251
  229MOL    H8946145   5.461   3.689   4.601 -1.0614  0.3015 -2.8833
  229MOL    H9046146   5.629   3.645   4.626 -2.9640 -0.0381  2.6065
  229MOL    H9146147   5.581   3.804   4.672 -0.9048 -0.7064  1.7625
  229MOL    C9246148   5.519   3.758   4.230  0.0354 -0.1604 -0.1828
  229MOL    C9346149   5.376   3.812   4.222  1.1172 -0.2724  0.3720
  229MOL    O9446150   5.362   3.908   4.116 -0.1565 -0.1386 -0.5696
  229MOL    C9546151   5.357   4.039   4.157  0.2657  0.1427  0.5905
  229MOL    H9646152   5.528   3.695   4.141  1.8582  0.0436 -0.1575
  229MOL    H9746153   5.589   3.836   4.202 -0.8965  0.2442 -1.4355
  229MOL    H9846154   5.352   3.854   4.320  0.3371  1.6394 -0.6168
  229MOL    H9946155   5.362   4.101   4.068  0.6220 -1.6329 -0.6459
  229MOL   H10046156   5.258   4.059   4.199 -0.4617 -0.7393 -0.6724
  229MOL   H10146157   5.438   4.075   4.221  1.6109 -1.8639  0.0535
  229MOL   C10246158   5.275   3.698   4.200 -0.3194  0.5899  0.4681
  229MOL   C10346159   5.135   3.742   4.248 -0.2962  0.3076  0.4689
  229MOL   O10446160   5.033   3.643   4.202 -0.0543 -0.2370 -0.0934
  229MOL   C10546161   5.011   3.632   4.062 -0.3275  0.0772  0.4271
  229MOL   H10646162   5.304   3.615   4.264  0.6607  0.5087 -0.0658
  229MOL   H10746163   5.272   3.655   4.100  0.2384  1.5632  0.0220
  229MOL   H10846164   5.102   3.835   4.204  0.0466 -0.3826 -1.2980
  229MOL   H10946165   4.980   3.729   4.022  1.3819  0.8994  1.0503
  229MOL   H11046166   5.089   3.590   3.998 -0.8866 -0.5098  0.1287
  229MOL   H11146167   4.930   3.560   4.061  2.3428 -3.0354 -1.0409
  229MOL   C11246168   5.137   3.732   4.397  0.1105  0.5457 -0.6632
  229MOL   C11346169   5.016   3.805   4.467 -0.3566  0.2054 -0.0102
  229MOL   O11446170   5.010   3.753   4.596 -0.5095 -0.5436 -0.1082
  229MOL   C11546171   4.914   3.646   4.602 -0.5462 -0.5820  0.2978
  229MOL   H11646172   5.229   3.769   4.443  0.2034 -0.9155  0.3635
  229MOL   H11746173   5.134   3.628   4.429 -3.5619  1.0023  0.7561
  229MOL   H11846174   4.920   3.801   4.414  0.8797  0.1957 -2.3022
  229MOL   H11946175   4.828   3.702   4.638 -1.0984 -3.0321  3.0030
  229MOL   H12046176   4.900   3.596   4.506  0.3441 -0.8303  0.2907
  229MOL   H12146177   4.931   3.580   4.687 -0.3741  1.6054  2.0179
  229MOL   C12246178   5.051   3.954   4.482  0.8869  0.1362 -0.3118
  229MOL   C12346179   4.966   4.038   4.572  0.3968 -0.6453 -0.3284
  229MOL   O12446180   5.024   4.158   4.593 -0.1551 -0.0952 -0.3237
  229MOL   C12546181   5.119   4.172   4.700  0.1528 -0.0754  0.6631
  229MOL   H12646182   5.044   4.006   4.386 -1.5404 -1.1031 -0.8540
  229MOL   H12746183   5.158   3.968   4.497  0.7935  2.2074 -1.3773
  229MOL   H12846184   4.967   3.986   4.667  2.2092 -2.2135 -1.1832
  229MOL   H12946185   5.192   4.091   4.702  1.8134  1.3929  4.2427
  229MOL   H13046186   5.170   4.267   4.685 -1.9369  0.6773 -2.1209
  229MOL   H13146187   5.084   4.172   4.804 -0.4614 -0.2419  0.4574
  229MOL   C13246188   4.816   4.052   4.523 -0.6422 -0.6620  0.7930
  229MOL   C13346189   4.731   4.103   4.646 -0.0502  0.1646 -0.2860
  229MOL   O13446190   4.605   4.149   4.605  0.0929  0.1197 -0.4753
  229MOL   C13546191   4.593   4.268   4.536  0.6600  0.4831 -0.0993
  229MOL   H13646192   4.783   3.950   4.505 -1.0505 -0.6903  1.6790
  229MOL   H13746193   4.811   4.093   4.422 -0.9131  0.4380  1.2488
  229MOL   H13846194   4.792   4.171   4.705 -0.2558 -0.2254  0.3810
  229MOL   H13946195   4.629   4.252   4.434  2.4863 -0.9877  0.7449
  229MOL   H14046196   4.490   4.298   4.517  0.4797  0.2560  0.5168
  229MOL   H14146197   4.638   4.360   4.573 -2.5797  2.1028 -0.0232
  229MOL   C14246198   4.709   3.987   4.741 -0.0095  0.7861 -0.6013
  229MOL   C14346199   4.658   4.023   4.881 -0.1151  0.3328 -0.1964
  229MOL   O14446200   4.587   3.909   4.931  0.0208 -0.0958  0.9582
  229MOL   C14546201   4.460   3.894   4.873  0.0438 -0.1418 -0.8754
  229MOL   H14646202   4.806   3.940   4.760  0.1385  0.9225 -1.0064
  229MOL   H14746203   4.661   3.907   4.685 -0.6069  0.0876  0.8843
  229MOL   H14846204   4.599   4.115   4.883 -2.4541 -1.1631  0.2927
  229MOL   H14946205   4.469   3.798   4.823 -2.0172 -0.3046 -0.9428
  229MOL   H15046206   4.393   3.891   4.958 -0.8930  0.0381 -1.6055
  229MOL   H15146207   4.429   3.969   4.800  0.1089 -1.3127 -2.1206
  229MOL   C15246208   4.773   4.048   4.984  0.0505 -0.5477  0.7143
  229MOL   C15346209   4.729   4.065   5.124  0.1643 -0.2492 -0.0421
  229MOL   O15446210   4.851   4.092   5.199  0.1031  0.6081  0.4448
  229MOL   C15546211   4.917   3.971   5.230 -0.9037  0.3788 -0.1722
  229MOL   H15646212   4.816   4.144   4.955 -1.6622  0.0267  0.0073
  229MOL   H15746213   4.843   3.966   4.975  0.9473 -0.1903  3.8581
  229MOL   H15846214   4.682   3.971   5.153 -1.2075 -0.3444 -2.4567
  229MOL   H15946215   4.951   3.923   5.138 -0.5665  1.1085 -0.4303
  229MOL   H16046216   5.009   3.997   5.281 -1.7919 -0.1202  1.7208
  229MOL   H16146217   4.875   3.896   5.297 -1.7470 -0.5245 -1.6720
  229MOL   C16246218   4.627   4.178   5.151  0.3457  0.3018 -0.5352
  229MOL   C16346219   4.480   4.137   5.162 -0.2154 -0.6869  0.4287
  229MOL   O16446220   4.478   4.067   5.284 -0.2457 -0.5427 -0.1319
  229MOL   C16546221   4.372   3.969   5.286 -0.5922 -0.7819  0.1031
  229MOL   H16646222   4.638   4.249   5.069  0.1939  1.1945  0.2055
  229MOL   H16746223   4.656   4.235   5.239 -1.6901  2.4335 -1.1792
  229MOL   H16846224   4.454   4.084   5.071  0.1155  1.3916 -0.9205
  229MOL   H16946225   4.337   3.930   5.191  2.0920 -2.9858 -0.0358
  229MOL   H17046226   4.390   3.886   5.354 -1.4220 -2.7782 -2.0374
  229MOL   H17146227   4.287   4.017   5.335 -0.7989  2.6548 -3.3473
  229MOL   C17246228   4.390   4.263   5.174 -0.4361 -0.1662  0.6762
  229MOL   C17346229   4.389   4.366   5.060 -0.0672 -0.0367 -0.7102
  229MOL   O17446230   4.364   4.303   4.933  0.2913 -0.0982 -0.5124
  229MOL   C17546231   4.411   4.381   4.819  0.2650 -0.0310  0.4859
  229MOL   H17646232   4.408   4.320   5.265  0.0421  0.0027  0.4710
  229MOL   H17746233   4.286   4.228   5.179 -0.4619 -0.2317 -0.2108
  229MOL   H17846234   4.491   4.403   5.059  0.3657 -1.2111 -1.5690
  229MOL   H17946235   4.363   4.346   4.727  2.0469  0.0024 -0.4698
  229MOL   H18046236   4.385   4.487   4.816 -0.4275 -0.2121  0.0206
  229MOL   H18146237   4.519   4.377   4.805  0.4683  1.6183  1.4270
  229MOL   C18246238   4.293   4.485   5.074  0.2264  0.1761  0.2645
  229MOL   C18346239   4.141   4.464   5.034  0.8248 -1.0886 -0.1139
  229MOL   O18446240   4.060   4.402   5.132  0.6015  0.1693 -0.1558
  229MOL   C18546241   4.007   4.277   5.097  0.2313  0.3918  0.2812
  229MOL   H18646242   4.340   4.570   5.025  0.0900  2.1927  3.4480
  229MOL   H18746243   4.293   4.500   5.182 -1.2584  1.1917  0.1415
  229MOL   H18846244   4.147   4.416   4.936 -0.8870 -0.8407 -0.3562
  229MOL   H18946245   3.961   4.232   5.185  1.1575 -2.0236 -0.4345
  229MOL   H19046246   3.926   4.296   5.026  1.0635 -1.2132 -1.1414
  229MOL   H19146247   4.078   4.209   5.050  0.3976  0.9334 -0.2630
  229MOL   C19246248   4.069   4.600   5.004 -0.2047  0.2768 -0.3212
  229MOL   C19346249   4.121   4.669   4.876  0.0824 -0.4224 -0.3336
  229MOL   O19446250   4.083   4.806   4.881  0.5868 -0.3027  0.3690
  229MOL   C19546251   4.126   4.892   4.777 -0.0244 -0.1804  0.1797
  229MOL   H19646252   4.086   4.666   5.089  2.3146  0.1234 -0.6618
  229MOL   H19746253   3.960   4.596   4.994 -0.3759  1.4546  1.0154
  229MOL   H19846254   4.090   4.619   4.785  0.7502  0.3000 -0.9635
  229MOL   H19946255   4.089   4.993   4.793  2.9634  1.3371 -1.9519
  229MOL   H20046256   4.234   4.882   4.768  0.2303  1.4183  1.1801
  229MOL   H20146257   4.093   4.861   4.678  1.2321  1.6529 -0.8398
  229MOL   H20246258   4.229   4.656   4.872  0.2159  0.0458  1.2137
  230MOL     C146259   6.336   0.427   2.295 -0.0707 -0.8277  0.2806
  230MOL     C246260   6.201   0.461   2.360 -0.0379 -0.5308  0.6537
  230MOL     O346261   6.107   0.482   2.263 -0.1899 -0.2704 -0.3778
  230MOL     C446262   6.103   0.613   2.212  0.4171  0.1573  0.1899
  230MOL     H546263   6.345   0.330   2.246  1.3111 -0.3607 -0.4246
  230MOL     H646264   6.350   0.496   2.212 -2.3389 -1.7404 -0.8983
  230MOL     H746265   6.210   0.553   2.418 -0.0626 -0.5591  0.7030
  230MOL     H846266   6.062   0.680   2.288 -4.6414  0.8164 -2.8728
  230MOL     H946267   6.188   0.647   2.154  0.4433 -0.1386  0.0531
  230MOL    H1046268   6.023   0.618   2.138 -1.2927  0.0072  1.9763
  230MOL    H1146269   6.414   0.453   2.366  1.6113  0.0642 -1.8470
  230MOL    C1246270   6.147   0.346   2.452 -0.1690  0.7576  0.5061
  230MOL    C1346271   6.202   0.335   2.600 -0.8335 -0.1919  0.1804
  230MOL    O1446272   6.117   0.408   2.679 -0.3270  0.1527 -0.0532
  230MOL    C1546273   6.177   0.480   2.784  0.1703  0.5399 -0.2203
  230MOL    H1646274   6.176   0.253   2.403  0.3859  2.3977 -2.4051
  230MOL    H1746275   6.039   0.338   2.443  0.0211 -0.2589 -1.1276
  230MOL    H1846276   6.298   0.387   2.604 -1.1137  0.3268  0.2135
  230MOL    H1946277   6.211   0.414   2.864 -1.0707  2.6182  2.1082
  230MOL    H2046278   6.253   0.550   2.751  2.8068 -2.4071 -0.5803
  230MOL    H2146279   6.107   0.549   2.832 -0.2299  0.6399 -0.9411
  230MOL    C2246280   6.213   0.192   2.652 -0.2305  0.3448 -0.0248
  230MOL    C2346281   6.342   0.113   2.613  0.0917 -0.1358  0.3598
  230MOL    O2446282   6.450   0.172   2.679 -0.4491  0.1769 -0.1357
  230MOL    C2546283   6.546   0.241   2.603 -0.2602  0.9147 -0.5218
  230MOL    H2646284   6.119   0.149   2.620 -0.3955 -0.5067  1.5197
  230MOL    H2746285   6.210   0.200   2.761  3.2228 -1.6504  0.2909
  230MOL    H2846286   6.364   0.119   2.507  3.9047  0.7500  1.1190
  230MOL    H2946287   6.576   0.187   2.514 -0.8916  1.0122 -0.8010
  230MOL    H3046288   6.511   0.343   2.582  0.8407  1.1234 -1.3835
  230MOL    H3146289   6.641   0.256   2.654 -0.0227 -0.0910 -0.6760
  230MOL    C3246290   6.342   7.777   2.654  0.3116 -0.1905 -0.1828
  230MOL    C3346291   6.476   7.704   2.622 -0.0521  0.0901 -0.4570
  230MOL    O3446292   6.483   7.574   2.675  0.7899  0.2203 -0.1256
  230MOL    C3546293   6.491   7.566   2.819 -0.7560 -0.4049 -0.1688
  230MOL    H3646294   6.254   7.725   2.615 -0.0465 -0.2313  0.6620
  230MOL    H3746295   6.316   7.770   2.760  1.4078 -1.5078  0.0079
  230MOL    H3846296   6.562   7.761   2.658  0.2999  1.5877 -3.5370
  230MOL    H3946297   6.525   7.466   2.849  1.4405  1.0959  2.6421
  230MOL    H4046298   6.571   7.633   2.852 -0.4619 -1.2144  0.8171
  230MOL    H4146299   6.403   7.590   2.878 -1.8988 -1.3010 -1.4921
  230MOL    C4246300   6.491   7.688   2.470 -0.1327  0.1535  0.2244
  230MOL    C4346301   6.626   7.640   2.408  0.0895  0.4005  0.4578
  230MOL    O4446302   6.612   7.638   2.267  0.2485 -0.1307 -0.0500
  230MOL    C4546303   6.503   7.557   2.216  0.7755  0.6683 -0.1950
  230MOL    H4646304   6.453   7.773   2.413  1.0764 -1.7836 -3.6714
  230MOL    H4746305   6.413   7.614   2.448 -1.4432  0.6371  3.0020
  230MOL    H4846306   6.663   7.546   2.450  2.3244  0.0016 -2.2721
  230MOL    H4946307   6.485   7.462   2.267  1.9226  1.7280  2.3164
  230MOL    H5046308   6.408   7.609   2.210  0.8390  0.5380 -2.8910
  230MOL    H5146309   6.520   7.536   2.111 -0.0758  1.8115 -0.5615
  230MOL    C5246310   6.741   7.745   2.432 -0.4156  0.0758 -0.0005
  230MOL    C5346311   6.883   7.687   2.410 -0.0942  0.0548  0.1314
  230MOL    O5446312   6.899   7.564   2.474 -0.3032 -0.5890 -0.4070
  230MOL    C5546313   6.914   7.567   2.616  0.2549  0.1844 -0.3358
  230MOL    H5646314   6.736   7.772   2.538 -0.3408  1.7934 -0.4278
  230MOL    H5746315   6.718   0.025   2.375  1.2174  0.0076 -0.7949
  230MOL    H5846316   6.955   7.757   2.451  0.9096 -1.1973  0.5337
  230MOL    H5946317   6.824   7.611   2.659  1.5571  1.5965  0.9403
  230MOL    H6046318   6.935   7.470   2.661  0.7521  1.3198  1.9409
  230MOL    H6146319   7.004   7.626   2.633  0.1675  0.0339  0.6662
  230MOL    C6246320   6.926   7.671   2.261  0.0927  0.2178  0.9731
  230MOL    C6346321   7.076   7.639   2.236  0.6179  0.2312  0.0638
  230MOL    O6446322   7.100   7.634   2.087 -0.8075 -0.3029 -0.1610
  230MOL    C6546323   7.091   7.501   2.028 -0.3322 -0.1123 -0.0860
  230MOL    H6646324   6.917   7.764   2.205  2.8302 -0.7885 -1.2140
  230MOL    H6746325   6.873   7.595   2.203  4.9523 -2.2471 -0.4880
  230MOL    H6846326   7.099   7.541   2.280 -0.7241  1.0527  2.6681
  230MOL    H6946327   6.991   7.458   2.021 -0.9017  1.3587 -1.2131
  230MOL    H7046328   7.123   7.518   1.925  0.7886  0.7728  0.4004
  230MOL    H7146329   7.159   7.430   2.076  1.4747  0.0878 -2.2393
  230MOL    C7246330   7.170   7.750   2.292  0.1516  0.1734  0.0008
  230MOL    C7346331   7.328   7.727   2.299  0.2555  0.0106  0.1272
  230MOL    O7446332   7.366   7.617   2.377 -0.3679  0.1072  0.0012
  230MOL    C7546333   7.502   7.594   2.411 -0.2921  0.8114 -0.6628
  230MOL    H7646334   7.146   7.761   2.398 -0.1027 -0.5097  0.0201
  230MOL    H7746335   7.146   0.034   2.243 -2.4670 -0.6912 -0.4875
  230MOL    H7846336   7.362   0.004   2.355 -0.4480 -0.4342  1.2643
  230MOL    H7946337   7.570   7.575   2.328 -0.4392  1.9354 -1.0339
  230MOL    H8046338   7.539   7.679   2.468  0.1124  0.5036 -0.4547
  230MOL    H8146339   7.512   7.510   2.481 -0.6696  0.0346 -1.5382
  230MOL    C8246340   7.393   7.719   2.159  0.2106 -0.4426 -0.2830
  230MOL    C8346341   7.358   0.013   2.051 -0.1228  0.7087 -0.1983
  230MOL    O8446342   7.442   0.121   2.062 -0.2183  0.0626  0.3603
  230MOL    C8546343   7.402   0.221   2.158 -0.7017 -0.3721 -0.7474
  230MOL    H8646344   7.362   7.621   2.122  0.6227 -0.3670 -0.8557
  230MOL    H8746345   7.502   7.710   2.167  0.6111  2.5556 -1.4162
  230MOL    H8846346   7.253   0.041   2.062 -0.5615 -0.4886 -1.1014
  230MOL    H8946347   7.484   0.287   2.183 -1.2791 -0.0110  0.2177
  230MOL    H9046348   7.331   0.286   2.106  0.8089  0.5486 -1.6887
  230MOL    H9146349   7.362   0.183   2.253 -0.2246  0.2805 -0.2849
  230MOL    C9246350   7.369   7.763   1.906 -0.0222 -0.0559 -0.4455
  230MOL    C9346351   7.350   0.056   1.787 -0.2753  0.1091 -0.3897
  230MOL    O9446352   7.388   0.004   1.659  0.1057 -0.4692  0.0625
  230MOL    C9546353   7.304   7.707   1.614  0.2516 -0.2637  0.3586
  230MOL    H9646354   7.299   7.679   1.905  0.6752 -0.8788  4.7801
  230MOL    H9746355   7.471   7.724   1.897 -0.0375  0.3480 -2.4526
  230MOL    H9846356   7.427   0.133   1.797  1.3499 -1.7957  2.1837
  230MOL    H9946357   7.352   7.665   1.525  0.4584  0.2978  0.2006
  230MOL   H10046358   7.302   7.629   1.690 -0.6960 -0.4164  0.1831
  230MOL   H10146359   7.203   7.737   1.585  0.6250 -1.5264 -2.5003
  230MOL   C10246360   7.220   0.134   1.792  0.2664 -0.3479 -0.6881
  230MOL   C10346361   7.203   0.223   1.668 -0.0411  0.1381 -0.3984
  230MOL   O10446362   7.078   0.300   1.680  0.0052  0.1254  0.2345
  230MOL   C10546363   6.956   0.228   1.692 -0.1120  0.4508  0.0465
  230MOL   H10646364   7.217   0.199   1.880  2.7403 -1.0218 -0.0735
  230MOL   H10746365   7.128   0.076   1.801 -0.5460  0.6603 -2.2375
  230MOL   H10846366   7.195   0.160   1.580 -0.4674 -1.5002  0.7864
  230MOL   H10946367   6.968   0.138   1.633  0.2966 -0.2539  1.1997
  230MOL   H11046368   6.921   0.200   1.791 -1.5273 -0.4350 -0.6911
  230MOL   H11146369   6.875   0.279   1.640 -1.1949 -1.7220 -0.4460
  230MOL   C11246370   7.308   0.337   1.657 -0.3156  0.2612 -0.7055
  230MOL   C11346371   7.315   0.393   1.514  0.1808  0.4916 -0.6622
  230MOL   O11446372   7.360   0.527   1.500 -0.1067  0.4037 -0.4613
  230MOL   C11546373   7.250   0.617   1.520 -0.9089  0.6007 -0.3125
  230MOL   H11646374   7.408   0.314   1.693 -0.4879  1.3402  0.5041
  230MOL   H11746375   7.275   0.418   1.722 -1.5720 -0.5693 -0.3066
  230MOL   H11846376   7.215   0.389   1.470  1.0079  2.2117 -2.8578
  230MOL   H11946377   7.174   0.606   1.443 -0.6412  1.8075 -0.7681
  230MOL   H12046378   7.212   0.627   1.621  0.6819  2.9828  0.0757
  230MOL   H12146379   7.288   0.712   1.483  1.1412  0.0913  0.3964
  230MOL   C12246380   7.399   0.296   1.423 -0.3052 -0.3996  0.2498
  230MOL   C12346381   7.423   0.332   1.279  0.6330 -0.4365  0.2023
  230MOL   O12446382   7.510   0.238   1.220  0.6994 -0.6472  0.3479
  230MOL   C12546383   7.617   0.288   1.138 -0.1173  0.0253  0.4058
  230MOL   H12646384   7.362   0.193   1.418  0.3620 -0.6714  0.8492
  230MOL   H12746385   7.496   0.268   1.465  0.7214  0.1636 -1.6955
  230MOL   H12846386   7.483   0.423   1.286  0.8360 -0.6147  0.7758
  230MOL   H12946387   7.578   0.339   1.050  1.6413 -0.1270 -0.4893
  230MOL   H13046388   7.682   0.359   1.188 -0.4158  0.4922  0.1301
  230MOL   H13146389   7.675   0.199   1.113  0.6307  0.1150  1.7632
  230MOL   C13246390   7.292   0.365   1.201 -0.1568  0.3899 -0.1774
  230MOL   C13346391   7.172   0.261   1.205  0.0584 -0.4552 -0.1042
  230MOL   O13446392   7.052   0.334   1.169 -0.1930 -0.5995  0.4989
  230MOL   C13546393   6.993   0.397   1.279  0.1166  0.2157  0.0113
  230MOL   H13646394   7.323   0.372   1.096  1.1136 -0.5682  0.1310
  230MOL   H13746395   7.259   0.465   1.229  0.5583  0.7877 -0.7217
  230MOL   H13846396   7.162   0.211   1.301 -2.0756  0.1648  0.0404
  230MOL   H13946397   6.894   0.431   1.249  1.6152  2.0927 -2.9826
  230MOL   H14046398   6.980   0.322   1.357 -0.0127  0.7386  0.4954
  230MOL   H14146399   7.050   0.482   1.315 -0.0755  0.2171  0.3158
  230MOL   C14246400   7.187   0.158   1.098 -0.5042  0.4287  0.0661
  230MOL   C14346401   7.118   0.019   1.105 -0.2107 -0.2679  0.3559
  230MOL   O14446402   7.105   7.785   0.972  0.5209  0.1694  0.3639
  230MOL   C14546403   6.967   7.772   0.931  0.0650  0.5429 -0.1950
  230MOL   H14646404   7.293   0.140   1.080 -0.6900 -0.9510  0.2709
  230MOL   H14746405   7.153   0.194   1.001  1.3694 -0.1982 -0.8641
  230MOL   H14846406   7.018   0.035   1.145 -0.3871  0.5818 -0.4047
  230MOL   H14946407   6.911   7.703   0.994  0.5816 -0.9432 -1.3290
  230MOL   H15046408   6.904   0.050   0.928 -0.1147  0.4670  0.9941
  230MOL   H15146409   6.965   7.726   0.832 -0.3759 -0.0742  0.1022
  230MOL   C15246410   7.219   7.736   1.179 -0.3974 -0.1305 -0.3116
  230MOL   C15346411   7.152   7.604   1.223 -0.1347  0.1563  0.1049
  230MOL   O15446412   7.260   7.529   1.271  0.5701  0.2093 -0.2772
  230MOL   C15546413   7.241   7.391   1.289 -0.3114  0.2990  0.1005
  230MOL   H15646414   7.263   7.785   1.266  2.7279 -1.7455 -0.9023
  230MOL   H15746415   7.301   7.720   1.109  0.7456  0.5533  0.8627
  230MOL   H15846416   7.119   7.544   1.138 -0.1190 -0.3609  0.4652
  230MOL   H15946417   7.166   7.375   1.366  0.1837 -0.4041  0.4317
  230MOL   H16046418   7.204   7.332   1.206  0.0505  0.0426  0.1223
  230MOL   H16146419   7.336   7.356   1.328  0.4488  0.9751 -1.0928
  230MOL   C16246420   7.051   7.627   1.333  0.3242 -0.5447  0.0013
  230MOL   C16346421   6.907   7.575   1.302  0.0335  0.5809  0.2639
  230MOL   O16446422   6.914   7.434   1.281 -0.1516 -0.5364  0.1893
  230MOL   C16546423   6.807   7.382   1.197  0.0847 -0.0655  0.1440
  230MOL   H16646424   7.049   7.734   1.355  0.2375 -0.4361 -0.5216
  230MOL   H16746425   7.091   7.583   1.424 -2.4381  0.3408  1.7040
  230MOL   H16846426   6.874   7.609   1.204  2.2676 -0.2599 -0.8194
  230MOL   H16946427   6.712   7.402   1.247  0.7149  1.2813  0.8214
  230MOL   H17046428   6.796   7.439   1.105  1.3605 -1.3219 -0.8077
  230MOL   H17146429   6.810   7.274   1.187 -3.2273 -0.2123  0.3039
  230MOL   C17246430   6.796   7.603   1.414  0.3264  0.4550  1.3798
  230MOL   C17346431   6.747   7.752   1.434 -0.8211  0.0078 -0.4143
  230MOL   O17446432   6.682   7.781   1.310  0.0938  0.4103 -0.1627
  230MOL   C17546433   6.681   0.106   1.276 -0.3594  0.5891 -0.3602
  230MOL   H17646434   6.826   7.565   1.512  0.7313 -0.4084  0.9252
  230MOL   H17746435   6.704   7.549   1.390  1.0535 -1.0069  1.8216
  230MOL   H17846436   6.839   7.808   1.449  0.0586 -1.1769 -1.2644
  230MOL   H17946437   6.655   0.163   1.365 -0.7054  0.5249 -0.4193
  230MOL   H18046438   6.783   0.124   1.244  0.2319 -1.9900 -0.0305
  230MOL   H18146439   6.607   0.119   1.198  0.1505  1.5075 -0.7017
  230MOL   C18246440   6.660   7.767   1.556 -0.3613 -0.6467  0.0957
  230MOL   C18346441   6.701   7.704   1.694 -0.7703 -0.1088  0.7988
  230MOL   O18446442   6.829   7.763   1.728  0.2777  0.1755 -0.0470
  230MOL   C18546443   6.900   7.666   1.804  0.0398 -0.5278 -0.3296
  230MOL   H18646444   6.567   7.726   1.517 -0.2981 -1.4401  0.7542
  230MOL   H18746445   6.637   0.061   1.575 -0.4830 -0.7464  0.4904
  230MOL   H18846446   6.707   7.596   1.681  1.3560  0.1992 -1.1123
  230MOL   H18946447   6.928   7.575   1.750 -0.9089 -1.0000 -0.0181
  230MOL   H19046448   6.989   7.716   1.842  0.1127 -2.6207  2.3426
  230MOL   H19146449   6.869   7.638   1.904 -1.6509  2.9046  0.1757
  230MOL   C19246450   6.603   7.721   1.818  0.1026 -0.0215 -0.3279
  230MOL   C19346451   6.592   0.060   1.855  0.2892 -0.9161 -0.6252
  230MOL   O19446452   6.497   0.048   1.962  0.8057  0.0312  0.1589
  230MOL   C19546453   6.548   0.102   2.084 -0.0628  0.2847  0.3938
  230MOL   H19646454   6.646   7.662   1.899 -1.0232  2.1328  1.8993
  230MOL   H19746455   6.505   7.678   1.800  0.9441 -1.3734 -1.7969
  230MOL   H19846456   6.540   0.110   1.772 -3.3797 -1.1959  1.4171
  230MOL   H19946457   6.472   0.074   2.157  0.8134 -0.9292  0.8631
  230MOL   H20046458   6.639   0.049   2.113 -0.1443 -0.7782 -1.2312
  230MOL   H20146459   6.545   0.211   2.078 -2.3968  0.3711  2.3547
  230MOL   H20246460   6.687   0.108   1.878 -0.4512  0.2452  0.0711
  231MOL     C146461   7.437   7.726   4.777 -0.1805 -0.5394 -0.1674
  231MOL     C246462   7.322   7.632   4.822 -0.0660  0.0971  0.3536
  231MOL     O346463   7.379   7.502   4.792  0.1362  0.4544  0.1327
  231MOL     C446464   7.305   7.418   4.711  0.4388 -0.1196  0.1219
  231MOL     H546465   7.523   7.719   4.844 -1.5451  0.7823  1.7706
  231MOL     H646466   7.464   7.710   4.672  0.0985  2.3657 -0.5836
  231MOL     H746467   7.241   7.655   4.753 -0.6411 -1.3632  0.5426
  231MOL     H846468   7.348   7.420   4.611  3.3518  0.7742  1.3518
  231MOL     H946469   7.316   7.315   4.745 -2.3764 -0.4490  0.2022
  231MOL    H1046470   7.197   7.430   4.717  0.3080 -1.1355 -0.0943
  231MOL    H1146471   7.390   0.013   4.782 -1.7311 -1.3470  1.4361
  231MOL    C1246472   7.276   7.653   4.967 -0.3909  0.0667 -0.3495
  231MOL    C1346473   7.215   7.786   5.003 -0.6103 -0.6043  0.0892
  231MOL    O1446474   7.087   7.783   4.945 -0.2328  0.5973 -0.3540
  231MOL    C1546475   7.045   0.102   4.911 -0.0787 -0.1766  0.4331
  231MOL    H1646476   7.361   7.644   5.034  1.2588  4.3940 -1.6776
  231MOL    H1746477   7.205   7.578   5.002 -1.4795  2.8879  3.8831
  231MOL    H1846478   7.275   0.057   4.962 -1.1584 -0.2756 -0.0703
  231MOL    H1946479   7.010   0.154   5.000 -1.6716  0.5433 -0.5872
  231MOL    H2046480   7.122   0.167   4.867  0.5157 -1.2074 -0.0642
  231MOL    H2146481   6.952   0.114   4.856 -0.5698 -0.2747  1.2416
  231MOL    C2246482   7.200   7.805   5.160  0.3369  0.7609 -0.4067
  231MOL    C2346483   7.330   0.015   5.238 -0.0874  0.3423  0.0212
  231MOL    O2446484   7.398   0.122   5.173  0.3207  0.3256 -0.0646
  231MOL    C2546485   7.541   0.103   5.166  0.5955 -0.3593  0.2031
  231MOL    H2646486   7.132   7.727   5.194  0.9760  0.5433  0.3610
  231MOL    H2746487   7.144   0.087   5.171 -0.1448  0.3225  0.9110
  231MOL    H2846488   7.387   7.733   5.230 -0.0249  0.3950 -0.1424
  231MOL    H2946489   7.568   0.030   5.090  2.0045  1.7642 -1.4014
  231MOL    H3046490   7.589   0.195   5.133  0.4673 -0.4033 -0.1034
  231MOL    H3146491   7.592   0.085   5.260 -0.9148 -2.6745  0.6161
  231MOL    C3246492   7.314   0.056   5.390 -0.4488  0.3444 -0.0974
  231MOL    C3346493   7.250   7.762   5.483  0.3366 -0.5839  0.0978
  231MOL    O3446494   7.327   7.651   5.510 -0.6090 -0.3616 -0.2823
  231MOL    C3546495   7.275   7.523   5.473  0.2064 -0.6197  0.3525
  231MOL    H3646496   7.263   0.152   5.402 -0.0836  0.3634  1.4035
  231MOL    H3746497   7.419   0.064   5.417 -0.1437 -0.3488 -1.0169
  231MOL    H3846498   7.154   7.732   5.440 -0.0569 -0.0422  0.5933
  231MOL    H3946499   7.187   7.501   5.534  0.2060 -1.4022  0.0690
  231MOL    H4046500   7.265   7.523   5.365  1.1124 -1.5682  0.2672
  231MOL    H4146501   7.347   7.443   5.492  0.9732  0.1098  0.5481
  231MOL    C4246502   7.223   0.018   5.618  0.1237 -0.4203  0.0498
  231MOL    C4346503   7.352   0.061   5.698  0.5456 -0.8612  0.4471
  231MOL    O4446504   7.334   0.196   5.737 -0.1582  0.8272  0.0039
  231MOL    C4546505   7.416   0.289   5.669  0.7768 -0.0941 -0.4693
  231MOL    H4646506   7.177   7.759   5.688  1.0303 -2.0580 -0.9707
  231MOL    H4746507   7.152   0.101   5.608 -0.2448 -0.4308  2.3528
  231MOL    H4846508   7.441   0.064   5.635  0.4619  0.5100  0.3800
  231MOL    H4946509   7.396   0.392   5.699  0.2762 -0.2766 -0.1848
  231MOL    H5046510   7.521   0.270   5.691  1.1664  1.4437 -0.9222
  231MOL    H5146511   7.400   0.275   5.562 -3.3806 -0.7438  0.1851
  231MOL    C5246512   7.376   7.791   5.827  0.2778 -0.3545  0.6001
  231MOL    C5346513   7.527   7.785   5.852  0.0821  0.7236 -0.2311
  231MOL    O5446514   7.543   7.782   5.992 -0.3479  0.2606 -0.1570
  231MOL    C5546515   7.538   0.096   6.059 -0.4953  0.5502  0.5490
  231MOL    H5646516   7.343   7.688   5.813  0.2098 -0.3297  0.5752
  231MOL    H5746517   7.307   0.022   5.901  0.1205 -1.9594  1.3922
  231MOL    H5846518   7.585   0.058   5.812  1.1673  0.3353  0.5164
  231MOL    H5946519   7.525   0.077   6.166  0.6769  1.5290  0.8659
  231MOL    H6046520   7.633   0.146   6.042  0.4946 -1.6446 -0.6024
  231MOL    H6146521   7.458   0.165   6.033 -0.7541 -0.3566 -1.1444
  231MOL    C6246522   7.595   7.650   5.811 -0.0476 -0.5826 -0.4404
  231MOL    C6346523   7.746   7.660   5.811  0.3005 -0.3549  0.4619
  231MOL    O6446524   7.810   7.536   5.831  0.2991 -0.1120  0.4693
  231MOL    C6546525   0.033   7.518   5.969  0.2149 -0.5675 -0.0591
  231MOL    H6646526   7.560   7.627   5.711 -0.6783 -1.6252  0.0094
  231MOL    H6746527   7.563   7.565   5.872  3.4509 -1.5098  0.2397
  231MOL    H6846528   7.768   7.731   5.891 -1.6482  0.4944  0.2826
  231MOL    H6946529   0.071   7.418   5.988  0.8635 -0.0701  1.4062
  231MOL    H7046530   0.114   7.585   6.000  0.9446 -0.8735 -1.2648
  231MOL    H7146531   7.754   7.541   6.027  0.0307 -1.2505 -0.0799
  231MOL    C7246532   7.798   7.738   5.687  0.2374  0.2738 -0.3787
  231MOL    C7346533   0.141   7.767   5.683  0.4508  0.0772 -0.4204
  231MOL    O7446534   0.186   0.026   5.797 -0.4024 -0.0874 -0.2047
  231MOL    C7546535   0.120   0.155   5.809 -0.4862  0.2684 -0.4010
  231MOL    H7646536   7.746   0.023   5.681 -0.9309 -0.4464 -1.8675
  231MOL    H7746537   7.768   7.686   5.597 -0.8597  0.4268 -0.1121
  231MOL    H7846538   0.165   0.025   5.602  0.7888 -0.1036 -0.4762
  231MOL    H7946539   0.173   0.210   5.887  1.2240 -0.4868 -1.0184
  231MOL    H8046540   0.124   0.205   5.713  0.3840 -0.9468 -1.0094
  231MOL    H8146541   0.014   0.151   5.835  0.1749  1.1529  2.6320
  231MOL    C8246542   0.223   7.640   5.666 -0.3519  0.2801  0.0484
  231MOL    C8346543   0.207   7.564   5.526 -0.2871 -0.3034 -0.4079
  231MOL    O8446544   0.261   7.641   5.421  0.2493  0.0275 -0.0938
  231MOL    C8546545   0.205   7.622   5.291  0.2964  0.6096 -0.2454
  231MOL    H8646546   0.204   7.583   5.757 -1.0923  1.5698  0.7237
  231MOL    H8746547   0.328   7.669   5.667  0.2381 -1.7879  0.2493
  231MOL    H8846548   0.098   7.552   5.522 -0.4074  1.1548 -2.3292
  231MOL    H8946549   0.281   7.652   5.219  1.3771  2.8707  1.7733
  231MOL    H9046550   0.185   7.522   5.252 -1.0819  1.1463 -0.9410
  231MOL    H9146551   0.120   7.687   5.272  0.3313  0.7014 -0.0833
  231MOL    C9246552   0.280   7.429   5.523 -0.2406 -0.2554  0.0284
  231MOL    C9346553   0.189   7.316   5.579 -0.2546 -0.5988 -0.0963
  231MOL    O9446554   0.076   7.314   5.494  0.3296 -0.0040 -0.5556
  231MOL    C9546555   7.757   7.311   5.568 -0.4951  0.4517  0.1473
  231MOL    H9646556   0.371   7.447   5.581 -1.6011  0.5321  2.0056
  231MOL    H9746557   0.315   7.409   5.422  1.0998  2.4075 -0.0881
  231MOL    H9846558   0.165   7.334   5.683 -0.4862 -1.0372 -0.0733
  231MOL    H9946559   7.747   7.402   5.627 -1.1228 -0.1186  0.9123
  231MOL   H10046560   7.672   7.300   5.501  0.3868  0.2486 -0.9709
  231MOL   H10146561   7.765   7.217   5.623  0.6655 -0.3967 -1.4041
  231MOL   C10246562   0.252   7.178   5.545  0.4304  0.3114 -0.2412
  231MOL   C10346563   0.390   7.130   5.604 -0.4026  0.3031  0.4443
  231MOL   O10446564   0.497   7.224   5.567 -0.3160  0.5411 -0.4796
  231MOL   C10546565   0.575   7.183   5.456  0.3013 -0.3388 -0.0623
  231MOL   H10646566   0.263   7.165   5.437 -0.8381 -0.1881 -0.3146
  231MOL   H10746567   0.179   7.107   5.583  0.1784  0.8770  0.3452
  231MOL   H10846568   0.410   7.031   5.564  0.4598  0.4313  0.5627
  231MOL   H10946569   0.661   7.250   5.449  0.1783  0.0307  1.8284
  231MOL   H11046570   0.615   7.082   5.468  1.6236  0.0960 -0.6421
  231MOL   H11146571   0.506   7.194   5.372 -1.2487  0.5292  1.3156
  231MOL   C11246572   0.384   7.116   5.754 -0.3618  0.8908 -0.4742
  231MOL   C11346573   0.296   7.014   5.817  0.0868  0.5192  0.7400
  231MOL   O11446574   0.159   7.045   5.813  0.4288 -0.8565 -0.6310
  231MOL   C11546575   0.116   7.156   5.895 -0.6817 -0.0255 -0.1419
  231MOL   H11646576   0.365   7.219   5.786 -2.0163  0.1039  1.1105
  231MOL   H11746577   0.486   7.102   5.790 -0.3405  0.8181 -0.5615
  231MOL   H11846578   0.338   7.012   5.917  0.4772 -0.2756  0.5668
  231MOL   H11946579   0.186   7.239   5.892  0.4308 -0.8798  1.5242
  231MOL   H12046580   0.014   7.193   5.887 -0.1846  1.5172  0.6710
  231MOL   H12146581   0.129   7.122   5.998 -1.7466  0.2778  0.1010
  231MOL   C12246582   0.309   6.868   5.764  0.2841 -1.2028 -0.6376
  231MOL   C12346583   0.210   6.775   5.842  0.1764 -0.2478 -0.5459
  231MOL   O12446584   0.235   6.642   5.815 -0.5428  0.3607  0.5112
  231MOL   C12546585   0.183   6.601   5.684 -1.1022 -0.3576 -0.1448
  231MOL   H12646586   0.411   6.830   5.759  0.1381 -1.7126  0.1160
  231MOL   H12746587   0.277   6.867   5.660 -2.4354  0.0521  0.1427
  231MOL   H12846588   0.107   6.801   5.819  0.2447 -0.3966 -1.0203
  231MOL   H12946589   0.079   6.630   5.675 -0.8475  0.0760 -1.7355
  231MOL   H13046590   0.238   6.637   5.597  0.4291  0.9810  1.3228
  231MOL   H13146591   0.181   6.493   5.679  0.1739 -0.4626  1.1616
  231MOL   C13246592   0.224   6.774   5.998  0.1885 -0.4041 -0.0472
  231MOL   C13346593   0.092   6.713   6.068 -0.0361 -0.1696  0.1115
  231MOL   O13446594   0.106   6.700   6.205 -0.0555  0.5577 -0.0236
  231MOL   C13546595   0.164   6.581   6.257 -1.1945  0.0211 -0.2985
  231MOL   H13646596   0.245   6.872   6.042  0.8463  0.6154 -2.5639
  231MOL   H13746597   0.314   6.718   6.027 -0.5450 -1.4082  0.2999
  231MOL   H13846598   0.051   6.624   6.020 -1.3052 -0.4264  1.6497
  231MOL   H13946599   0.254   6.551   6.203 -1.1749  0.5262 -0.5535
  231MOL   H14046600   0.188   6.588   6.363 -1.2898 -1.2499 -0.1805
  231MOL   H14146601   0.089   6.502   6.251 -0.4576 -0.5989 -1.4113
  231MOL   C14246602   7.786   6.821   6.067  0.1805 -0.4108  0.0718
  231MOL   C14346603   7.645   6.773   6.083  0.0650 -1.0413  0.1727
  231MOL   O14446604   7.556   6.884   6.053  0.3193 -0.0070  0.2807
  231MOL   C14546605   7.532   6.962   6.169  0.7011 -0.3615  0.2787
  231MOL   H14646606   7.793   6.869   5.970 -0.0653  0.3594  0.4293
  231MOL   H14746607   7.807   6.905   6.134  1.4496 -1.1567  0.6339
  231MOL   H14846608   7.627   6.732   6.183  1.1067  1.4701  1.4347
  231MOL   H14946609   7.619   6.995   6.226  0.0163  2.1532 -0.0642
  231MOL   H15046610   7.487   7.057   6.138  1.6906 -0.5859 -1.8805
  231MOL   H15146611   7.463   6.913   6.238 -1.0065 -0.5586 -1.5444
  231MOL   C15246612   7.597   6.658   5.991  0.6680 -0.8054  0.6152
  231MOL   C15346613   7.443   6.644   5.981  0.1587 -0.7537  0.0122
  231MOL   O15446614   7.404   6.547   5.886  0.7887  0.9575 -0.3695
  231MOL   C15546615   7.382   6.607   5.760 -0.0448  0.5290  0.3748
  231MOL   H15646616   7.647   6.563   6.012  0.5270 -1.4184 -1.6263
  231MOL   H15746617   7.629   6.697   5.894 -1.2294  1.8518  1.0052
  231MOL   H15846618   7.394   6.734   5.944  0.8190  0.3097  1.6570
  231MOL   H15946619   7.356   6.523   5.697  2.3235 -0.4010  0.5899
  231MOL   H16046620   7.287   6.660   5.774  0.6512  1.0467  3.7351
  231MOL   H16146621   7.444   6.680   5.708 -2.1461  0.5679 -2.1749
  231MOL   C16246622   7.380   6.617   6.122  0.9162 -0.2400 -0.6159
  231MOL   C16346623   7.226   6.622   6.138  0.2251 -0.4962  0.4571
  231MOL   O16446624   7.183   6.581   6.267  0.4486 -0.1076 -0.1475
  231MOL   C16546625   7.175   6.440   6.282 -0.9074  0.3682 -0.5048
  231MOL   H16646626   7.419   6.688   6.196  1.4761  0.5807 -1.6745
  231MOL   H16746627   7.421   6.522   6.156  0.2991 -1.0036 -1.9778
  231MOL   H16846628   7.170   6.564   6.065  0.6589 -1.4059  0.8341
  231MOL   H16946629   7.123   6.409   6.373  0.9333  1.9744  1.1290
  231MOL   H17046630   7.110   6.412   6.198  3.2251 -2.3338 -2.9654
  231MOL   H17146631   7.277   6.405   6.295 -0.1960  2.3926 -0.5382
  231MOL   C17246632   7.182   6.769   6.121  0.3807 -0.1838  0.4170
  231MOL   C17346633   7.035   6.802   6.148  0.1651 -0.4342 -0.3238
  231MOL   O17446634   7.005   6.949   6.147 -0.0459 -0.3421  0.7044
  231MOL   C17546635   6.998   6.999   6.282 -0.5068 -0.1505 -0.3602
  231MOL   H17646636   7.204   6.806   6.021  0.1483 -0.5962  0.2102
  231MOL   H17746637   7.241   6.836   6.184  0.8096 -0.7884  0.6519
  231MOL   H17846638   7.031   6.764   6.250  1.0593 -0.4884 -0.3044
  231MOL   H17946639   7.028   7.103   6.266 -2.1561  0.9907  3.4488
  231MOL   H18046640   6.900   7.001   6.330 -1.1766  0.2829 -1.7254
  231MOL   H18146641   7.074   6.957   6.347  0.0503  0.5252 -0.5732
  231MOL   C18246642   6.933   6.737   6.042  0.6679  0.4406  0.3008
  231MOL   C18346643   6.791   6.751   6.091  0.1687  0.1015  0.2884
  231MOL   O18446644   6.697   6.719   5.979 -0.6133  0.2155  0.0646
  231MOL   C18546645   6.655   6.829   5.901 -0.3422  0.2942  0.2326
  231MOL   H18646646   6.953   6.633   6.016  1.3321  0.4584  0.7412
  231MOL   H18746647   6.948   6.784   5.945  0.0613 -2.1154 -1.0828
  231MOL   H18846648   6.769   6.852   6.128  0.3169  0.3137 -0.2010
  231MOL   H18946649   6.739   6.891   5.871  0.4585 -0.9061 -0.0563
  231MOL   H19046650   6.611   6.791   5.809 -1.1227  0.2566  0.6179
  231MOL   H19146651   6.577   6.880   5.957 -0.7148 -0.8581  0.7928
  231MOL   C19246652   6.752   6.650   6.199  0.3373  0.1533 -0.2728
  231MOL   C19346653   6.606   6.658   6.245  1.1365 -0.4429 -0.4175
  231MOL   O19446654   6.585   6.605   6.376 -0.0771  0.7039  0.9569
  231MOL   C19546655   6.449   6.576   6.416  0.7444 -0.6142  0.0145
  231MOL   H19646656   6.806   6.684   6.287 -1.2164 -0.6482  1.0236
  231MOL   H19746657   6.786   6.555   6.158 -0.7932 -0.9116  1.1903
  231MOL   H19846658   6.536   6.610   6.177  1.3568 -0.2823 -0.7574
  231MOL   H19946659   6.404   6.499   6.353 -0.9206 -0.4426  0.9618
  231MOL   H20046660   6.448   6.537   6.518 -0.0832  0.6279  0.4936
  231MOL   H20146661   6.378   6.656   6.435 -0.5973 -1.4922 -1.1707
  231MOL   H20246662   6.575   6.762   6.247 -0.6000 -0.9292 -1.5532
  232MOL     C146663   6.854   7.239   0.497  0.2094  0.1233  0.1908
  232MOL     C246664   6.888   7.371   0.571 -1.1570 -0.5414  0.0332
  232MOL     O346665   6.870   7.348   0.713  0.1657 -0.3704  0.7165
  232MOL     C446666   6.878   7.462   0.798  0.2706 -0.2528  0.3811
  232MOL     H546667   6.845   7.257   0.390 -1.9790 -0.7880  0.1892
  232MOL     H646668   6.931   7.164   0.514  0.9706  0.4817 -1.6321
  232MOL     H746669   6.823   7.450   0.533 -1.6714 -0.7803  0.4013
  232MOL     H846670   6.813   7.546   0.773 -0.4185 -1.2900 -1.3786
  232MOL     H946671   6.861   7.429   0.901 -1.1576 -1.0370 -0.1019
  232MOL    H1046672   6.984   7.490   0.803 -0.1361  1.3394  0.5355
  232MOL    H1146673   6.758   7.195   0.525  0.7015  0.2942  2.2340
  232MOL    C1246674   7.030   7.428   0.536 -0.6148  0.8151 -0.3754
  232MOL    C1346675   7.053   7.584   0.521  0.5188  1.2926 -0.0597
  232MOL    O1446676   7.195   7.607   0.510  0.9294  0.1914 -0.4031
  232MOL    C1546677   7.270   7.618   0.635  0.5933 -0.0321 -0.2567
  232MOL    H1646678   7.051   7.393   0.434 -2.0569 -0.5394 -0.2336
  232MOL    H1746679   7.096   7.380   0.607  0.9574  1.1283 -1.6023
  232MOL    H1846680   7.012   7.630   0.610 -1.0305  0.3305 -0.2457
  232MOL    H1946681   7.375   7.628   0.605  0.4669 -1.4659 -1.2619
  232MOL    H2046682   7.241   7.702   0.698  0.0383 -0.2464 -0.2311
  232MOL    H2146683   7.271   7.525   0.691  0.0050  2.1008  3.4299
  232MOL    C2246684   6.980   7.646   0.404  0.7443 -0.0277  0.6114
  232MOL    C2346685   6.960   7.797   0.400  0.2521  0.0148 -0.1652
  232MOL    O2446686   6.863   0.032   0.499 -0.2360 -0.3873 -0.0809
  232MOL    C2546687   6.826   0.169   0.501  0.1673 -0.4666 -0.4174
  232MOL    H2646688   6.881   7.603   0.385  0.4364  0.3308  1.3671
  232MOL    H2746689   7.036   7.621   0.314  0.0979 -0.1891  0.2470
  232MOL    H2846690   6.922   0.005   0.300  2.3567 -1.5533 -1.2784
  232MOL    H2946691   6.907   0.241   0.507 -0.0658 -0.2869  0.6954
  232MOL    H3046692   6.763   0.196   0.416 -1.4524  0.9011  1.1716
  232MOL    H3146693   6.765   0.183   0.590  0.9167  0.8786 -0.1042
  232MOL    C3246694   7.097   0.069   0.408  0.0136  0.4069 -0.4603
  232MOL    C3346695   7.191   0.042   0.289  0.1783 -0.2170 -0.1840
  232MOL    O3446696   7.122   0.083   0.176  0.0143 -0.0783 -0.2570
  232MOL    C3546697   7.135   7.801   0.063  0.6949 -0.5889 -0.1197
  232MOL    H3646698   7.150   0.057   0.503  0.2100 -0.2576 -0.6509
  232MOL    H3746699   7.077   0.175   0.401  0.9237  0.5475 -0.9596
  232MOL    H3846700   7.215   7.747   0.284  0.7485 -0.0329 -1.3959
  232MOL    H3946701   7.230   0.009   0.012  0.4581  2.2340  0.3768
  232MOL    H4046702   7.108   7.699   0.087  0.1043 -0.6226 -0.9484
  232MOL    H4146703   7.047   0.010   0.001  0.8903 -1.2727 -0.6116
  232MOL    C4246704   7.327   0.124   0.275 -0.5783  0.0261  0.5018
  232MOL    C4346705   7.439   0.066   0.375  0.7590 -0.1014 -0.1317
  232MOL    O4446706   7.525   7.795   0.301  0.3679 -0.1077  0.2810
  232MOL    C4546707   7.483   7.661   0.277  0.3693 -0.1841  0.2734
  232MOL    H4646708   7.304   0.229   0.290 -0.8146 -0.2055  1.8228
  232MOL    H4746709   7.368   0.108   0.176  2.7897  0.0003  1.8238
  232MOL    H4846710   7.396   0.005   0.454 -0.1724 -1.0913 -1.3776
  232MOL    H4946711   7.547   7.596   0.217  2.3422  1.1774  0.8392
  232MOL    H5046712   7.489   7.621   0.379  2.2335  1.7525  0.9538
  232MOL    H5146713   7.382   7.646   0.240  1.1124 -0.2843 -1.7667
  232MOL    C5246714   7.518   0.185   0.444  0.3660  0.2460  0.0533
  232MOL    C5346715   7.611   0.140   0.566  0.0812  0.2723  0.9082
  232MOL    O5446716   7.517   0.084   0.661  0.4766  0.4149 -0.3838
  232MOL    C5546717   7.495   0.152   0.787  0.2601  0.0944  0.1095
  232MOL    H5646718   7.448   0.260   0.481  2.0999  1.0681  1.7857
  232MOL    H5746719   7.580   0.236   0.370 -0.4202  0.2801 -0.5922
  232MOL    H5846720   7.666   0.223   0.610  0.1118 -0.0295  1.4457
  232MOL    H5946721   7.406   0.105   0.830 -0.2560  0.2500 -0.7581
  232MOL    H6046722   7.587   0.152   0.845  1.4694  0.3320 -1.7675
  232MOL    H6146723   7.465   0.254   0.763  0.6475 -0.0350 -0.9509
  232MOL    C6246724   7.724   0.039   0.529 -1.3347  0.1084  0.1401
  232MOL    C6346725   0.003   0.083   0.407 -0.1797  0.1882  0.1583
  232MOL    O6446726   0.053   0.213   0.449 -0.4387  0.3883 -0.2505
  232MOL    C6546727   0.070   0.304   0.343 -0.4063  0.2340 -0.1435
  232MOL    H6646728   7.684   7.752   0.501  0.2500 -0.5915  0.2177
  232MOL    H6746729   7.785   0.010   0.615  1.0761  1.4134 -1.0858
  232MOL    H6846730   7.743   0.091   0.324  0.8736  1.2978 -0.6527
  232MOL    H6946731   0.163   0.290   0.289 -0.0273 -0.6674  0.7272
  232MOL    H7046732   7.796   0.294   0.275 -0.3485  0.0998 -0.1949
  232MOL    H7146733   0.067   0.408   0.378  0.9855  1.5621 -3.7401
  232MOL    C7246734   0.123   7.798   0.376  0.5309 -0.6479 -0.7138
  232MOL    C7346735   0.095   7.683   0.279 -0.3174  0.0696 -0.5215
  232MOL    O7446736   0.080   7.748   0.155  0.0893  0.1882  0.6244
  232MOL    C7546737   0.035   7.674   0.044  0.5514 -0.1592  0.2165
  232MOL    H7646738   0.166   7.751   0.464  0.8537 -0.8975 -1.0086
  232MOL    H7746739   0.203   0.046   0.331  1.2138 -2.0901 -1.4112
  232MOL    H7846740   0.000   7.630   0.292  0.5456 -1.2630  0.4970
  232MOL    H7946741   0.032   7.746   7.773  1.3523 -0.1910  0.1473
  232MOL    H8046742   0.100   7.592   0.013 -1.4296 -1.6432 -0.0790
  232MOL    H8146743   7.753   7.622   0.066  0.3822 -0.5897 -1.4823
  232MOL    C8246744   0.203   7.568   0.274 -0.1000 -0.0129 -0.0337
  232MOL    C8346745   0.153   7.428   0.247 -0.1160  1.1666 -0.0848
  232MOL    O8446746   0.260   7.370   0.172 -0.3945  0.3979 -0.3879
  232MOL    C8546747   0.218   7.263   0.090  0.8962  0.7734  0.4466
  232MOL    H8646748   0.272   7.566   0.358  0.4565 -0.3469 -0.4976
  232MOL    H8746749   0.266   7.610   0.195 -1.2054 -1.9379 -2.0140
  232MOL    H8846750   0.059   7.437   0.193 -1.2447  0.1394  1.6610
  232MOL    H8946751   0.261   7.269   7.801 -0.6173  0.7736 -0.2051
  232MOL    H9046752   0.255   7.171   0.136  2.0454 -0.3032 -2.5243
  232MOL    H9146753   0.110   7.251   0.082  1.0007 -0.6300  0.9118
  232MOL    C9246754   0.135   7.335   0.377 -0.0605  0.2189 -0.3323
  232MOL    C9346755   7.809   7.344   0.446  0.1326 -0.3233  0.0099
  232MOL    O9446756   7.801   7.475   0.500 -0.0072 -0.2522  0.0665
  232MOL    C9546757   7.730   7.491   0.615  0.2729 -0.1803  0.6597
  232MOL    H9646758   0.216   7.346   0.448 -1.2391 -2.5891  1.5286
  232MOL    H9746759   0.139   7.232   0.341  0.5792 -0.3162  1.2342
  232MOL    H9846760   0.014   7.278   0.531  0.1138 -3.2139 -2.1337
  232MOL    H9946761   7.624   7.513   0.606 -0.3085 -3.1176 -0.3761
  232MOL   H10046762   7.731   7.409   0.687 -0.5719 -0.5464  0.2652
  232MOL   H10146763   7.776   7.570   0.674 -0.5481  1.3401 -0.7195
  232MOL   C10246764   7.678   7.317   0.376  0.6152  0.2381 -0.0246
  232MOL   C10346765   7.584   7.219   0.443  0.0937  0.4747 -0.5375
  232MOL   O10446766   7.453   7.224   0.390 -0.2976  0.1357 -0.2031
  232MOL   C10546767   7.361   7.300   0.455 -0.1150 -0.3637  0.4035
  232MOL   H10646768   7.708   7.282   0.277  0.0643  0.6338 -0.3279
  232MOL   H10746769   7.631   7.413   0.355 -0.8244  0.0563  2.2137
  232MOL   H10846770   7.581   7.248   0.549 -1.7017 -0.0433 -0.4289
  232MOL   H10946771   7.266   7.309   0.403  0.0025  1.0334  0.4304
  232MOL   H11046772   7.339   7.255   0.553  0.1582 -2.0665 -0.2983
  232MOL   H11146773   7.394   7.401   0.477 -0.0850  0.2094 -2.1790
  232MOL   C11246774   7.622   7.070   0.434 -0.0428 -0.0005  0.2982
  232MOL   C11346775   7.609   7.005   0.289 -0.1443 -0.0577 -0.5360
  232MOL   O11446776   7.719   7.050   0.209 -0.4904  0.4279 -0.3317
  232MOL   C11546777   7.701   7.068   0.068 -0.2996 -0.2711 -0.4002
  232MOL   H11646778   7.564   7.016   0.509  1.0799 -0.6473  0.7221
  232MOL   H11746779   7.728   7.054   0.452 -0.2826 -1.1640  0.7378
  232MOL   H11846780   7.506   7.029   0.263 -0.9773 -0.7778  1.8870
  232MOL   H11946781   7.666   6.973   0.028 -2.1380  0.4622 -0.6039
  232MOL   H12046782   7.636   7.151   0.040 -0.3016  0.6378  2.1102
  232MOL   H12146783   7.799   7.077   0.023 -0.1110  2.8872  0.4905
  232MOL   C12246784   7.616   6.847   0.299 -0.1103 -0.6340 -0.0852
  232MOL   C12346785   7.485   6.779   0.325  0.5666 -0.9757  0.9586
  232MOL   O12446786   7.403   6.831   0.432 -0.6333 -0.4423  0.5754
  232MOL   C12546787   7.350   6.736   0.523  0.0674  0.0375  0.2867
  232MOL   H12646788   7.688   6.824   0.378  1.7874  1.8750 -1.0053
  232MOL   H12746789   7.651   6.798   0.208 -2.1690  0.3614 -1.4381
  232MOL   H12846790   7.500   6.675   0.353 -0.1408 -1.9581 -2.1438
  232MOL   H12946791   7.306   6.789   0.607  2.8421 -0.3693  2.0643
  232MOL   H13046792   7.260   6.686   0.486  0.9702 -0.1434 -1.7532
  232MOL   H13146793   7.427   6.671   0.563 -0.2685  0.0813  1.0031
  232MOL   C13246794   7.387   6.769   0.209  0.3417  0.1122  0.3640
  232MOL   C13346795   7.435   6.693   0.081 -0.1464  0.5316 -0.2729
  232MOL   O13446796   7.478   6.560   0.122  0.6231  0.3896 -0.0671
  232MOL   C13546797   7.576   6.499   0.034  0.1345 -0.7340 -0.5624
  232MOL   H13646798   7.346   6.867   0.186 -0.8879 -0.6379 -0.6948
  232MOL   H13746799   7.305   6.713   0.254  0.4769  0.7424  1.3985
  232MOL   H13846800   7.527   6.740   0.046  1.3204 -2.9094 -1.2944
  232MOL   H13946801   7.591   6.394   0.059  1.0473 -0.3053  0.8051
  232MOL   H14046802   7.564   6.506   7.737  0.3603  1.4472 -0.4698
  232MOL   H14146803   7.670   6.546   0.064  0.9999 -1.5671 -1.9489
  232MOL   C14246804   7.327   6.679   7.786  0.0008  0.1214 -0.0504
  232MOL   C14346805   7.298   6.809   7.706 -0.2548  0.8926 -1.0976
  232MOL   O14446806   7.339   6.773   7.571  0.0797 -0.0598  0.2741
  232MOL   C14546807   7.476   6.809   7.556 -0.1370  0.2835  0.2228
  232MOL   H14646808   7.234   6.648   0.023 -1.1160  2.4655 -0.6346
  232MOL   H14746809   7.357   6.597   7.720  0.2226  0.6031 -0.5519
  232MOL   H14846810   7.360   6.888   7.748  0.4028  0.1322 -0.6239
  232MOL   H14946811   7.516   6.800   7.455 -0.3149  1.7753  0.0039
  232MOL   H15046812   7.491   6.916   7.569 -0.2449  0.2581  0.5745
  232MOL   H15146813   7.542   6.756   7.624  3.0864  3.7907 -0.0101
  232MOL   C15246814   7.164   6.868   7.699  0.5053  0.2286 -0.1249
  232MOL   C15346815   7.123   6.930   0.024  0.3712  0.6994 -0.2436
  232MOL   O15446816   7.199   7.046   0.033 -0.1335 -0.0211  0.2317
  232MOL   C15546817   7.207   7.113   0.159  0.5025  0.1385  0.6140
  232MOL   H15646818   7.094   6.793   7.661 -0.6574  1.9116 -1.3983
  232MOL   H15746819   7.172   6.939   7.616  0.3160  2.2020  1.4984
  232MOL   H15846820   7.148   6.855   0.099  0.4642  0.8380 -0.1368
  232MOL   H15946821   7.282   7.192   0.153 -2.5937  3.3185  1.7129
  232MOL   H16046822   7.112   7.159   0.187  0.9660  1.1559  0.5356
  232MOL   H16146823   7.222   7.047   0.244 -1.3510 -2.2635 -0.8705
  232MOL   C16246824   6.974   6.960   0.031 -0.4164  0.3655 -0.2244
  232MOL   C16346825   6.895   7.002   7.716 -0.0470 -0.2210  0.0713
  232MOL   O16446826   6.759   6.972   7.745 -0.2286  0.4831 -0.2248
  232MOL   C16546827   6.683   6.952   7.632 -0.0524 -0.2777  0.1599
  232MOL   H16646828   6.957   7.026   0.116 -1.4459 -1.0294  0.6705
  232MOL   H16746829   6.924   6.866   0.054 -1.2000  0.4978 -1.3525
  232MOL   H16846830   6.925   6.962   7.619 -1.8191 -0.9298 -0.2155
  232MOL   H16946831   6.660   7.040   7.572 -5.0795 -1.7884 -0.3581
  232MOL   H17046832   6.723   6.872   7.570  0.2358  0.3058 -0.4141
  232MOL   H17146833   6.586   6.918   7.669 -0.2296  0.6290  0.5520
  232MOL   C17246834   6.894   7.160   7.699  0.0488 -0.2296 -0.4209
  232MOL   C17346835   7.019   7.219   7.627 -0.3015 -0.1209  0.7662
  232MOL   O17446836   7.025   7.236   7.483 -0.0272  0.1374 -0.0676
  232MOL   C17546837   7.073   7.129   7.416 -0.0329 -0.6043 -0.3150
  232MOL   H17646838   6.873   7.201   7.798  0.6088  0.9249 -0.7775
  232MOL   H17746839   6.806   7.190   7.644  0.3843 -0.0038 -0.8349
  232MOL   H17846840   7.111   7.165   7.650  1.2117  1.8927 -0.3871
  232MOL   H17946841   7.073   7.141   7.308 -1.2646 -1.1696 -0.3839
  232MOL   H18046842   7.178   7.113   7.441 -0.4404 -2.2879  0.4050
  232MOL   H18146843   7.014   7.039   7.434 -0.4726 -0.2564 -0.0123
  232MOL   C18246844   7.039   7.364   7.680 -0.5350  0.3576 -0.1599
  232MOL   C18346845   7.179   7.424   7.635  0.4883 -0.7323 -1.1076
  232MOL   O18446846   7.178   7.563   7.660  0.5212 -0.5328  0.1873
  232MOL   C18546847   7.125   7.633   7.546 -0.1326  0.4849  0.5135
  232MOL   H18646848   7.043   7.364   7.789 -2.6945 -0.2774 -0.0496
  232MOL   H18746849   6.955   7.430   7.657  0.9359  3.1850  2.1739
  232MOL   H18846850   7.191   7.402   7.529 -1.3859  1.4065 -1.7934
  232MOL   H18946851   7.101   7.736   7.571  1.1988  1.3120 -1.4611
  232MOL   H19046852   7.192   7.617   7.462 -0.9290 -1.2000  0.1765
  232MOL   H19146853   7.030   7.584   7.524  0.1403  0.0769  0.2601
  232MOL   C19246854   7.308   7.377   7.715  0.9852  0.1948 -0.4729
  232MOL   C19346855   7.431   7.398   7.628 -0.0423  0.3118  0.4372
  232MOL   O19446856   7.546   7.335   7.679  0.0032  0.4849  0.2973
  232MOL   C19546857   7.610   7.413   7.772  0.4125 -0.0519 -0.6282
  232MOL   H19646858   7.291   7.270   7.721  0.7383  0.1528 -1.7959
  232MOL   H19746859   7.310   7.425   0.002  2.1357  0.6369 -0.6989
  232MOL   H19846860   7.452   7.503   7.608 -1.4314  0.8271  1.6113
  232MOL   H19946861   7.699   7.368   0.005  0.1378 -1.0825 -1.1137
  232MOL   H20046862   7.657   7.501   7.727  1.0520 -0.1724 -0.1976
  232MOL   H20146863   7.548   7.440   0.047 -0.5706  1.0406 -1.6552
  232MOL   H20246864   7.408   7.367   7.526  1.0897 -1.0315  0.5788
  233MOL     C146865   6.264   2.222   2.443 -0.3559 -0.8667  0.4361
  233MOL     C246866   6.288   2.361   2.379  0.0581  0.4056  0.2219
  233MOL     O346867   6.175   2.382   2.289  0.0427 -0.2475 -0.1591
  233MOL     C446868   6.183   2.489   2.202 -0.0658  0.4019 -0.1275
  233MOL     H546869   6.257   2.145   2.367 -1.3645  0.2991 -0.6736
  233MOL     H646870   6.346   2.194   2.510 -0.7430  0.6926  1.5924
  233MOL     H746871   6.378   2.366   2.318 -0.7696  1.4883 -0.9119
  233MOL     H846872   6.096   2.484   2.137  0.7483 -1.1672 -1.1127
  233MOL     H946873   6.178   2.588   2.248 -3.4828 -0.4632  1.5192
  233MOL    H1046874   6.275   2.490   2.143  1.8972 -1.4645  2.7329
  233MOL    H1146875   6.177   2.223   2.509  0.4264  0.3638  1.4827
  233MOL    C1246876   6.306   2.482   2.482 -0.2456  0.4094  0.1541
  233MOL    C1346877   6.424   2.468   2.581  0.9100 -0.0840  0.0027
  233MOL    O1446878   6.543   2.502   2.504 -0.3025 -0.6139  0.5309
  233MOL    C1546879   6.655   2.434   2.558 -0.7906  0.9348 -0.2119
  233MOL    H1646880   6.216   2.505   2.539 -0.3195  2.8667 -0.8884
  233MOL    H1746881   6.310   2.577   2.428  0.4873  1.1098  1.4215
  233MOL    H1846882   6.418   2.368   2.624  1.0621  0.7327  1.9838
  233MOL    H1946883   6.648   2.326   2.546 -0.3344  0.8746  0.0754
  233MOL    H2046884   6.738   2.465   2.494 -0.2393  1.5662  0.8017
  233MOL    H2146885   6.678   2.460   2.661  0.7026  0.5474 -0.4388
  233MOL    C2246886   6.417   2.576   2.698  0.8994  0.2298  0.3096
  233MOL    C2346887   6.306   2.545   2.795  0.2126  0.3910  0.0902
  233MOL    O2446888   6.342   2.427   2.868  0.0418  0.1240 -0.1713
  233MOL    C2546889   6.239   2.339   2.916 -0.3996 -0.2032  0.7117
  233MOL    H2646890   6.403   2.673   2.650  2.4506  0.3093 -0.0192
  233MOL    H2746891   6.515   2.587   2.745  0.0843  1.1915  1.8138
  233MOL    H2846892   6.215   2.522   2.739  0.1294 -1.4221  0.9395
  233MOL    H2946893   6.175   2.392   2.986 -2.5642 -0.2535 -1.1442
  233MOL    H3046894   6.173   2.308   2.834  1.2169 -1.9999  0.0326
  233MOL    H3146895   6.281   2.246   2.954 -0.0836 -0.8664 -1.1949
  233MOL    C3246896   6.297   2.654   2.909  0.2182 -0.2667  0.9203
  233MOL    C3346897   6.266   2.799   2.872  0.6243  0.2956  0.5707
  233MOL    O3446898   6.143   2.798   2.812  0.4713 -0.2281  0.2073
  233MOL    C3546899   6.133   2.805   2.673 -0.7751 -0.0055 -0.1313
  233MOL    H3646900   6.387   2.639   2.969  0.8906  0.9509  0.2448
  233MOL    H3746901   6.212   2.623   2.969 -0.6347 -1.8518 -1.0380
  233MOL    H3846902   6.334   2.830   2.792 -1.3158  2.8350 -0.1825
  233MOL    H3946903   6.163   2.900   2.630 -3.9957  0.5241 -1.3922
  233MOL    H4046904   6.188   2.726   2.622  1.9878  2.4207 -1.0508
  233MOL    H4146905   6.027   2.797   2.646 -0.6703 -0.5689 -0.3986
  233MOL    C4246906   6.254   2.889   3.000 -0.8919 -0.4443  0.1599
  233MOL    C4346907   6.377   2.907   3.092  0.0975 -0.3510  0.2228
  233MOL    O4446908   6.487   2.968   3.020  0.2705 -0.3929 -0.1743
  233MOL    C4546909   6.599   2.886   2.988 -0.1462 -1.0805  0.5764
  233MOL    H4646910   6.165   2.845   3.045  0.2608 -1.3867  1.5094
  233MOL    H4746911   6.213   2.986   2.972 -2.6751 -0.8218  1.3723
  233MOL    H4846912   6.387   2.808   3.136  1.3564 -0.6706 -0.7632
  233MOL    H4946913   6.557   2.812   2.920  2.2139  1.0329 -3.3149
  233MOL    H5046914   6.673   2.953   2.945 -1.7271  0.6045  0.4003
  233MOL    H5146915   6.638   2.838   3.077 -2.8564 -3.7544  0.3953
  233MOL    C5246916   6.341   3.009   3.208  0.5539  0.6094  0.2148
  233MOL    C5346917   6.461   3.036   3.298 -0.2436  0.4739  0.0365
  233MOL    O5446918   6.427   3.145   3.381 -0.0213 -0.1478 -0.6097
  233MOL    C5546919   6.460   3.271   3.329  1.1515  0.3697  0.4836
  233MOL    H5646920   6.261   2.966   3.269 -0.9134  0.8144 -1.5471
  233MOL    H5746921   6.305   3.104   3.167  0.5868  0.4447 -0.1967
  233MOL    H5846922   6.546   3.059   3.235 -0.9418  2.1047 -0.3528
  233MOL    H5946923   6.426   3.340   3.407  0.9676  0.9962 -0.1461
  233MOL    H6046924   6.569   3.281   3.320  0.8174  2.2523 -2.1282
  233MOL    H6146925   6.427   3.292   3.227  0.2000  0.9749  0.9152
  233MOL    C6246926   6.508   2.921   3.387 -0.1535  0.6503  0.3272
  233MOL    C6346927   6.636   2.946   3.477  0.2323  0.1002 -0.1203
  233MOL    O6446928   6.645   2.835   3.559 -0.4180  0.0620 -0.2713
  233MOL    C6546929   6.636   2.857   3.698  0.3271 -0.3902 -0.5014
  233MOL    H6646930   6.536   2.836   3.324  0.6370 -0.0351  1.5897
  233MOL    H6746931   6.422   2.887   3.446  1.9632 -0.7492  2.6827
  233MOL    H6846932   6.632   3.028   3.548  0.6977  1.0130 -1.1250
  233MOL    H6946933   6.662   2.769   3.757 -1.8835 -0.0122  1.0634
  233MOL    H7046934   6.698   2.943   3.725  0.6848 -0.4255 -1.1998
  233MOL    H7146935   6.536   2.878   3.735  1.1698  1.8908  0.5931
  233MOL    C7246936   6.765   2.950   3.391  0.5062 -0.8010  0.6694
  233MOL    C7346937   6.898   2.959   3.459  0.1066  0.1705 -0.0063
  233MOL    O7446938   6.992   2.915   3.362 -0.0060  0.0656 -0.2729
  233MOL    C7546939   6.996   2.773   3.339 -0.2996  0.3857  0.5371
  233MOL    H7646940   6.749   3.026   3.314  0.0858  0.8609  2.3498
  233MOL    H7746941   6.760   2.858   3.332 -1.2893 -2.2115  2.9246
  233MOL    H7846942   6.893   2.883   3.537 -3.2695  0.4966  0.1606
  233MOL    H7946943   7.024   2.708   3.422  0.6257 -2.5405 -1.9702
  233MOL    H8046944   6.900   2.731   3.308  0.1490 -0.2905  0.0546
  233MOL    H8146945   7.063   2.745   3.257 -0.9735  0.7710 -0.1508
  233MOL    C8246946   6.934   3.105   3.510  0.5109  0.7460 -0.0595
  233MOL    C8346947   7.083   3.125   3.558  0.2220  0.0399  0.0781
  233MOL    O8446948   7.108   3.256   3.512 -0.7958  0.2785 -0.8538
  233MOL    C8546949   7.236   3.273   3.445 -0.2547 -0.4591 -0.6715
  233MOL    H8646950   6.860   3.139   3.583  1.7475  0.2737  1.4478
  233MOL    H8746951   6.911   3.170   3.426 -2.0694  0.4221  0.3359
  233MOL    H8846952   7.143   3.050   3.507 -0.5589  0.2973 -1.2377
  233MOL    H8946953   7.228   3.375   3.407  1.4585  0.1360  0.5199
  233MOL    H9046954   7.316   3.258   3.517 -0.7018 -0.2125 -0.1217
  233MOL    H9146955   7.252   3.213   3.355  1.4563  0.0859 -0.7522
  233MOL    C9246956   7.096   3.119   3.711 -0.0587  0.5541 -0.0130
  233MOL    C9346957   7.049   2.989   3.776 -0.0507 -0.3171 -0.5635
  233MOL    O9446958   7.142   2.892   3.732  0.2532 -0.6843 -0.0834
  233MOL    C9546959   7.101   2.758   3.721  0.2292 -0.0012 -0.0139
  233MOL    H9646960   7.051   3.210   3.750  0.4730 -0.3500  2.8683
  233MOL    H9746961   7.202   3.126   3.735 -0.2057  0.3182  0.7282
  233MOL    H9846962   6.944   2.967   3.755  0.1290 -0.5172 -1.2900
  233MOL    H9946963   7.067   2.723   3.818 -1.6242  1.4992 -0.0922
  233MOL   H10046964   7.019   2.748   3.649  1.2151 -0.0140 -1.1559
  233MOL   H10146965   7.184   2.699   3.683  1.0544  0.1412  1.5383
  233MOL   C10246966   7.058   2.996   3.929  0.3686  0.2413 -0.0058
  233MOL   C10346967   6.974   3.112   4.000 -0.3846 -0.0265 -0.0919
  233MOL   O10446968   6.835   3.077   3.973 -0.2164  0.2966  0.0312
  233MOL   C10546969   6.749   3.195   3.979 -0.5866 -0.9346 -0.3382
  233MOL   H10646970   7.164   3.003   3.955  0.7713  0.6361 -1.6594
  233MOL   H10746971   7.023   2.900   3.967 -0.5057  0.5195 -0.1146
  233MOL   H10846972   6.994   3.208   3.952 -0.2056 -0.3532 -0.6808
  233MOL   H10946973   6.655   3.163   3.933  0.6280 -2.2741 -1.9628
  233MOL   H11046974   6.723   3.211   4.083 -0.2248 -1.8249 -0.1080
  233MOL   H11146975   6.781   3.290   3.937 -1.4080 -0.3310  0.3673
  233MOL   C11246976   7.008   3.110   4.154  0.2501  0.1615 -0.6495
  233MOL   C11346977   7.133   3.185   4.198 -0.2123 -0.4487  0.7062
  233MOL   O11446978   7.126   3.322   4.162  0.1550 -0.3954  0.0971
  233MOL   C11546979   7.245   3.393   4.145  0.1805 -0.0897  0.6247
  233MOL   H11646980   7.010   3.008   4.190 -2.9062  0.8853  1.7126
  233MOL   H11746981   6.926   3.155   4.209 -0.3018  0.8371 -1.9762
  233MOL   H11846982   7.227   3.155   4.153  2.3964  2.2187  4.1022
  233MOL   H11946983   7.304   3.331   4.078 -0.5684  1.3280 -1.3764
  233MOL   H12046984   7.243   3.492   4.099 -1.1588 -0.7113 -0.6978
  233MOL   H12146985   7.307   3.402   4.234  1.1061 -4.5335  0.5578
  233MOL   C12246986   7.166   3.155   4.343  0.3261  0.2210  0.1387
  233MOL   C12346987   7.210   3.010   4.378 -0.0892 -0.3452  0.3172
  233MOL   O12446988   7.326   2.984   4.314 -0.2240 -0.0424 -0.6205
  233MOL   C12546989   7.322   2.882   4.225  0.1492  0.1433 -0.0607
  233MOL   H12646990   7.086   3.191   4.408  2.7030  1.7363  2.3279
  233MOL   H12746991   7.248   3.218   4.377  2.0420 -2.2851  0.6931
  233MOL   H12846992   7.126   2.945   4.354 -0.6418  1.4530 -2.8195
  233MOL   H12946993   7.306   2.792   4.285 -0.3091  0.1570 -0.1629
  233MOL   H13046994   7.232   2.897   4.166 -0.4796 -0.7075  0.6694
  233MOL   H13146995   7.412   2.861   4.167 -0.7785 -0.2547 -1.3741
  233MOL   C13246996   7.253   2.998   4.533  0.1008  0.3409  0.6713
  233MOL   C13346997   7.312   2.856   4.583 -0.2608 -0.1729 -0.5627
  233MOL   O13446998   7.339   2.880   4.722  0.1665  0.4605 -0.0012
  233MOL   C13546999   7.465   2.941   4.756 -0.2449  0.0040  0.1386
  233MOL   H13647000   7.165   3.022   4.592 -1.2697  1.0738 -1.5818
  233MOL   H13747001   7.324   3.081   4.546 -1.2719  1.3267  2.0573
  233MOL   H13847002   7.395   2.821   4.522  2.0375  3.1331  0.4890
  233MOL   H13947003   7.477   3.031   4.697 -2.2303  1.2447  1.5821
  233MOL   H14047004   7.481   2.957   4.863  2.2385 -1.3493  0.0216
  233MOL   H14147005   7.540   2.866   4.729 -0.0015  0.9945 -2.0044
  233MOL   C14247006   7.209   2.745   4.607 -0.5675  0.0487  0.4984
  233MOL   C14347007   7.260   2.606   4.603 -0.8152 -0.1353 -0.2077
  233MOL   O14447008   7.153   2.513   4.644 -0.7827 -0.0498  0.4010
  233MOL   C14547009   7.162   2.488   4.785  0.5345 -0.1484 -0.3166
  233MOL   H14647010   7.142   2.745   4.522  0.2901 -2.7707 -0.2152
  233MOL   H14747011   7.151   2.771   4.696  1.2566  2.6157  1.0196
  233MOL   H14847012   7.353   2.590   4.659 -0.6637 -1.5041 -0.8288
  233MOL   H14947013   7.073   2.425   4.792  0.6753 -0.2084  1.0668
  233MOL   H15047014   7.250   2.427   4.807  0.5619 -0.0240 -0.0836
  233MOL   H15147015   7.151   2.578   4.846  1.0859  1.4988 -2.5763
  233MOL   C15247016   7.312   2.553   4.462 -0.4215 -0.6431  0.0902
  233MOL   C15347017   7.368   2.409   4.457  0.2593 -0.0408 -0.4087
  233MOL   O15447018   7.376   2.373   4.317 -0.2377  0.0224  0.1642
  233MOL   C15547019   7.265   2.294   4.281 -0.1065  0.6916 -0.6140
  233MOL   H15647020   7.382   2.621   4.413 -3.1911  2.4673  0.2287
  233MOL   H15747021   7.222   2.556   4.400 -1.6569  0.5338  1.8718
  233MOL   H15847022   7.309   2.337   4.513  0.0158 -1.3538 -2.2666
  233MOL   H15947023   7.277   2.289   4.173 -0.4272  2.0882 -0.7212
  233MOL   H16047024   7.270   2.195   4.326 -1.4899  2.4082  3.6082
  233MOL   H16147025   7.173   2.351   4.290 -1.0056 -0.5267 -1.9761
  233MOL   C16247026   7.514   2.398   4.506 -0.1123 -0.5470  0.3325
  233MOL   C16347027   7.559   2.248   4.506 -0.3055  0.4471  0.4586
  233MOL   O16447028   7.695   2.242   4.512  0.3304 -0.5176  0.3045
  233MOL   C16547029   7.765   2.233   4.385  0.5059  0.0366  0.1421
  233MOL   H16647030   7.512   2.437   4.608 -0.5978  0.0770  0.0835
  233MOL   H16747031   7.578   2.470   4.455 -0.8446 -0.7079 -0.8264
  233MOL   H16847032   7.523   2.190   4.420 -1.3340  0.4627  0.8721
  233MOL   H16947033   7.712   2.164   4.320 -2.8971  1.9143  0.7821
  233MOL   H17047034   7.776   2.326   4.329  3.3186 -0.1490  0.3171
  233MOL   H17147035   0.057   2.198   4.387  0.9046  1.1359 -0.5245
  233MOL   C17247036   7.502   2.174   4.626  0.5567  0.3554 -0.5131
  233MOL   C17347037   7.545   2.024   4.647  0.0965 -0.6157 -0.3089
  233MOL   O17447038   7.507   1.973   4.772 -0.7605  0.0457 -0.4769
  233MOL   C17547039   7.584   2.014   4.887  0.2865 -0.5454 -0.2398
  233MOL   H17647040   7.393   2.174   4.628  0.5562  1.7679 -0.2400
  233MOL   H17747041   7.540   2.229   4.713 -0.8222 -3.2473  2.5358
  233MOL   H17847042   7.654   2.022   4.641  0.1465  2.1164 -1.0272
  233MOL   H17947043   7.555   1.964   4.980 -0.6280 -0.8971 -0.7101
  233MOL   H18047044   7.690   1.989   4.881  0.4108 -0.8291  2.4977
  233MOL   H18147045   7.573   2.120   4.908 -0.4830 -0.4829 -0.9263
  233MOL   C18247046   7.492   1.921   4.543 -0.1050  0.4605  0.1414
  233MOL   C18347047   7.584   1.797   4.525  0.6918  0.0439 -0.0053
  233MOL   O18447048   7.716   1.829   4.480 -0.7181  0.3659 -0.0182
  233MOL   C18547049   7.724   1.864   4.342 -0.2078 -0.1199  0.5469
  233MOL   H18647050   7.481   1.967   4.444 -0.7079  0.9477  0.4243
  233MOL   H18747051   7.398   1.883   4.583 -0.2326  0.5759 -0.0478
  233MOL   H18847052   7.544   1.738   4.442  1.5412  2.2231 -2.0205
  233MOL   H18947053   7.703   1.778   4.280 -0.4498  0.5282 -0.2742
  233MOL   H19047054   7.663   1.950   4.313  0.4355 -0.8010 -2.9195
  233MOL   H19147055   0.016   1.886   4.314 -0.8936  0.3579 -1.7190
  233MOL   C19247056   7.600   1.705   4.641  0.0150  0.3143 -0.3595
  233MOL   C19347057   7.481   1.641   4.699  0.2968 -0.1681  0.3185
  233MOL   O19447058   7.520   1.560   4.812  0.5565  0.2805 -0.3642
  233MOL   C19547059   7.406   1.540   4.904  0.4720 -0.5476 -0.0711
  233MOL   H19647060   7.640   1.760   4.727 -1.4024 -1.5536  1.5526
  233MOL   H19747061   7.667   1.625   4.608 -3.4043 -0.8968 -4.7765
  233MOL   H19847062   7.420   1.584   4.629  0.4681 -0.0082  0.0370
  233MOL   H19947063   7.322   1.503   4.845  1.5744 -1.3764 -1.1768
  233MOL   H20047064   7.435   1.462   4.974  2.0703  1.1104  1.1572
  233MOL   H20147065   7.391   1.632   4.960 -0.1454 -1.7892  1.8341
  233MOL   H20247066   7.418   1.723   4.734  1.8794  1.0598  0.3073
  234MOL     C147067   0.049   0.455   0.865  0.1801  0.0092  0.1783
  234MOL     C247068   0.091   0.567   0.965 -0.0347  0.0222  1.1144
  234MOL     O347069   0.000   0.553   1.074 -0.2950  0.4291  0.0982
  234MOL     C447070   7.682   0.618   1.061 -0.0163 -0.1790 -0.0509
  234MOL     H547071   0.112   0.452   0.776  0.6594 -0.9813  0.5363
  234MOL     H647072   0.071   0.364   0.921 -1.6843 -1.6904 -1.7755
  234MOL     H747073   0.086   0.665   0.917  0.7783 -0.6768 -0.4332
  234MOL     H847074   7.613   0.583   0.985 -0.8584  0.7663  0.2574
  234MOL     H947075   7.644   0.603   1.162  3.1783 -1.3025  1.0549
  234MOL    H1047076   7.701   0.725   1.047  0.9208  0.1972  3.5418
  234MOL    H1147077   7.753   0.466   0.843 -0.0814 -0.4683  1.1695
  234MOL    C1247078   0.236   0.531   1.011 -0.5703  0.0208 -0.3624
  234MOL    C1347079   0.306   0.615   1.121 -0.7130 -0.0783 -0.2901
  234MOL    O1447080   0.435   0.573   1.151 -0.5820 -0.1135 -0.2385
  234MOL    C1547081   0.447   0.465   1.252  0.6726 -0.3334 -0.6343
  234MOL    H1647082   0.300   0.541   0.923  1.2242  0.2077  0.9274
  234MOL    H1747083   0.236   0.433   1.057  1.3625  0.8896  1.5881
  234MOL    H1847084   0.243   0.612   1.210 -0.3492 -1.4490 -0.0649
  234MOL    H1947085   0.551   0.433   1.251  0.7287 -0.2150  0.5300
  234MOL    H2047086   0.424   0.504   1.351  1.1039  0.0048 -0.6666
  234MOL    H2147087   0.402   0.369   1.226 -0.4299  0.4199 -1.5588
  234MOL    C2247088   0.316   0.766   1.080 -0.0331 -0.2540  0.3869
  234MOL    C2347089   0.340   0.855   1.205 -0.3943 -0.3327 -0.3680
  234MOL    O2447090   0.248   0.835   1.315 -0.1561  0.1746 -0.3594
  234MOL    C2547091   0.106   0.855   1.290  0.2994  0.2462 -0.2835
  234MOL    H2647092   0.223   0.797   1.032  0.1863 -0.3850 -0.1291
  234MOL    H2747093   0.395   0.778   1.007  0.0768 -0.7809  0.4138
  234MOL    H2847094   0.336   0.957   1.168  1.8145 -0.2127 -0.3645
  234MOL    H2947095   0.051   0.867   1.383  1.2468  0.2151  0.2845
  234MOL    H3047096   0.093   0.946   1.231  0.8281 -0.3940 -1.4229
  234MOL    H3147097   0.074   0.768   1.233 -0.3029  0.3217 -0.0643
  234MOL    C3247098   0.488   0.838   1.255 -0.3054  0.3024 -0.0374
  234MOL    C3347099   0.529   0.955   1.349 -0.6638  0.3136  0.4256
  234MOL    O3447100   0.660   0.935   1.391  0.2470  0.0987  0.0738
  234MOL    C3547101   0.680   0.842   1.492  0.0338 -0.7371  0.0060
  234MOL    H3647102   0.559   0.835   1.172 -1.6800  0.0706 -1.2230
  234MOL    H3747103   0.513   0.744   1.305 -0.6345 -0.2292 -0.8568
  234MOL    H3847104   0.461   0.964   1.434 -0.4925  0.5099  0.5432
  234MOL    H3947105   0.603   0.853   1.568  2.2585 -1.9844  2.5249
  234MOL    H4047106   0.672   0.745   1.443 -0.3566 -1.0509  0.6882
  234MOL    H4147107   0.776   0.857   1.541 -0.2801  0.1865  0.3595
  234MOL    C4247108   0.524   1.090   1.279  0.0994 -0.4175  0.0607
  234MOL    C4347109   0.611   1.206   1.341  0.3412 -0.1138  0.7385
  234MOL    O4447110   0.567   1.324   1.281 -0.3502 -0.1543  0.4981
  234MOL    C4547111   0.666   1.419   1.246  0.0660 -0.9085  0.4372
  234MOL    H4647112   0.422   1.122   1.260  0.7481  3.1546  2.1583
  234MOL    H4747113   0.544   1.076   1.173  3.2496 -0.8118  0.6552
  234MOL    H4847114   0.715   1.177   1.321  1.2593  2.0218  2.2083
  234MOL    H4947115   0.726   1.446   1.332 -0.9862 -2.3215  1.6366
  234MOL    H5047116   0.721   1.350   1.182 -1.3542 -1.4692 -0.2051
  234MOL    H5147117   0.638   1.508   1.190  3.5003 -1.0404 -1.6410
  234MOL    C5247118   0.587   1.218   1.490  0.1653  0.3010 -0.7257
  234MOL    C5347119   0.704   1.274   1.571  0.3668 -0.4106 -0.6169
  234MOL    O5447120   0.694   1.251   1.704 -0.5376  0.3205 -0.4102
  234MOL    C5547121   0.615   1.352   1.762  0.2541  0.4793 -0.2725
  234MOL    H5647122   0.573   1.123   1.543 -0.6724  1.3068  0.9159
  234MOL    H5747123   0.498   1.278   1.512 -0.2536 -0.8951  1.0053
  234MOL    H5847124   0.714   1.375   1.530 -1.5895 -0.3100 -0.8992
  234MOL    H5947125   0.515   1.355   1.719 -1.0878 -1.1705  2.5760
  234MOL    H6047126   0.603   1.337   1.869 -0.1524  0.0504 -0.3760
  234MOL    H6147127   0.655   1.454   1.755  2.7339 -0.4560 -0.1046
  234MOL    C6247128   0.839   1.202   1.534  0.3969 -0.1795 -0.2754
  234MOL    C6347129   0.947   1.234   1.642  0.1570  0.3027 -0.0647
  234MOL    O6447130   1.073   1.173   1.618 -0.7255  0.3218  0.5842
  234MOL    C6547131   1.095   1.040   1.645  0.0269  0.4066  0.0203
  234MOL    H6647132   0.881   1.236   1.440 -2.0384 -1.0835 -1.7482
  234MOL    H6747133   0.830   1.093   1.531  0.3487 -0.2062  0.5819
  234MOL    H6847134   0.909   1.201   1.738 -0.4712  0.9304 -0.0941
  234MOL    H6947135   1.037   0.974   1.580  0.1643  0.8487 -0.5446
  234MOL    H7047136   1.200   1.011   1.638 -0.8571 -2.9581 -0.4342
  234MOL    H7147137   1.071   1.025   1.751  1.9978  1.4461  0.6192
  234MOL    C7247138   0.980   1.389   1.640  0.0867  0.0848 -0.7822
  234MOL    C7347139   1.056   1.438   1.767  0.2313  0.0976  0.6345
  234MOL    O7447140   1.110   1.568   1.754 -0.0995 -0.0409  0.4075
  234MOL    C7547141   1.232   1.579   1.687  0.8889 -0.2081 -0.1546
  234MOL    H7647142   0.893   1.454   1.634  0.1285  0.1104 -1.1206
  234MOL    H7747143   1.036   1.412   1.550  0.9530 -2.9274 -1.0598
  234MOL    H7847144   1.138   1.371   1.795  1.1047 -0.0976 -2.2166
  234MOL    H7947145   1.268   1.678   1.716  2.5559 -1.0162  0.5727
  234MOL    H8047146   1.315   1.513   1.713  0.5409  1.0458  4.4152
  234MOL    H8147147   1.224   1.585   1.578 -3.3216 -2.2711 -0.0440
  234MOL    C8247148   0.972   1.455   1.891 -0.2741  0.0094  0.2746
  234MOL    C8347149   1.051   1.483   2.017  0.6870  0.0453 -0.1643
  234MOL    O8447150   0.997   1.598   2.085  0.0188  0.1892 -0.3389
  234MOL    C8547151   1.016   1.725   2.033 -0.6148  0.5534  0.2331
  234MOL    H8647152   0.918   1.362   1.909 -0.1970 -0.0910  0.0034
  234MOL    H8747153   0.893   1.529   1.885 -1.6143 -1.5493 -2.3999
  234MOL    H8847154   1.155   1.495   1.984  0.0073  0.8845 -2.1188
  234MOL    H8947155   0.977   1.732   1.931 -1.1106  1.4323  0.4789
  234MOL    H9047156   0.956   1.789   2.098  0.4478 -0.4468  2.2177
  234MOL    H9147157   1.122   1.749   2.042 -0.5797 -0.5712  3.3733
  234MOL    C9247158   1.034   1.368   2.125 -0.4247  0.1812 -0.3645
  234MOL    C9347159   1.124   1.376   2.250 -1.0113 -0.1308 -0.1778
  234MOL    O9447160   1.044   1.337   2.354  0.3730  0.5723 -0.5237
  234MOL    C9547161   0.991   1.443   2.424 -0.1598 -0.8990 -0.6022
  234MOL    H9647162   1.045   1.281   2.061  1.1193 -0.6504  0.9883
  234MOL    H9747163   0.927   1.363   2.146 -0.4801 -2.4059 -1.0992
  234MOL    H9847164   1.159   1.479   2.257  1.1243 -0.7043 -1.7618
  234MOL    H9947165   0.882   1.443   2.428 -0.1458 -0.2925 -0.1391
  234MOL   H10047166   1.040   1.434   2.521 -1.5638 -0.6417  0.1449
  234MOL   H10147167   1.010   1.544   2.387  1.3824  0.0467  2.5842
  234MOL   C10247168   1.239   1.282   2.218  0.9493 -0.4957 -0.4512
  234MOL   C10347169   1.341   1.269   2.331 -0.5674 -0.1908 -0.7318
  234MOL   O10447170   1.459   1.193   2.295  0.1546 -0.0209 -0.2962
  234MOL   C10547171   1.437   1.051   2.284  0.5997  0.2295 -0.3574
  234MOL   H10647172   1.289   1.323   2.130 -1.3503 -2.4583 -2.7744
  234MOL   H10747173   1.202   1.185   2.183  1.4912  0.2183 -3.1352
  234MOL   H10847174   1.285   1.213   2.406 -1.6290  1.9255  0.0891
  234MOL   H10947175   1.387   1.007   2.370 -1.1294  2.6243 -0.1051
  234MOL   H11047176   1.372   1.022   2.201  1.2789 -1.1161 -0.4281
  234MOL   H11147177   1.537   1.009   2.269 -0.3208 -2.1096 -0.1357
  234MOL   C11247178   1.374   1.399   2.401  0.3676  0.2346 -0.3385
  234MOL   C11347179   1.501   1.384   2.503  0.9217 -0.0775  0.5417
  234MOL   O11447180   1.535   1.514   2.549 -0.2406  0.1981  0.7153
  234MOL   C11547181   1.631   1.584   2.478  0.4707 -0.1497  0.1798
  234MOL   H11647182   1.285   1.428   2.456  0.3581 -1.0447  0.3347
  234MOL   H11747183   1.407   1.467   2.322  1.2414  1.0868  0.7420
  234MOL   H11847184   1.587   1.344   2.449  0.0072 -1.0883 -0.1710
  234MOL   H11947185   1.606   1.580   2.372  1.0861  1.6183 -0.0456
  234MOL   H12047186   1.626   1.688   2.508 -0.3835  0.2343 -1.2212
  234MOL   H12147187   1.729   1.538   2.491  0.0633 -0.3924  2.5101
  234MOL   C12247188   1.456   1.309   2.629  0.3651 -0.1326 -0.4268
  234MOL   C12347189   1.563   1.312   2.740  0.1959  0.6460  0.5741
  234MOL   O12447190   1.521   1.248   2.859 -0.2586 -0.0890  0.2664
  234MOL   C12547191   1.450   1.330   2.951  0.3364 -0.3174 -0.0842
  234MOL   H12647192   1.437   1.204   2.608  0.9006 -0.1533 -0.8183
  234MOL   H12747193   1.367   1.346   2.681  1.0220 -0.5895  1.0374
  234MOL   H12847194   1.580   1.416   2.767  0.6872  0.8890 -0.6653
  234MOL   H12947195   1.509   1.415   2.986 -0.0440 -0.3877  0.7376
  234MOL   H13047196   1.350   1.360   2.921  0.5455  2.1235  1.5636
  234MOL   H13147197   1.433   1.265   3.036  0.3410  0.3968  0.4670
  234MOL   C13247198   1.683   1.238   2.688 -0.0792  0.0152  0.7026
  234MOL   C13347199   1.805   1.244   2.774 -0.8247  1.0491 -0.4326
  234MOL   O13447200   1.904   1.179   2.704  0.2058 -0.2420  0.1965
  234MOL   C13547201   1.995   1.118   2.797 -0.5632 -0.4427  0.2562
  234MOL   H13647202   1.716   1.278   2.592  1.1227  0.0557  1.1205
  234MOL   H13747203   1.657   1.133   2.673  1.5098 -0.5326  1.7069
  234MOL   H13847204   1.789   1.209   2.876  1.9699  1.7207  0.2855
  234MOL   H13947205   2.080   1.072   2.747 -0.1203 -0.0950  0.6804
  234MOL   H14047206   2.041   1.197   2.857  0.4276 -1.1792  0.4844
  234MOL   H14147207   1.941   1.048   2.861 -1.5608  0.2790  0.2197
  234MOL   C14247208   1.859   1.389   2.782 -0.0191 -0.7533  0.1556
  234MOL   C14347209   1.813   1.459   2.917 -0.0503 -0.8498 -0.1670
  234MOL   O14447210   1.892   1.399   3.020  0.5852 -0.2894  0.5491
  234MOL   C14547211   1.825   1.414   3.152  0.2474 -0.0956 -0.6597
  234MOL   H14647212   1.830   1.447   2.694 -3.4470 -0.7155  1.2235
  234MOL   H14747213   1.966   1.398   2.768  0.0469 -3.5049 -1.3752
  234MOL   H14847214   1.711   1.433   2.944 -1.1743  1.4203 -2.0291
  234MOL   H14947215   1.832   1.520   3.179  0.4922 -0.4222  0.5553
  234MOL   H15047216   1.725   1.371   3.152 -0.2933  1.1062  1.0853
  234MOL   H15147217   1.883   1.367   3.231  1.1187  2.9896  0.6424
  234MOL   C15247218   1.850   1.606   2.919  0.2104  0.2917  0.2767
  234MOL   C15347219   1.757   1.694   2.833  0.3041 -0.4236 -0.0988
  234MOL   O15447220   1.639   1.711   2.917  0.3503 -0.1698 -0.0914
  234MOL   C15547221   1.515   1.736   2.849  0.2788 -0.4566 -0.2579
  234MOL   H15647222   1.953   1.610   2.883  0.2649 -2.8374 -0.0832
  234MOL   H15747223   1.850   1.642   3.022 -3.3006  2.1377 -0.2884
  234MOL   H15847224   1.732   1.644   2.739 -0.4997 -3.0690  1.4599
  234MOL   H15947225   1.512   1.835   2.803 -1.3463 -0.4290 -0.1352
  234MOL   H16047226   1.480   1.660   2.780 -1.0998  0.3253 -0.4578
  234MOL   H16147227   1.444   1.738   2.932  0.4277  0.3337 -0.1441
  234MOL   C16247228   1.804   1.832   2.791  0.0982 -0.1994 -0.2304
  234MOL   C16347229   1.941   1.840   2.727  0.9199  0.0849  0.0952
  234MOL   O16447230   1.945   1.769   2.598  0.6416 -0.8603 -0.2864
  234MOL   C16547231   2.073   1.711   2.581  0.0903 -0.2812 -0.4817
  234MOL   H16647232   1.816   1.893   2.881  0.0835 -0.3855 -0.1009
  234MOL   H16747233   1.724   1.881   2.736 -0.6733  0.4327  1.4111
  234MOL   H16847234   2.011   1.792   2.795  1.0839 -2.5354 -1.8814
  234MOL   H16947235   2.153   1.784   2.566 -0.4206 -0.0311 -1.9769
  234MOL   H17047236   2.098   1.646   2.665  0.3810  2.7572  1.8680
  234MOL   H17147237   2.059   1.650   2.493  1.6164  0.6781 -1.4086
  234MOL   C17247238   1.982   1.986   2.700  0.3135  0.1497 -0.0247
  234MOL   C17347239   2.139   2.026   2.685  0.3734  0.1524  0.4517
  234MOL   O17447240   2.154   2.167   2.680  0.2882 -0.6124  0.4588
  234MOL   C17547241   2.203   2.227   2.561  0.2443  0.0287  0.0641
  234MOL   H17647242   1.935   2.045   2.779  0.8454  0.8821 -0.2579
  234MOL   H17747243   1.927   2.026   2.615 -2.8125  0.2003  1.9162
  234MOL   H17847244   2.167   1.997   2.584 -0.4018  1.3343 -0.1144
  234MOL   H17947245   2.185   2.334   2.551  1.2882  0.3491  1.3370
  234MOL   H18047246   2.309   2.202   2.555  0.7044  1.4131  1.8822
  234MOL   H18147247   2.159   2.182   2.472 -1.3291  1.8476 -0.1149
  234MOL   C18247248   2.238   1.960   2.788  1.1191 -0.3130  0.7804
  234MOL   C18347249   2.382   1.990   2.763 -0.1742  0.1811  1.1229
  234MOL   O18447250   2.446   1.930   2.874  0.1193  0.4752 -0.4223
  234MOL   C18547251   2.499   2.015   2.974  0.1483 -0.1452 -0.3097
  234MOL   H18647252   2.215   1.856   2.809 -1.0327 -0.1644 -0.6347
  234MOL   H18747253   2.207   2.016   2.876 -0.5472  2.5969 -1.5502
  234MOL   H18847254   2.405   2.097   2.755  1.2684 -0.1851  0.2081
  234MOL   H18947255   2.570   2.087   2.933  1.4548 -1.5592 -0.5741
  234MOL   H19047256   2.418   2.075   3.015  2.0460  0.9952  1.8824
  234MOL   H19147257   2.549   1.955   3.050  1.6483  1.4443  0.0033
  234MOL   C19247258   2.446   1.927   2.633  0.4471  0.0232 -0.1728
  234MOL   C19347259   2.465   1.772   2.631  0.1371 -0.0098 -1.0442
  234MOL   O19447260   2.502   1.718   2.505  0.6883 -0.6239  0.0026
  234MOL   C19547261   2.631   1.777   2.473  0.4339  1.0090 -0.3047
  234MOL   H19647262   2.540   1.977   2.610 -0.4927  1.7313 -0.4384
  234MOL   H19747263   2.386   1.955   2.546 -0.8491  3.5849  1.7581
  234MOL   H19847264   2.372   1.718   2.650 -0.6558  1.4829 -0.5672
  234MOL   H19947265   2.619   1.866   2.412  0.6465  1.3855  0.1986
  234MOL   H20047266   2.701   1.795   2.555 -0.3573  1.4189  0.2813
  234MOL   H20147267   2.679   1.717   2.396 -0.6118 -0.7291  0.3658
  234MOL   H20247268   2.543   1.757   2.706 -1.3314 -1.3565  0.2485
  235MOL     C147269   6.991   1.059   5.793 -0.3676  0.7014  0.9088
  235MOL     C247270   7.049   1.191   5.753 -0.3837 -0.5672 -0.3626
  235MOL     O347271   7.155   1.168   5.664  0.4778 -0.7934 -0.1622
  235MOL     C447272   7.277   1.133   5.722  0.3503 -0.4715 -0.5966
  235MOL     H547273   7.055   1.012   5.868  1.1650 -0.0558 -0.8307
  235MOL     H647274   6.884   1.053   5.812 -0.4131 -0.5700  0.3159
  235MOL     H747275   7.076   1.243   5.845 -1.6616 -1.1152  0.3382
  235MOL     H847276   7.321   1.226   5.758  0.8711 -0.7548 -0.5024
  235MOL     H947277   7.262   1.069   5.808  3.0682  0.5062  0.6832
  235MOL    H1047278   7.352   1.092   5.654  0.5641  0.2828 -0.8222
  235MOL    H1147279   7.001   0.987   5.712 -1.4991  1.9304 -0.3463
  235MOL    C1247280   6.952   1.289   5.685  0.2563  0.3582  0.4792
  235MOL    C1347281   6.845   1.340   5.788  0.2023  0.4020  1.1279
  235MOL    O1447282   6.920   1.434   5.871  0.1552  0.1390 -0.5309
  235MOL    C1547283   6.857   1.469   6.000 -0.8125  1.2780 -0.3222
  235MOL    H1647284   6.902   1.228   5.611  0.0716  0.6489  0.3623
  235MOL    H1747285   7.000   1.375   5.639 -0.2883  0.6766  0.4962
  235MOL    H1847286   6.822   1.247   5.841 -1.1929  0.8320  1.2954
  235MOL    H1947287   6.769   1.524   5.968 -1.4544  0.1743 -0.4903
  235MOL    H2047288   6.826   1.373   6.042  1.9772  2.3784  4.7842
  235MOL    H2147289   6.934   1.518   6.061  1.9057  0.0212 -2.6256
  235MOL    C2247290   6.732   1.407   5.713  0.5504  0.0055 -0.3247
  235MOL    C2347291   6.646   1.315   5.628 -0.1561 -1.2095  0.0297
  235MOL    O2447292   6.592   1.205   5.696  0.2095  0.5527 -0.1782
  235MOL    C2547293   6.616   1.082   5.628 -0.2761 -0.0581 -0.0563
  235MOL    H2647294   6.763   1.500   5.666  1.2700  0.6643  1.4006
  235MOL    H2747295   6.671   1.435   5.799  1.1183  1.0942 -0.2627
  235MOL    H2847296   6.714   1.283   5.549  0.2221  0.8235 -0.5072
  235MOL    H2947297   6.558   1.073   5.536 -0.4109  1.4116 -0.1265
  235MOL    H3047298   6.723   1.073   5.605 -0.3802 -0.4542 -0.3833
  235MOL    H3147299   6.595   0.990   5.683 -0.0318 -1.2237 -1.8534
  235MOL    C3247300   6.525   1.387   5.560  0.1187  0.3837  0.4601
  235MOL    C3347301   6.556   1.455   5.420 -0.0595 -0.3963  0.2462
  235MOL    O3447302   6.620   1.361   5.335 -0.4403  0.3078  0.4816
  235MOL    C3547303   6.731   1.407   5.259  0.1034  0.0015  0.0141
  235MOL    H3647304   6.498   1.462   5.635 -4.6304 -0.2765 -0.4040
  235MOL    H3747305   6.441   1.319   5.546  0.5475 -0.0451 -0.0501
  235MOL    H3847306   6.630   1.532   5.440  0.1066 -0.0359 -1.7180
  235MOL    H3947307   6.710   1.473   5.175 -0.8922 -0.2937  0.0238
  235MOL    H4047308   6.787   1.478   5.320  2.5321 -1.4913 -0.4376
  235MOL    H4147309   6.797   1.329   5.221 -2.4024 -2.2516  0.1142
  235MOL    C4247310   6.441   1.529   5.353  0.4769 -0.2004 -0.3784
  235MOL    C4347311   6.468   1.647   5.261 -1.0312  0.1955  0.0538
  235MOL    O4447312   6.352   1.649   5.177 -0.0707 -0.1073  0.1973
  235MOL    C4547313   6.375   1.673   5.041 -0.0004 -0.1083  0.4770
  235MOL    H4647314   6.377   1.568   5.432  0.6251  2.1906 -1.3748
  235MOL    H4747315   6.379   1.455   5.303 -0.5753  1.5669 -1.7374
  235MOL    H4847316   6.559   1.627   5.204 -1.2659  0.8643 -0.5692
  235MOL    H4947317   6.468   1.627   5.006  0.3828  0.9048  0.1285
  235MOL    H5047318   6.285   1.665   4.980  0.5355 -0.0656 -0.3337
  235MOL    H5147319   6.394   1.780   5.039 -1.1425  0.1053  1.0207
  235MOL    C5247320   6.467   1.775   5.342 -0.0360 -0.8470 -0.7181
  235MOL    C5347321   6.499   1.910   5.267  0.2305  0.3335 -0.0534
  235MOL    O5447322   6.479   2.023   5.350 -0.1494  0.0943 -0.1528
  235MOL    C5547323   6.343   2.060   5.373  0.3871 -0.1777 -0.6031
  235MOL    H5647324   6.532   1.760   5.428  1.2789  2.1396 -1.1371
  235MOL    H5747325   6.363   1.776   5.375 -0.1220  1.5880 -0.9809
  235MOL    H5847326   6.430   1.921   5.183 -0.7666  0.8968  0.8334
  235MOL    H5947327   6.346   2.155   5.425 -0.5359 -1.3230  1.6233
  235MOL    H6047328   6.283   2.060   5.282  2.6004 -1.5805 -2.0990
  235MOL    H6147329   6.281   1.995   5.436 -0.9271  3.6271  2.2041
  235MOL    C6247330   6.633   1.909   5.200  0.6415  0.2906  0.4130
  235MOL    C6347331   6.768   1.880   5.283  0.8566  0.5816 -0.3563
  235MOL    O6447332   6.866   1.857   5.189 -0.0138 -0.1730  0.1999
  235MOL    C6547333   6.862   1.740   5.111  0.1373 -0.3204 -0.3105
  235MOL    H6647334   6.645   2.001   5.143  0.4285 -0.6211 -1.1284
  235MOL    H6747335   6.614   1.831   5.126 -1.4099  2.2319 -1.1822
  235MOL    H6847336   6.751   1.795   5.349  0.7388  0.1275 -0.9589
  235MOL    H6947337   6.963   1.727   5.074 -0.1597  0.4980 -1.4312
  235MOL    H7047338   6.857   1.659   5.184 -6.0846 -0.5312 -0.6605
  235MOL    H7147339   6.787   1.723   5.033 -1.5663 -1.3873  1.5109
  235MOL    C7247340   6.809   2.013   5.356  0.2970  0.3065  0.2952
  235MOL    C7347341   6.944   2.006   5.425  0.1479  0.5844 -0.2567
  235MOL    O7447342   6.953   2.137   5.484 -0.4904 -0.8018  0.3095
  235MOL    C7547343   7.082   2.198   5.460 -0.1544 -0.4565 -0.0118
  235MOL    H7647344   6.732   2.057   5.419 -0.1687  2.2836 -1.6054
  235MOL    H7747345   6.822   2.089   5.278  0.8735 -1.2056 -1.1136
  235MOL    H7847346   7.030   1.970   5.369  0.0478  0.3373 -0.2511
  235MOL    H7947347   7.069   2.293   5.512 -0.7876  0.1872 -1.3148
  235MOL    H8047348   7.164   2.135   5.494 -0.7490 -0.3171  1.7020
  235MOL    H8147349   7.105   2.227   5.357  0.3055  0.6149  0.3872
  235MOL    C8247350   6.949   1.911   5.548 -0.3671 -0.2256  0.2947
  235MOL    C8347351   6.844   1.917   5.666  0.4936  0.3667  0.0911
  235MOL    O8447352   6.717   1.894   5.607 -0.7326 -0.1387 -0.5043
  235MOL    C8547353   6.617   1.973   5.664 -0.3580  0.3173 -0.3652
  235MOL    H8647354   7.051   1.911   5.588 -1.4924 -1.3608  3.2585
  235MOL    H8747355   6.936   1.812   5.505 -3.3423  0.8125 -1.3185
  235MOL    H8847356   6.852   2.015   5.713  0.6309  0.2204  0.3677
  235MOL    H8947357   6.625   2.079   5.642 -2.0895  0.2223 -1.4953
  235MOL    H9047358   6.518   1.958   5.622 -0.8997  3.2947 -0.2664
  235MOL    H9147359   6.611   1.955   5.771 -2.9702 -1.2030 -0.7103
  235MOL    C9247360   6.869   1.798   5.766  0.2379  0.1014 -0.4391
  235MOL    C9347361   6.950   1.849   5.891 -1.0717  0.4565 -0.6344
  235MOL    O9447362   6.908   1.789   6.013  0.1841  0.1907 -0.1457
  235MOL    C9547363   6.792   1.843   6.072 -0.0751  0.2872  0.3761
  235MOL    H9647364   6.911   1.708   5.721  1.3854  0.6001 -0.3680
  235MOL    H9747365   6.771   1.767   5.802 -0.0246  0.7717 -0.5792
  235MOL    H9847366   6.936   1.955   5.909  3.0189  0.7966  1.2395
  235MOL    H9947367   6.815   1.892   6.167  0.8248  1.7431 -0.5619
  235MOL   H10047368   6.746   1.920   6.010  1.0330 -0.4744 -1.4334
  235MOL   H10147369   6.719   1.765   6.089 -0.0629  0.3244  0.5996
  235MOL   C10247370   7.101   1.821   5.885 -0.5882 -0.4611  0.1401
  235MOL   C10347371   7.200   1.929   5.951  0.0759 -0.0858 -0.0244
  235MOL   O10447372   7.172   2.061   5.907  0.2147 -0.0070  0.5539
  235MOL   C10547373   7.282   2.140   5.840  0.9206  0.1096  0.3488
  235MOL   H10647374   7.121   1.829   5.779 -0.8015 -0.4558  0.1001
  235MOL   H10747375   7.115   1.718   5.916 -0.4077 -1.1197 -2.1207
  235MOL   H10847376   7.298   1.902   5.913  0.0406  2.4998 -2.0979
  235MOL   H10947377   7.234   2.213   5.774  0.2576 -0.0385  0.6559
  235MOL   H11047378   7.340   2.202   5.908  3.5490 -1.3606 -0.5178
  235MOL   H11147379   7.348   2.091   5.769  1.5563 -1.3763  1.9336
  235MOL   C11247380   7.195   1.938   6.104  0.3739 -0.4750  0.0442
  235MOL   C11347381   7.318   2.014   6.171  0.0625 -0.2522  0.2930
  235MOL   O11447382   7.283   2.005   6.306 -0.2959  0.2094  0.0924
  235MOL   C11547383   7.192   2.104   6.348 -0.4183 -0.0682 -0.6473
  235MOL   H11647384   7.187   1.840   6.153 -0.0428 -0.1564  0.6216
  235MOL   H11747385   7.107   2.000   6.122  2.3761  2.7575 -0.9815
  235MOL   H11847386   7.323   2.116   6.134  0.3673 -0.8861 -1.4462
  235MOL   H11947387   7.091   2.101   6.307 -0.8767 -0.2106  0.4713
  235MOL   H12047388   7.185   2.103   6.457  0.1892  2.0587 -0.5533
  235MOL   H12147389   7.237   2.199   6.318  0.1185 -0.2911 -0.5509
  235MOL   C12247390   7.445   1.925   6.147  0.6459  0.0020 -0.8825
  235MOL   C12347391   7.572   2.008   6.150  0.2548 -0.5007  0.4259
  235MOL   O12447392   7.556   2.095   6.046 -0.7262  0.9656 -0.2756
  235MOL   C12547393   7.658   2.198   6.016  1.0007 -0.3003 -0.1244
  235MOL   H12647394   7.452   1.875   6.051 -0.1107 -1.3436 -0.2592
  235MOL   H12747395   7.446   1.848   6.224  2.8308  0.6739 -0.2017
  235MOL   H12847396   7.651   1.935   6.131  0.7635  0.1869 -0.1429
  235MOL   H12947397   7.634   2.253   5.924  0.7022  0.7700  0.5856
  235MOL   H13047398   7.659   2.267   6.101  3.5296 -1.6507  0.9870
  235MOL   H13147399   7.757   2.155   6.001  1.3586 -0.8735  3.4320
  235MOL   C13247400   7.595   2.076   6.286  0.0884  0.0898  0.2059
  235MOL   C13347401   7.744   2.102   6.327  0.1762  0.3279  0.7846
  235MOL   O13447402   7.749   2.189   6.436 -0.4803 -0.1990 -0.5917
  235MOL   C13547403   7.748   2.330   6.404  0.4820  0.9284 -0.0053
  235MOL   H13647404   7.555   2.022   6.371 -1.0745  0.2042 -0.2659
  235MOL   H13747405   7.542   2.171   6.284 -0.2621 -0.1145 -0.5099
  235MOL   H13847406   7.799   2.145   6.242  0.5432 -0.7154  0.4842
  235MOL   H13947407   7.757   2.397   6.489  1.2635  0.1637  0.5253
  235MOL   H14047408   0.024   2.344   6.339  1.5457  1.4881  1.4985
  235MOL   H14147409   7.666   2.352   6.335  0.6473  0.6513 -0.2901
  235MOL   C14247410   0.008   1.977   6.376 -0.3668  0.2954 -0.1208
  235MOL   C14347411   0.161   1.996   6.422  0.0116  0.4097 -0.5100
  235MOL   O14447412   0.230   1.879   6.457 -0.4386 -0.5322  0.7229
  235MOL   C14547413   0.173   1.807   6.566  0.1332  0.5103  0.3122
  235MOL   H14647414   0.001   1.909   6.291 -0.0171 -0.7737  0.6953
  235MOL   H14747415   7.765   1.942   6.465  2.8072 -0.9676  1.3809
  235MOL   H14847416   0.153   2.049   6.517 -3.2559  0.7706 -0.9122
  235MOL   H14947417   0.166   1.871   6.654 -2.3785  1.5992 -0.6240
  235MOL   H15047418   0.077   1.763   6.539  0.3051  0.1733  0.2456
  235MOL   H15147419   0.244   1.726   6.583 -0.7995 -0.6957 -1.3935
  235MOL   C15247420   0.247   2.077   6.320 -0.1033  0.1943  0.6717
  235MOL   C15347421   0.272   1.995   6.191 -0.0496 -0.7196  0.1239
  235MOL   O15447422   0.177   2.042   6.092  0.4348  0.5539  0.0367
  235MOL   C15547423   0.166   1.958   5.985 -0.2208  0.0550  0.0745
  235MOL   H15647424   0.335   2.093   6.382 -0.6565 -1.2102  1.8424
  235MOL   H15747425   0.217   2.178   6.291 -2.1151 -0.5044  0.2273
  235MOL   H15847426   0.261   1.888   6.208  0.5102 -0.9569 -0.9164
  235MOL   H15947427   0.086   1.996   5.922 -0.1771 -0.6893 -0.4228
  235MOL   H16047428   0.261   1.938   5.936  0.0781 -0.9077  1.0195
  235MOL   H16147429   0.124   1.865   6.021  2.2497 -1.5106 -0.9319
  235MOL   C16247430   0.417   2.033   6.142 -0.5122  0.1788 -0.0089
  235MOL   C16347431   0.535   1.953   6.207 -0.5408 -0.3799  0.1838
  235MOL   O16447432   0.516   1.824   6.152 -0.1134 -0.2126  0.0198
  235MOL   C16547433   0.563   1.727   6.246  0.8697 -0.0473  0.2798
  235MOL   H16647434   0.430   2.140   6.156  1.6268  0.0700 -0.9776
  235MOL   H16747435   0.425   2.009   6.036  2.6598 -2.7479  0.7855
  235MOL   H16847436   0.512   1.959   6.313  0.5006 -0.0794  0.3947
  235MOL   H16947437   0.530   1.630   6.209 -0.3722  0.8713 -1.0606
  235MOL   H17047438   0.670   1.722   6.264  1.1223 -0.7300 -1.3314
  235MOL   H17147439   0.511   1.741   6.341  1.4387 -1.5485  0.8381
  235MOL   C17247440   0.674   2.013   6.162 -0.4121  0.5551 -0.3711
  235MOL   C17347441   0.718   2.139   6.230  0.3000  0.1892 -0.5381
  235MOL   O17447442   0.766   2.106   6.362 -0.0545 -0.1083 -0.1059
  235MOL   C17547443   0.705   2.170   6.472  0.0731 -0.5951 -0.3828
  235MOL   H17647444   0.669   2.034   6.056 -1.1347 -0.1986 -0.4932
  235MOL   H17747445   0.759   1.946   6.173 -0.2023  0.9550  0.4919
  235MOL   H17847446   0.629   2.200   6.250  0.3873  0.1827 -0.1278
  235MOL   H17947447   0.743   2.145   6.571 -1.3217  0.3107  0.4009
  235MOL   H18047448   0.719   2.277   6.471  0.4355 -0.6404 -1.4243
  235MOL   H18147449   0.597   2.152   6.470  0.3357 -2.2528 -1.0793
  235MOL   C18247450   0.820   2.229   6.162  0.2214 -0.4554  0.2645
  235MOL   C18347451   0.760   2.334   6.072 -0.1822 -0.5781  0.4077
  235MOL   O18447452   0.681   2.416   6.158 -0.1071  0.4239 -0.4270
  235MOL   C18547453   0.551   2.448   6.102 -0.1185  0.4150 -0.1650
  235MOL   H18647454   0.897   2.167   6.117 -0.5067  0.1045 -1.7996
  235MOL   H18747455   0.877   2.278   6.241  2.7739  1.0453 -2.4280
  235MOL   H18847456   0.705   2.278   5.997  1.3426 -0.0274 -1.1555
  235MOL   H18947457   0.492   2.356   6.097  0.7479 -0.1637  0.1403
  235MOL   H19047458   0.499   2.512   6.172  0.3732 -1.4344  1.9535
  235MOL   H19147459   0.543   2.490   6.002 -1.7167 -1.3293 -0.8120
  235MOL   C19247460   0.862   2.422   5.993 -0.1948 -0.0877 -0.4997
  235MOL   C19347461   0.907   2.367   5.863 -0.3770 -0.3627 -0.1993
  235MOL   O19447462   0.960   2.474   5.783 -0.0050 -0.0289  0.0657
  235MOL   C19547463   1.048   2.431   5.682  0.3257 -0.2423  0.6982
  235MOL   H19647464   0.943   2.450   6.060  0.7755 -0.8043 -1.3692
  235MOL   H19747465   0.812   2.513   5.959  1.4231  0.3856 -1.6598
  235MOL   H19847466   0.830   2.308   5.812  1.6056 -2.6025 -0.6858
  235MOL   H19947467   1.001   2.385   5.595  0.8825  2.0192 -0.8304
  235MOL   H20047468   1.102   2.519   5.646  1.9653 -1.2995  0.5549
  235MOL   H20147469   1.131   2.376   5.726  1.2982 -0.6544 -1.5801
  235MOL   H20247470   0.984   2.293   5.885 -0.9269 -1.6520 -2.4184
  236MOL     C147471   4.912   5.028   1.167 -0.0241  0.5978 -0.2850
  236MOL     C247472   5.054   5.000   1.211  1.0426 -0.5765 -0.4172
  236MOL     O347473   5.115   5.119   1.242  0.4219 -0.0574  1.0874
  236MOL     C447474   5.163   5.196   1.124  1.5183  0.1460 -0.4024
  236MOL     H547475   4.851   5.098   1.224  0.1192 -0.3245  1.0325
  236MOL     H647476   4.917   5.073   1.068  0.8661 -0.3309 -0.6693
  236MOL     H747477   5.109   4.953   1.130  0.8497 -0.3583 -0.6735
  236MOL     H847478   5.225   5.281   1.154  0.7880 -0.0566  1.8213
  236MOL     H947479   5.213   5.141   1.045 -0.2164 -0.2538 -1.2404
  236MOL    H1047480   5.073   5.244   1.084 -0.6350 -0.4597  3.3749
  236MOL    H1147481   4.859   4.933   1.160  0.6835  0.2148 -0.5101
  236MOL    C1247482   5.043   4.929   1.346  0.1919 -0.0592  0.0166
  236MOL    C1347483   5.170   4.875   1.410 -0.1882  0.2043 -0.0134
  236MOL    O1447484   5.242   4.982   1.469 -0.7008 -0.0372  0.8376
  236MOL    C1547485   5.388   4.967   1.473  0.3509 -1.0083  0.7324
  236MOL    H1647486   4.977   4.842   1.337  0.7590 -0.7683  2.2303
  236MOL    H1747487   4.991   5.000   1.410 -0.6256  1.9494 -2.8012
  236MOL    H1847488   5.232   4.827   1.334 -1.0586 -0.9444  0.0046
  236MOL    H1947489   5.439   4.920   1.389 -1.0127 -1.6556  0.2509
  236MOL    H2047490   5.433   5.065   1.491 -1.0019 -0.3891  0.7920
  236MOL    H2147491   5.416   4.911   1.562 -0.6461 -1.4385  0.7855
  236MOL    C2247492   5.139   4.772   1.517  0.8177 -0.9569  1.0508
  236MOL    C2347493   5.154   4.627   1.457 -0.3487 -0.5763  1.0243
  236MOL    O2447494   5.288   4.602   1.425  1.1468  0.2660  0.0864
  236MOL    C2547495   5.310   4.481   1.347 -0.1786 -0.2971  0.1238
  236MOL    H2647496   5.043   4.792   1.564  1.5052 -0.0585  2.0850
  236MOL    H2747497   5.200   4.794   1.604 -1.2947  0.8271  2.1239
  236MOL    H2847498   5.097   4.627   1.364 -2.7417 -1.2310  2.4522
  236MOL    H2947499   5.419   4.474   1.341 -0.1987  0.4820 -1.3476
  236MOL    H3047500   5.268   4.391   1.390 -1.3399  0.1850  0.0094
  236MOL    H3147501   5.280   4.495   1.243 -0.3867 -2.2361 -0.0897
  236MOL    C3247502   5.074   4.516   1.532 -0.2886  0.1823 -0.0018
  236MOL    C3347503   5.130   4.470   1.663 -0.1241 -0.5675 -0.0915
  236MOL    O3447504   5.088   4.570   1.750 -0.2559  0.0456  0.3248
  236MOL    C3547505   5.186   4.626   1.837  0.0900 -0.0622 -0.1742
  236MOL    H3647506   5.047   4.435   1.464  0.6709 -0.2663  0.1514
  236MOL    H3747507   4.977   4.556   1.562 -1.6323 -2.2234 -0.9683
  236MOL    H3847508   5.236   4.450   1.655 -0.0171  0.3805 -1.1855
  236MOL    H3947509   5.150   4.682   1.923  0.5062  1.0038 -0.6895
  236MOL    H4047510   5.231   4.537   1.882 -1.7930 -0.1127  1.6739
  236MOL    H4147511   5.267   4.673   1.782  0.4630 -2.0495 -1.4036
  236MOL    C4247512   5.066   4.348   1.723 -0.1684 -0.0079  0.0072
  236MOL    C4347513   5.105   4.214   1.646 -0.5460 -0.2112 -0.0750
  236MOL    O4447514   5.236   4.170   1.685  0.0332  0.2101 -0.4678
  236MOL    C4547515   5.306   4.077   1.593  0.0814 -0.1205  0.2549
  236MOL    H4647516   4.959   4.366   1.720  0.0056  1.4325  2.0496
  236MOL    H4747517   5.094   4.346   1.828  2.8665 -1.0285 -0.7617
  236MOL    H4847518   5.092   4.242   1.541  0.8870  1.1232  0.0811
  236MOL    H4947519   5.398   4.050   1.645 -0.3587 -1.7598  0.1907
  236MOL    H5047520   5.247   3.987   1.578 -0.9017  0.5766 -0.0823
  236MOL    H5147521   5.329   4.115   1.493 -2.8790 -0.6926 -0.6865
  236MOL    C5247522   4.996   4.109   1.658 -0.5302  0.1735  0.8043
  236MOL    C5347523   4.984   4.031   1.792 -0.7069 -0.0090  0.4170
  236MOL    O5447524   4.848   3.985   1.791 -0.3930 -0.3447  0.1006
  236MOL    C5547525   4.756   4.078   1.857  0.3892  0.7790  0.0215
  236MOL    H5647526   5.003   4.037   1.577 -1.6346  1.2452 -0.2728
  236MOL    H5747527   4.903   4.160   1.633  0.7017  2.6491  1.1465
  236MOL    H5847528   5.003   4.101   1.873 -0.4480 -1.1215  1.3328
  236MOL    H5947529   4.711   4.154   1.793 -1.9944 -0.0019  0.7336
  236MOL    H6047530   4.667   4.020   1.878 -0.8275  2.8205  0.6066
  236MOL    H6147531   4.788   4.112   1.955 -1.1880 -1.4875  1.3438
  236MOL    C6247532   5.091   3.920   1.781  1.0024 -0.1326  0.3289
  236MOL    C6347533   5.071   3.798   1.873  0.5046 -1.1594 -0.1515
  236MOL    O6447534   5.161   3.690   1.834  0.9970  0.0904 -0.1900
  236MOL    C6547535   5.121   3.613   1.725  0.2600  0.4721 -1.0683
  236MOL    H6647536   5.193   3.953   1.803  0.8696 -0.0719  0.8519
  236MOL    H6747537   5.093   3.878   1.680  0.7667  1.0281 -0.1624
  236MOL    H6847538   4.967   3.766   1.868  0.6433 -1.9482  1.5068
  236MOL    H6947539   5.018   3.579   1.729  0.7987 -0.9309  3.0229
  236MOL    H7047540   5.134   3.663   1.628  1.2149  1.0870 -0.6294
  236MOL    H7147541   5.184   3.524   1.721  0.0378  0.2854 -0.3750
  236MOL    C7247542   5.094   3.823   2.020  0.2695 -0.1374  0.3289
  236MOL    C7347543   5.057   3.717   2.124 -0.6789 -0.3173  0.2330
  236MOL    O7447544   5.121   3.752   2.247 -0.2218 -0.5257  0.3723
  236MOL    C7547545   5.238   3.675   2.269 -0.4083 -0.5411  0.1124
  236MOL    H7647546   5.053   3.919   2.052  0.1051  0.3267 -1.2414
  236MOL    H7747547   5.200   3.840   2.034  0.7852 -1.7452 -1.5242
  236MOL    H7847548   5.102   3.628   2.079  1.0828  0.5694  0.1859
  236MOL    H7947549   5.296   3.714   2.353  0.7336  1.8558 -1.7379
  236MOL    H8047550   5.203   3.573   2.286 -1.2004 -0.4997 -1.2442
  236MOL    H8147551   5.317   3.662   2.195  3.0874  0.9331  3.4103
  236MOL    C8247552   4.906   3.693   2.143  0.0308  0.3004  0.1565
  236MOL    C8347553   4.868   3.554   2.202  0.6932 -0.4920 -0.1548
  236MOL    O8447554   4.726   3.558   2.241  0.5092 -0.2484  0.6010
  236MOL    C8547555   4.710   3.568   2.382 -0.1754 -1.0642 -0.0227
  236MOL    H8647556   4.855   3.698   2.047 -0.3657 -1.4647  0.2391
  236MOL    H8747557   4.865   3.760   2.218 -0.5425  1.4937 -1.1913
  236MOL    H8847558   4.930   3.531   2.288 -1.6608 -1.4486  1.3608
  236MOL    H8947559   4.747   3.483   2.439  2.1482  1.3066  2.1668
  236MOL    H9047560   4.751   3.668   2.400  0.1128 -0.7245 -2.3941
  236MOL    H9147561   4.602   3.568   2.393 -0.3131 -0.7182 -1.3114
  236MOL    C9247562   4.905   3.427   2.116  0.0214 -0.2847 -0.3637
  236MOL    C9347563   4.830   3.398   1.980  0.3723  0.2941  0.0542
  236MOL    O9447564   4.894   3.281   1.929  0.2596  0.7093  0.2740
  236MOL    C9547565   4.987   3.286   1.824  0.4565  0.0256 -0.0230
  236MOL    H9647566   4.912   3.336   2.177  2.3516  0.2825  0.2447
  236MOL    H9747567   5.008   3.437   2.082  0.3345  2.0649  1.2199
  236MOL    H9847568   4.840   3.486   1.918 -1.2051  1.5379  1.5025
  236MOL    H9947569   5.078   3.337   1.855 -0.6847  1.0235  1.7566
  236MOL   H10047570   5.011   3.181   1.807  0.6271 -0.1380  1.1793
  236MOL   H10147571   4.957   3.331   1.729  1.3334  0.9967  0.1478
  236MOL   C10247572   4.674   3.359   2.004 -0.3041  0.2451  0.5176
  236MOL   C10347573   4.608   3.331   1.865 -0.3094 -0.4698 -0.3057
  236MOL   O10447574   4.471   3.296   1.874  0.5180  0.3214  0.1807
  236MOL   C10547575   4.446   3.186   1.960  0.6790 -0.8197 -0.1249
  236MOL   H10647576   4.610   3.432   2.052 -0.7485  0.8969 -1.0339
  236MOL   H10747577   4.657   3.272   2.067 -0.4207  0.7705  1.2200
  236MOL   H10847578   4.668   3.251   1.822 -0.6378 -0.6820 -0.3789
  236MOL   H10947579   4.517   3.112   1.923  1.1503  0.5203 -1.9545
  236MOL   H11047580   4.450   3.204   2.068 -0.9372  2.1027 -0.5197
  236MOL   H11147581   4.354   3.141   1.922  0.6240 -0.8977  0.0968
  236MOL   C11247582   4.604   3.436   1.755  0.0760 -0.9733  0.0446
  236MOL   C11347583   4.517   3.561   1.801 -0.2418 -0.0925  0.3642
  236MOL   O11447584   4.603   3.660   1.850  0.3153  0.3106  0.5935
  236MOL   C11547585   4.550   3.737   1.949 -0.2582  0.0021 -0.2391
  236MOL   H11647586   4.559   3.378   1.674  0.9753  0.8265 -1.7638
  236MOL   H11747587   4.708   3.454   1.729  0.1650 -0.4663  0.7178
  236MOL   H11847588   4.451   3.528   1.881  0.4722  1.5339  1.6346
  236MOL   H11947589   4.632   3.793   1.994  0.2429 -1.6247  0.9028
  236MOL   H12047590   4.464   3.799   1.923 -1.6885 -2.2891 -1.0691
  236MOL   H12147591   4.526   3.666   2.028 -0.3237  0.3467  0.0539
  236MOL   C12247592   4.441   3.627   1.680 -0.3719 -0.1351 -0.1646
  236MOL   C12347593   4.328   3.531   1.629  0.5385 -0.1423  0.1378
  236MOL   O12447594   4.238   3.506   1.742 -0.2063  0.0226 -0.6335
  236MOL   C12547595   4.169   3.377   1.746  0.5550  0.2412 -0.4541
  236MOL   H12647596   4.516   3.648   1.604  1.0883 -0.2033  1.2491
  236MOL   H12747597   4.392   3.721   1.704 -2.8793 -1.4753  0.1456
  236MOL   H12847598   4.371   3.438   1.591 -0.9705 -1.8868  2.5137
  236MOL   H12947599   4.237   3.292   1.748  0.7340  0.3906 -0.1742
  236MOL   H13047600   4.121   3.387   1.843  0.8805  0.6103 -0.3299
  236MOL   H13147601   4.094   3.369   1.667 -0.0441  1.2732 -0.0060
  236MOL   C13247602   4.249   3.594   1.509 -0.7405 -0.2363  0.4341
  236MOL   C13347603   4.336   3.604   1.383  1.0054 -0.2457 -0.4547
  236MOL   O13447604   4.349   3.475   1.331 -0.6292  0.4215  0.2232
  236MOL   C13547605   4.477   3.429   1.323 -0.1379  0.3769 -0.2374
  236MOL   H13647606   4.205   3.690   1.535  2.4566  1.3427  0.3109
  236MOL   H13747607   4.167   3.525   1.487 -1.2805  0.8331 -0.9448
  236MOL   H13847608   4.436   3.639   1.408  1.5031 -1.4047 -0.7620
  236MOL   H13947609   4.527   3.477   1.238  0.9028 -0.1620  0.0596
  236MOL   H14047610   4.545   3.450   1.406 -0.1022 -2.7940  0.5934
  236MOL   H14147611   4.481   3.321   1.309 -1.1246 -0.0411  2.4176
  236MOL   C14247612   4.271   3.695   1.273  1.0697  0.3312 -0.3224
  236MOL   C14347613   4.373   3.765   1.185 -0.3362 -0.6043  0.0869
  236MOL   O14447614   4.304   3.789   1.063 -0.0040 -0.3829 -0.1051
  236MOL   C14547615   4.370   3.739   0.945 -0.0171 -0.7729 -0.4632
  236MOL   H14647616   4.209   3.767   1.327 -0.0173 -2.1221  1.7688
  236MOL   H14747617   4.212   3.625   1.214  1.7228 -0.0755 -0.4957
  236MOL   H14847618   4.463   3.713   1.153  0.2515 -0.7202  1.8639
  236MOL   H14947619   4.304   3.751   0.859  0.3033 -1.2308 -0.7724
  236MOL   H15047620   4.463   3.791   0.923  0.3861 -0.9009  0.8856
  236MOL   H15147621   4.387   3.632   0.945 -2.6820 -1.2370  0.6584
  236MOL   C15247622   4.417   3.899   1.245 -0.6504  0.2718  0.1147
  236MOL   C15347623   4.519   3.982   1.161  0.2349 -0.0889  0.2280
  236MOL   O15447624   4.492   4.124   1.191 -0.0542 -0.1729 -0.2562
  236MOL   C15547625   4.529   4.213   1.097  0.1243 -0.1015 -0.6855
  236MOL   H15647626   4.465   3.886   1.342  0.1941  1.5944 -0.1100
  236MOL   H15747627   4.331   3.965   1.260 -1.5879 -0.5835 -1.3995
  236MOL   H15847628   4.493   3.964   1.056  2.3248  2.8199 -0.8437
  236MOL   H15947629   4.462   4.209   1.011  0.3048 -2.3699 -0.7541
  236MOL   H16047630   4.510   4.317   1.121 -2.3334 -0.1906 -2.1474
  236MOL   H16147631   4.633   4.209   1.064  0.6871  0.4644  0.9725
  236MOL   C16247632   4.667   3.952   1.187  0.8734 -0.1343 -0.6346
  236MOL   C16347633   4.720   3.819   1.158 -0.8327  0.2939  0.0064
  236MOL   O16447634   4.716   3.800   1.013 -0.2284 -0.8667  0.1502
  236MOL   C16547635   4.723   3.665   0.962 -0.1651  0.4293 -0.1450
  236MOL   H16647636   4.681   3.972   1.294  0.5396 -0.4572 -0.5318
  236MOL   H16747637   4.732   4.020   1.131  1.2504 -2.0459 -2.5451
  236MOL   H16847638   4.674   3.740   1.217 -1.7578 -2.0828 -3.7425
  236MOL   H16947639   4.628   3.621   0.994 -0.5600  1.0284 -0.4748
  236MOL   H17047640   4.723   3.657   0.854  4.2084 -2.5236 -0.0411
  236MOL   H17147641   4.797   3.599   1.008 -1.0603 -0.4628  0.0590
  236MOL   C17247642   4.871   3.802   1.185 -0.3006  0.5475 -0.8395
  236MOL   C17347643   4.912   3.823   1.334  0.0363 -0.2042  0.6815
  236MOL   O17447644   4.848   3.728   1.416  0.0264  0.7821  0.8615
  236MOL   C17547645   4.807   3.781   1.540  0.0471  0.0816 -0.4809
  236MOL   H17647646   4.925   3.871   1.120 -0.2855  2.6208  1.2758
  236MOL   H17747647   4.903   3.705   1.146 -0.0879 -0.9213  2.7860
  236MOL   H17847648   4.891   3.927   1.359 -1.1774 -0.3024  0.1181
  236MOL   H17947649   4.748   3.872   1.540  0.2156  0.2029  1.1848
  236MOL   H18047650   4.755   3.699   1.589 -0.2786 -0.8374 -2.3281
  236MOL   H18147651   4.894   3.801   1.603 -1.6679  1.0435  1.6209
  236MOL   C18247652   5.060   3.781   1.352 -0.9054 -0.3816  0.2751
  236MOL   C18347653   5.163   3.867   1.272 -0.7316 -0.6504  0.0409
  236MOL   O18447654   5.165   4.003   1.328 -0.0277  0.3703 -0.9249
  236MOL   C18547655   5.133   4.105   1.236  0.1592 -0.1356 -0.1638
  236MOL   H18647656   5.061   3.678   1.318  3.7188  0.1314 -1.5470
  236MOL   H18747657   5.088   3.780   1.458  0.6595  2.1043 -0.0826
  236MOL   H18847658   5.153   3.859   1.164  0.4613  0.0535 -0.1294
  236MOL   H18947659   5.145   4.208   1.269  0.5520 -0.5647  1.0715
  236MOL   H19047660   5.175   4.081   1.139  0.8305  1.7587 -0.3485
  236MOL   H19147661   5.026   4.104   1.216  0.0067  2.2843  0.4066
  236MOL   C19247662   5.307   3.826   1.288  0.0809 -0.7427 -0.2790
  236MOL   C19347663   5.357   3.692   1.238 -0.3450  0.5505  0.6927
  236MOL   O19447664   5.339   3.664   1.098  0.4136 -0.1574 -0.2653
  236MOL   C19547665   5.247   3.558   1.077  0.0120 -0.1178 -0.3445
  236MOL   H19647666   5.329   3.821   1.395 -2.9958 -0.2129  0.4014
  236MOL   H19747667   5.380   3.902   1.259  0.2204  0.4403  2.9776
  236MOL   H19847668   5.316   3.614   1.302  0.0076 -0.0934  0.1358
  236MOL   H19947669   5.255   3.557   0.968  1.4425 -0.6706 -0.2512
  236MOL   H20047670   5.281   3.458   1.103 -0.4139 -0.1737  0.0054
  236MOL   H20147671   5.149   3.593   1.108  0.4340  0.0924  0.7724
  236MOL   H20247672   5.464   3.695   1.261  0.0401  2.0659 -1.2033
  237MOL     C147673   6.275   2.709   6.992 -0.2454 -0.1477  0.2136
  237MOL     C247674   6.196   2.840   6.950 -0.1963  0.9219  0.6008
  237MOL     O347675   6.078   2.814   6.877  0.0394  0.5717 -0.6885
  237MOL     C447676   6.103   2.768   6.748 -0.2883 -0.0469 -0.5515
  237MOL     H547677   6.270   2.635   6.912  1.5135 -0.4384  0.3626
  237MOL     H647678   6.383   2.722   7.001 -0.2011 -0.2792 -0.1180
  237MOL     H747679   6.257   2.903   6.885 -0.0699  0.6422  0.4479
  237MOL     H847680   6.079   2.846   6.675 -0.3599 -0.3424 -0.8484
  237MOL     H947681   6.209   2.756   6.727 -0.1968  0.6401 -0.4708
  237MOL    H1047682   6.041   2.680   6.729 -3.0822  1.6182  0.4985
  237MOL    H1147683   6.228   2.666   7.081 -1.6313  1.6265  0.3725
  237MOL    C1247684   6.151   2.922   7.078 -0.0531 -0.0228 -0.1546
  237MOL    C1347685   6.063   3.047   7.045  0.4915  0.4596  0.8837
  237MOL    O1447686   6.021   3.092   7.177 -0.3683 -0.6865  0.2252
  237MOL    C1547687   5.876   3.049   7.208 -0.0836 -0.3664 -0.2938
  237MOL    H1647688   6.235   2.946   7.143  0.2844 -1.4722 -0.0270
  237MOL    H1747689   6.101   2.844   7.135  1.5695 -0.2376  1.0140
  237MOL    H1847690   5.972   3.011   6.996 -0.3248  1.6504  1.5157
  237MOL    H1947691   5.855   2.943   7.227  0.7795 -0.7867 -1.5981
  237MOL    H2047692   5.842   3.096   7.300  0.2788 -0.6337 -0.0149
  237MOL    H2147693   5.809   3.082   7.129 -0.0059  0.1017 -0.1630
  237MOL    C2247694   6.137   3.152   6.952  0.9840 -0.0207  0.5724
  237MOL    C2347695   6.040   3.265   6.908 -0.8112 -0.0765  0.5261
  237MOL    O2447696   5.986   3.329   7.019 -0.3866 -0.4088 -0.0507
  237MOL    C2547697   5.848   3.371   7.023 -0.6182 -0.4757 -0.0014
  237MOL    H2647698   6.178   3.105   6.863  3.2968 -1.7568  2.5054
  237MOL    H2747699   6.229   3.188   6.998  1.1982  0.5637 -0.2874
  237MOL    H2847700   5.960   3.219   6.850 -0.1873 -2.4590  1.5369
  237MOL    H2947701   5.813   3.408   6.927  3.1327  0.6173 -1.0228
  237MOL    H3047702   5.803   3.278   7.056 -0.4530 -0.2506  0.8741
  237MOL    H3147703   5.857   3.446   7.103 -2.6878 -0.0274 -0.1576
  237MOL    C3247704   6.113   3.368   6.819 -0.0141 -0.4968 -0.3512
  237MOL    C3347705   6.181   3.315   6.688 -0.2432  0.7994 -0.4129
  237MOL    O3447706   6.086   3.247   6.612  0.7741 -0.4198  0.2929
  237MOL    C3547707   6.077   3.105   6.601 -0.2399  0.5538  0.2761
  237MOL    H3647708   6.186   3.414   6.885  0.3788 -0.1530 -1.0366
  237MOL    H3747709   6.044   3.446   6.786 -0.4544 -1.8023 -2.6366
  237MOL    H3847710   6.260   3.245   6.718 -1.5220 -0.0864  0.9209
  237MOL    H3947711   6.011   3.073   6.521  0.1442  1.3480 -0.3659
  237MOL    H4047712   6.174   3.058   6.584 -0.9715 -0.1641 -2.0522
  237MOL    H4147713   6.043   3.065   6.696 -0.5938  1.2831  0.4631
  237MOL    C4247714   6.236   3.435   6.611 -0.1507  0.4355  0.1964
  237MOL    C4347715   6.313   3.414   6.479  0.3241  0.1351  0.2949
  237MOL    O4447716   6.429   3.334   6.510  0.0650 -0.4905 -0.0226
  237MOL    C4547717   6.540   3.400   6.563  0.1532  0.3761  0.0803
  237MOL    H4647718   6.290   3.499   6.681 -0.4006  0.1919  0.6125
  237MOL    H4747719   6.146   3.489   6.584  0.5133  0.9506 -1.0300
  237MOL    H4847720   6.351   3.508   6.439  0.3633 -0.3343 -0.7602
  237MOL    H4947721   6.604   3.333   6.621  2.0338  2.9435  1.0448
  237MOL    H5047722   6.607   3.445   6.490 -1.2784  1.6976 -0.4450
  237MOL    H5147723   6.524   3.481   6.634 -0.5697 -0.1292  0.5023
  237MOL    C5247724   6.245   3.342   6.358 -0.0897 -0.8662  0.2032
  237MOL    C5347725   6.116   3.407   6.299  0.3613 -1.1099 -0.0479
  237MOL    O5447726   6.139   3.460   6.178 -0.1083 -0.5714 -0.1390
  237MOL    C5547727   6.204   3.587   6.180 -0.0268  1.3596  0.5613
  237MOL    H5647728   6.220   3.246   6.403 -1.0851 -1.2706 -1.1924
  237MOL    H5747729   6.313   3.330   6.274 -2.1906 -0.8602 -1.5370
  237MOL    H5847730   6.064   3.480   6.360 -1.8242 -1.1362 -1.8268
  237MOL    H5947731   6.302   3.586   6.227  0.6887 -0.2228 -0.9024
  237MOL    H6047732   6.229   3.621   6.080 -0.2264  0.2340  0.1182
  237MOL    H6147733   6.137   3.666   6.214 -2.6678  0.2038 -1.7164
  237MOL    C6247734   5.997   3.312   6.271  0.7419  0.8259  0.2928
  237MOL    C6347735   5.858   3.379   6.233  0.5700  0.2347  0.7804
  237MOL    O6447736   5.790   3.270   6.161 -0.1299 -0.7264  0.2273
  237MOL    C6547737   5.698   3.304   6.056 -0.3373 -0.4430 -0.1476
  237MOL    H6647738   5.983   3.252   6.361 -0.5187  0.1192 -0.3557
  237MOL    H6747739   6.026   3.252   6.185 -1.7492  1.2641 -0.9022
  237MOL    H6847740   5.894   3.448   6.157 -1.1885  1.4930  1.0573
  237MOL    H6947741   5.662   3.211   6.013 -1.0580 -1.5428  2.7398
  237MOL    H7047742   5.610   3.365   6.080 -0.4708 -0.8359  0.3768
  237MOL    H7147743   5.749   3.352   5.973  0.5521  0.2281  0.7708
  237MOL    C7247744   5.783   3.438   6.345 -0.3623  0.5009 -0.0793
  237MOL    C7347745   5.747   3.344   6.466 -1.0556 -0.2071 -1.2110
  237MOL    O7447746   5.663   3.409   6.564 -0.7940 -0.6497 -0.9386
  237MOL    C7547747   5.733   3.496   6.657 -0.9464  0.1707  0.3281
  237MOL    H7647748   5.695   3.495   6.313 -1.7503 -0.3080  2.1653
  237MOL    H7747749   5.838   3.526   6.378 -1.5131  1.3619 -0.4236
  237MOL    H7847750   5.837   3.298   6.507 -1.3430  0.6730  0.4621
  237MOL    H7947751   5.674   3.508   6.748  0.2722 -2.2791  1.4955
  237MOL    H8047752   5.832   3.462   6.687 -0.9446  2.2069  2.7757
  237MOL    H8147753   5.747   3.595   6.613 -0.0544 -0.4448 -0.7959
  237MOL    C8247754   5.656   3.225   6.423 -0.3110  0.3826 -0.6059
  237MOL    C8347755   5.598   3.141   6.541  0.3018  0.5196 -0.3898
  237MOL    O8447756   5.531   3.024   6.483 -0.2117 -0.2279 -0.2148
  237MOL    C8547757   5.402   3.043   6.439 -0.1922 -0.4054 -0.6645
  237MOL    H8647758   5.712   3.147   6.372  0.8827  1.1882 -0.5434
  237MOL    H8747759   5.574   3.252   6.356 -0.2442 -0.9463 -1.2413
  237MOL    H8847760   5.518   3.202   6.582 -0.3887  0.1761 -1.2141
  237MOL    H8947761   5.364   2.951   6.393  0.3202 -1.6362  1.2891
  237MOL    H9047762   5.339   3.058   6.526  0.5307  0.7532 -0.3328
  237MOL    H9147763   5.392   3.130   6.374  0.5416  0.7208  0.7262
  237MOL    C9247764   5.690   3.092   6.656  0.1130  0.6083  0.2855
  237MOL    C9347765   5.619   3.017   6.775  0.3639  0.5137  0.4164
  237MOL    O9447766   5.723   2.937   6.846 -0.6518 -0.5693 -0.0889
  237MOL    C9547767   5.735   2.813   6.783  1.1373  0.6631  0.2493
  237MOL    H9647768   5.752   3.172   6.696  0.7416 -0.2595  1.0538
  237MOL    H9747769   5.755   3.021   6.604 -0.0435  0.6274  0.0613
  237MOL    H9847770   5.538   2.959   6.732 -0.7830  2.9213 -0.7310
  237MOL    H9947771   5.642   2.756   6.779  0.8042  1.2740 -1.2750
  237MOL   H10047772   5.757   2.825   6.677 -0.3696  0.6997 -0.0813
  237MOL   H10147773   5.812   2.750   6.827  0.9245 -0.2044 -0.6132
  237MOL   C10247774   5.545   3.107   6.874  0.5265  0.4112  0.5138
  237MOL   C10347775   5.429   3.028   6.952 -0.2002 -0.2883 -0.6065
  237MOL   O10447776   5.490   2.931   7.027  0.3273 -0.0966  0.0205
  237MOL   C10547777   5.421   2.804   7.039  0.6143 -0.3689  0.4081
  237MOL   H10647778   5.495   3.188   6.822  0.3425 -0.9036 -1.4368
  237MOL   H10747779   5.614   3.147   6.949  2.6480  0.9507 -1.6671
  237MOL   H10847780   5.375   2.977   6.873  1.0989  0.3418 -1.9104
  237MOL   H10947781   5.439   2.753   7.133  0.5584  0.6770  0.9950
  237MOL   H11047782   5.313   2.810   7.019  0.6552 -0.1781  0.2343
  237MOL   H11147783   5.455   2.741   6.957  1.6710 -1.2001  1.4808
  237MOL   C11247784   5.340   3.122   7.030 -0.1234 -0.3664 -0.5234
  237MOL   C11347785   5.412   3.216   7.128 -0.5214  0.2782 -0.3488
  237MOL   O11447786   5.314   3.309   7.180  0.3837 -0.1058  0.1738
  237MOL   C11547787   5.295   3.430   7.117  0.4089  0.5027 -0.1900
  237MOL   H11647788   5.260   3.073   7.087 -0.6999 -0.4965 -1.4346
  237MOL   H11747789   5.281   3.175   6.956 -0.1444 -0.0850 -0.3069
  237MOL   H11847790   5.491   3.276   7.081 -1.0137 -0.5043 -2.2159
  237MOL   H11947791   5.212   3.484   7.163 -0.6783 -0.3003 -1.1804
  237MOL   H12047792   5.385   3.491   7.130  0.4556  0.1831  1.0327
  237MOL   H12147793   5.274   3.423   7.010  2.2613 -0.2713 -0.5288
  237MOL   C12247794   5.478   3.136   7.244 -1.2580 -0.3084  0.1726
  237MOL   C12347795   5.525   3.214   7.364  0.4374 -0.2871 -0.2229
  237MOL   O12447796   5.593   3.128   7.455  0.0901  0.2882 -0.5695
  237MOL   C12547797   5.511   3.072   7.560  0.2316 -0.2885 -0.7350
  237MOL   H12647798   5.559   3.076   7.202 -0.8799  0.7324 -0.5894
  237MOL   H12747799   5.408   3.060   7.281  0.7574 -0.5677  3.6278
  237MOL   H12847800   5.433   3.255   7.407  0.4962  2.3272 -2.4732
  237MOL   H12947801   5.561   3.095   7.654 -2.4449  0.1323  0.6330
  237MOL   H13047802   5.409   3.108   7.572  0.8122  0.2202  3.0819
  237MOL   H13147803   5.513   2.963   7.550 -1.2446 -0.1284 -3.3387
  237MOL   C13247804   5.622   3.334   7.330 -0.1892 -0.0537  0.5857
  237MOL   C13347805   5.651   3.422   7.444  0.3555 -0.1610 -0.3249
  237MOL   O13447806   5.733   3.518   7.383 -0.7041  0.0993  0.4762
  237MOL   C13547807   5.872   3.493   7.393  0.8735 -0.0560  0.1994
  237MOL   H13647808   5.578   3.399   7.254  0.6771 -1.3502 -1.0464
  237MOL   H13747809   5.716   3.289   7.298  0.7721  1.4362  1.2382
  237MOL   H13847810   5.700   3.366   7.524 -1.1238 -0.2715  0.5332
  237MOL   H13947811   5.933   3.576   7.355 -0.0306  1.6517  2.3564
  237MOL   H14047812   5.907   3.491   7.496  2.0275  2.0717 -0.1139
  237MOL   H14147813   5.908   3.409   7.334  2.1416  0.1772  0.6108
  237MOL   C14247814   5.529   3.487   7.507 -0.3091  0.5817  0.0621
  237MOL   C14347815   5.562   3.589   7.624 -0.4949  0.1512  0.2280
  237MOL   O14447816   5.656   3.536   7.720  0.2742  0.1246 -0.0433
  237MOL   C14547817   5.602   3.427   7.795 -0.3952 -0.5875 -0.3016
  237MOL   H14647818   5.464   3.414   7.555  2.9021 -1.5133  1.3625
  237MOL   H14747819   5.462   3.531   7.433  0.0918  0.7706 -0.1871
  237MOL   H14847820   5.465   3.605   7.672 -1.3117 -1.2035 -0.9098
  237MOL   H14947821   5.618   3.333   7.743 -0.5502  0.2781 -1.9817
  237MOL   H15047822   5.660   3.419   0.076  1.4573 -0.9830 -1.4815
  237MOL   H15147823   5.496   3.446   0.002 -0.2309  2.1879 -1.9864
  237MOL   C15247824   5.620   3.728   7.594 -0.6702 -0.0779  0.2182
  237MOL   C15347825   5.524   3.817   7.522  0.0091  0.3637  0.1782
  237MOL   O15447826   5.457   3.915   7.605  0.1637  0.0731  0.3122
  237MOL   C15547827   5.341   3.865   7.668  0.5746 -0.4190 -0.7389
  237MOL   H15647828   5.702   3.708   7.525 -1.1115 -0.4581 -0.1963
  237MOL   H15747829   5.666   3.769   7.684  1.9022 -1.4380 -0.4222
  237MOL   H15847830   5.454   3.750   7.473  1.7463 -1.1472 -0.2700
  237MOL   H15947831   5.286   3.784   7.621 -0.1090  1.5212 -3.4546
  237MOL   H16047832   5.371   3.823   7.763  0.9068  0.8447 -0.2655
  237MOL   H16147833   5.267   3.943   7.686 -0.1067 -1.3883  0.7367
  237MOL   C16247834   5.592   3.897   7.412  0.3820  0.2702 -0.3973
  237MOL   C16347835   5.503   4.013   7.352 -0.3600  0.4566 -0.0381
  237MOL   O16447836   5.583   4.094   7.265 -0.4666 -0.3226  0.0827
  237MOL   C16547837   5.667   4.189   7.335 -0.4882  0.5908  0.0178
  237MOL   H16647838   5.621   3.829   7.332 -1.6151 -0.8147 -0.2332
  237MOL   H16747839   5.683   3.930   7.461 -0.6069 -0.3666  1.9575
  237MOL   H16847840   5.464   4.072   7.435  1.6477  0.4598  0.9383
  237MOL   H16947841   5.735   4.127   7.393  0.1227 -0.3363 -1.6944
  237MOL   H17047842   5.730   4.257   7.278  0.1249  0.2713  0.3106
  237MOL   H17147843   5.594   4.250   7.389 -1.9608  2.4527 -3.8585
  237MOL   C17247844   5.390   3.952   7.274  0.2347  0.0881  0.1027
  237MOL   C17347845   5.310   4.061   7.192 -0.0419 -0.2108  0.0259
  237MOL   O17447846   5.187   3.995   7.153 -0.3092 -0.7516  0.2855
  237MOL   C17547847   5.189   3.934   7.032  0.1671  0.3544 -0.1636
  237MOL   H17647848   5.329   3.910   7.355  0.2999 -1.5022 -0.6504
  237MOL   H17747849   5.416   3.865   7.213 -0.3210  0.4454 -0.6500
  237MOL   H17847850   5.363   4.094   7.102  0.0566 -0.4056  0.0137
  237MOL   H17947851   5.216   4.008   6.956  1.3841  2.0285  1.8556
  237MOL   H18047852   5.260   3.855   7.008  1.6284  1.6793 -0.2491
  237MOL   H18147853   5.092   3.888   7.014  0.0361  0.8291 -0.7050
  237MOL   C18247854   5.273   4.186   7.279  0.3912  1.0092 -0.0524
  237MOL   C18347855   5.198   4.293   7.196 -0.8407 -0.7366 -0.3443
  237MOL   O18447856   5.099   4.350   7.282 -0.0869 -0.1189 -0.7208
  237MOL   C18547857   4.986   4.263   7.287 -0.4554 -0.4411  0.3052
  237MOL   H18647858   5.358   4.229   7.332  1.5870 -0.1551 -0.9750
  237MOL   H18747859   5.218   4.144   7.364  2.0133 -1.0428  0.0583
  237MOL   H18847860   5.152   4.246   7.110  1.6895 -0.4950 -1.8848
  237MOL   H18947861   4.932   4.321   7.362  0.6427  0.7866  0.1497
  237MOL   H19047862   4.938   4.242   7.191 -0.9027 -1.3949  0.7277
  237MOL   H19147863   5.011   4.165   7.328 -1.6813 -1.3966 -1.1590
  237MOL   C19247864   5.294   4.406   7.153 -0.1763  0.1919 -0.4092
  237MOL   C19347865   5.227   4.514   7.075  0.3113  0.0298  0.8806
  237MOL   O19447866   5.324   4.611   7.027 -0.1797  0.4773  0.3103
  237MOL   C19547867   5.243   4.704   6.953  0.1369 -0.4863 -0.7593
  237MOL   H19647868   5.365   4.378   7.075  0.0433  0.7953 -0.4296
  237MOL   H19747869   5.346   4.455   7.235 -0.0698  1.2379 -1.0914
  237MOL   H19847870   5.153   4.567   7.135  1.4174  0.9577  1.4395
  237MOL   H19947871   5.168   4.741   7.022  0.7445 -1.7736  0.6154
  237MOL   H20047872   5.301   4.792   6.922 -1.1834  0.8119  0.3843
  237MOL   H20147873   5.219   4.646   6.864  2.0190 -0.3893 -1.3718
  237MOL   H20247874   5.182   4.459   6.993  0.3167 -0.1610  1.0052
  238MOL     C147875   6.457   2.361   0.091  0.2989 -0.1034  0.6041
  238MOL     C247876   6.439   2.231   0.007  1.2410  0.3973  0.5582
  238MOL     O347877   6.478   2.115   0.078 -0.1843 -0.2169 -0.1744
  238MOL     C447878   6.616   2.094   0.103 -0.3388  0.0548 -0.0754
  238MOL     H547879   6.406   2.355   0.188  1.8518  3.1625  1.6873
  238MOL     H647880   6.562   2.373   0.115  0.3369 -1.1086  0.9814
  238MOL     H747881   6.485   2.237   7.719 -1.7575  1.5677 -0.8372
  238MOL     H847882   6.657   2.158   0.182  0.1510 -0.9237  0.4806
  238MOL     H947883   6.633   1.992   0.138 -0.7819  0.4959  1.4805
  238MOL    H1047884   6.685   2.103   0.019  1.3462  1.5718  1.4343
  238MOL    H1147885   6.421   2.452   0.044  0.9038 -0.3344 -0.3040
  238MOL    C1247886   6.290   2.207   7.774  0.0223  0.4247 -0.6682
  238MOL    C1347887   6.176   2.227   0.069  0.3058  0.8295 -0.2548
  238MOL    O1447888   6.055   2.175   0.001  0.8521 -0.1268 -0.4334
  238MOL    C1547889   5.989   2.275   7.732  0.4457  0.0390 -0.4009
  238MOL    H1647890   6.283   2.105   7.736 -0.8309  0.3021 -0.2020
  238MOL    H1747891   6.262   2.280   7.698 -1.4532  0.8192  0.2478
  238MOL    H1847892   6.178   2.325   0.116  2.4111  0.4696  0.4538
  238MOL    H1947893   6.047   2.323   7.653  2.6198 -0.2102  0.9937
  238MOL    H2047894   5.903   2.223   7.690  0.0098 -1.1788  1.8976
  238MOL    H2147895   5.947   2.354   7.794 -0.9854 -0.6527 -0.4622
  238MOL    C2247896   6.192   2.138   0.195  0.2458 -0.1990 -0.0359
  238MOL    C2347897   6.064   2.126   0.277 -0.1233 -0.4832 -0.9147
  238MOL    O2447898   6.068   2.010   0.360 -0.3469  0.1985  0.6321
  238MOL    C2547899   5.947   1.936   0.364  0.7494 -0.1256  0.7045
  238MOL    H2647900   6.276   2.171   0.257 -0.4074 -0.6317  1.0936
  238MOL    H2747901   6.217   2.035   0.167 -0.4927 -0.4076  0.0797
  238MOL    H2847902   5.978   2.116   0.210  0.3281 -0.5232 -1.4821
  238MOL    H2947903   5.857   1.996   0.347  1.1947  0.8282  1.6440
  238MOL    H3047904   5.932   1.850   0.299 -2.4747 -0.4267  1.7384
  238MOL    H3147905   5.929   1.889   0.461 -4.4668  1.8115  0.8394
  238MOL    C3247906   6.036   2.251   0.360  0.4709 -0.7432  0.5647
  238MOL    C3347907   5.886   2.283   0.376 -0.2245 -0.6109  0.2474
  238MOL    O3447908   5.878   2.392   0.468 -0.5866  0.2814 -0.3447
  238MOL    C3547909   5.867   2.347   0.601  0.2968  0.0279 -0.0459
  238MOL    H3647910   6.106   2.333   0.344 -0.8571  0.2830 -0.1148
  238MOL    H3747911   6.065   2.219   0.460  0.7321 -0.4804  0.5743
  238MOL    H3847912   5.830   2.197   0.413 -2.0797 -0.1635 -1.4268
  238MOL    H3947913   5.775   2.303   0.639  1.4328 -1.2111  1.3387
  238MOL    H4047914   5.947   2.277   0.626  0.9361  0.3995 -1.0641
  238MOL    H4147915   5.906   2.431   0.659  0.4211  0.3939 -0.6623
  238MOL    C4247916   5.826   2.336   0.242 -0.1120 -0.1567  0.3052
  238MOL    C4347917   5.680   2.286   0.220 -0.1932 -0.3285 -0.7280
  238MOL    O4447918   5.651   2.150   0.234 -0.5176 -0.2128  0.5569
  238MOL    C4547919   5.664   2.072   0.116  0.0882  0.2494 -0.6885
  238MOL    H4647920   5.879   2.294   0.156 -0.9933  0.4944 -0.5672
  238MOL    H4747921   5.831   2.444   0.236 -1.6229 -0.1308 -0.7026
  238MOL    H4847922   5.656   2.325   0.121 -0.0212  1.2785 -0.1512
  238MOL    H4947923   5.768   2.062   0.086  1.5392  1.3160  3.6718
  238MOL    H5047924   5.623   1.973   0.135  0.4755 -0.4461 -3.2382
  238MOL    H5147925   5.606   2.115   0.034  0.6861  0.3286 -1.0732
  238MOL    C5247926   5.582   2.366   0.306  0.6896 -0.3525 -1.0051
  238MOL    C5347927   5.431   2.343   0.281 -0.5040 -0.6294  1.0932
  238MOL    O5447928   5.363   2.444   0.356  0.2693 -0.2444 -0.0510
  238MOL    C5547929   5.347   2.405   0.490  0.2827 -0.2813 -0.2372
  238MOL    H5647930   5.594   2.474   0.302 -0.2967 -0.1266  1.2701
  238MOL    H5747931   5.603   2.346   0.411  0.9206  0.9956 -0.7909
  238MOL    H5847932   5.400   2.250   0.327 -2.8504  0.5268  1.9199
  238MOL    H5947933   5.282   2.471   0.547  0.5362 -0.3158  0.0946
  238MOL    H6047934   5.291   2.311   0.491  0.4398 -0.3924 -1.5264
  238MOL    H6147935   5.425   2.403   0.566  1.4662  1.1128 -1.4089
  238MOL    C6247936   5.389   2.367   0.133 -0.3948  0.3595  0.0768
  238MOL    C6347937   5.243   2.343   0.108  0.4313  0.4158  0.0388
  238MOL    O6447938   5.214   2.411   7.797  0.1548 -0.0997  0.6595
  238MOL    C6547939   5.155   2.544   0.001 -0.0899  0.0551 -0.2321
  238MOL    H6647940   5.448   2.308   0.064  2.0861  2.7364  0.0894
  238MOL    H6747941   5.410   2.473   0.118  1.5323  0.2077  1.4727
  238MOL    H6847942   5.181   2.388   0.186  0.4142  0.8047 -0.1951
  238MOL    H6947943   5.070   2.551   0.069 -0.1755 -2.2522 -0.0775
  238MOL    H7047944   5.233   2.611   0.037  2.5515 -2.4940 -0.9930
  238MOL    H7147945   5.133   2.587   7.714 -0.8117 -1.8174 -0.9057
  238MOL    C7247946   5.215   2.193   0.084 -0.2729  0.1780  0.4320
  238MOL    C7347947   5.068   2.162   0.081 -0.2630  0.2521  0.4690
  238MOL    O7447948   5.040   2.067   7.793  0.7824 -0.2274  0.3351
  238MOL    C7547949   5.023   2.128   7.672  0.1774  0.3350  0.3841
  238MOL    H7647950   5.255   2.139   0.170 -0.1791 -0.0778  0.2289
  238MOL    H7747951   5.271   2.181   7.802 -0.3836 -0.0676  0.3965
  238MOL    H7847952   5.015   2.257   0.081  1.9232  1.5907 -3.4926
  238MOL    H7947953   4.940   2.199   7.665 -0.2980 -0.2288  0.2381
  238MOL    H8047954   5.112   2.184   7.645  0.2741 -0.0454 -0.0883
  238MOL    H8147955   5.018   2.050   7.596 -1.4449  0.9263 -0.1353
  238MOL    C8247956   5.011   2.076   0.201  0.7301 -1.1312 -0.2432
  238MOL    C8347957   5.013   2.116   0.345 -0.5142  0.2851 -0.5647
  238MOL    O8447958   5.152   2.127   0.383  0.0335  0.0826 -0.3160
  238MOL    C8547959   5.195   2.010   0.457 -0.5352 -0.7087  0.2708
  238MOL    H8647960   5.065   1.983   0.185  0.9162 -0.8912 -1.0483
  238MOL    H8747961   4.908   2.057   0.169 -0.0635  0.5765  1.2350
  238MOL    H8847962   4.954   2.056   0.414  1.3252  0.0442  0.8489
  238MOL    H8947963   5.150   2.000   0.556 -2.9278  0.7613 -0.6253
  238MOL    H9047964   5.173   1.922   0.397  1.4536 -0.9446 -0.1155
  238MOL    H9147965   5.302   2.015   0.474 -0.5940 -0.2706  0.5513
  238MOL    C9247966   4.960   2.256   0.364  0.1448  0.2794 -0.2497
  238MOL    C9347967   4.949   2.316   0.506  0.4941  0.0430  0.6652
  238MOL    O9447968   4.880   2.444   0.489  0.2275 -0.1851 -0.2382
  238MOL    C9547969   4.949   2.555   0.442 -0.2964 -0.4779 -0.3859
  238MOL    H9647970   4.865   2.270   0.311  1.0646 -0.9394 -2.2821
  238MOL    H9747971   5.032   2.326   0.321  0.0173  0.7543  0.3040
  238MOL    H9847972   5.042   2.329   0.562  0.9314  1.5169 -0.3838
  238MOL    H9947973   4.971   2.545   0.335  0.4992  1.1530 -0.3798
  238MOL   H10047974   4.898   2.648   0.466 -1.8890 -1.1699 -0.9727
  238MOL   H10147975   5.045   2.559   0.492 -0.0333  1.5992 -1.0357
  238MOL   C10247976   4.860   2.238   0.604 -0.5446 -0.2679 -0.1354
  238MOL   C10347977   4.879   2.279   0.754 -0.0308 -0.2212 -0.7755
  238MOL   O10447978   5.006   2.233   0.807  0.2701 -0.2406  0.0051
  238MOL   C10547979   4.995   2.178   0.947 -0.0487 -0.3117 -0.2513
  238MOL   H10647980   4.883   2.132   0.608  0.8979  0.0765  2.3200
  238MOL   H10747981   4.758   2.236   0.568  0.3034  0.7350 -2.7119
  238MOL   H10847982   4.809   2.218   0.811  0.6683  1.4479  1.9549
  238MOL   H10947983   4.909   2.113   0.964  1.3270 -2.4800 -1.3615
  238MOL   H11047984   5.081   2.114   0.966  0.4915  0.5551  0.2629
  238MOL   H11147985   4.980   2.258   1.020  2.0895  1.2974 -1.5151
  238MOL   C11247986   4.849   2.427   0.795 -0.1998 -0.6648 -0.3757
  238MOL   C11347987   4.708   2.481   0.756  0.0419  0.3033 -0.4201
  238MOL   O11447988   4.636   2.413   0.852  0.7487 -0.4331 -0.0786
  238MOL   C11547989   4.524   2.338   0.802  0.0274 -0.7057  0.0460
  238MOL   H11647990   4.925   2.473   0.731 -1.7619 -1.7196 -3.0794
  238MOL   H11747991   4.880   2.447   0.897 -1.1100  1.7480 -0.5306
  238MOL   H11847992   4.680   2.447   0.656  0.1583  1.3443 -0.8119
  238MOL   H11947993   4.554   2.256   0.737  2.6339 -1.3265  1.9578
  238MOL   H12047994   4.472   2.296   0.888  1.9712  0.1663  1.6936
  238MOL   H12147995   4.453   2.402   0.750 -0.6115 -2.0548 -0.7627
  238MOL   C12247996   4.704   2.632   0.770 -0.3330 -0.4764 -0.2963
  238MOL   C12347997   4.565   2.707   0.752  0.1143 -0.6160 -0.0881
  238MOL   O12447998   4.596   2.844   0.778 -0.1852 -0.4289  0.5761
  238MOL   C12547999   4.525   2.903   0.887 -0.0973 -0.6605  0.1905
  238MOL   H12648000   4.775   2.671   0.698  0.7313 -1.1528  0.3680
  238MOL   H12748001   4.755   2.657   0.863 -0.5929  0.1176 -0.3118
  238MOL   H12848002   4.499   2.669   0.831 -3.1522  0.4637 -2.2193
  238MOL   H12948003   4.548   3.006   0.913 -0.0122 -0.6755  0.1757
  238MOL   H13048004   4.418   2.897   0.868 -0.2528  1.5511  0.2657
  238MOL   H13148005   4.547   2.847   0.978 -3.7786 -0.4132  1.3013
  238MOL   C13248006   4.504   2.687   0.618  0.1766 -0.3034 -0.4961
  238MOL   C13348007   4.360   2.746   0.603 -0.3805 -0.8451 -0.1779
  238MOL   O13448008   4.325   2.736   0.465 -0.6952 -0.0937 -0.2377
  238MOL   C13548009   4.315   2.863   0.401  0.1621  0.3169 -0.1161
  238MOL   H13648010   4.500   2.579   0.600 -0.5260 -0.0490 -1.9503
  238MOL   H13748011   4.584   2.722   0.552  1.3382 -0.3362  0.8603
  238MOL   H13848012   4.372   2.848   0.638 -0.0335 -1.5098  1.6838
  238MOL   H13948013   4.398   2.929   0.426  1.0481 -0.8050  0.0092
  238MOL   H14048014   4.310   2.854   0.293  0.2624  1.8044 -0.2422
  238MOL   H14148015   4.218   2.904   0.428  0.2936 -0.5076  1.7302
  238MOL   C14248016   4.243   2.689   0.686 -0.5473  0.0905 -0.0843
  238MOL   C14348017   4.104   2.746   0.669  0.0209  0.0952  0.6785
  238MOL   O14448018   4.006   2.672   0.733 -0.5679  0.0620  0.0770
  238MOL   C14548019   3.959   2.562   0.653 -0.4710  0.4703 -0.0207
  238MOL   H14648020   4.270   2.675   0.790 -2.1311  2.2463  0.6592
  238MOL   H14748021   4.238   2.585   0.654  2.1932 -0.9641  2.6624
  238MOL   H14848022   4.088   2.757   0.562 -0.9366 -1.0107  0.6891
  238MOL   H14948023   3.889   2.503   0.713  0.4351  1.2788  1.8801
  238MOL   H15048024   3.925   2.591   0.554 -2.5977  1.0268  0.8336
  238MOL   H15148025   4.044   2.497   0.632  0.4428  1.7541 -0.3173
  238MOL   C15248026   4.096   2.884   0.731  0.2449 -0.6362  0.2455
  238MOL   C15348027   3.963   2.958   0.738 -0.1339  0.9649  0.7112
  238MOL   O15448028   3.982   3.076   0.813 -0.6428 -0.0951  0.1201
  238MOL   C15548029   3.894   3.091   0.924  0.2414  0.1649  0.2030
  238MOL   H15648030   4.163   2.956   0.685  0.3371  0.0161  1.3986
  238MOL   H15748031   4.126   2.879   0.836  0.1723 -0.0829  0.2909
  238MOL   H15848032   3.887   2.894   0.784 -1.3942  0.7540 -1.5682
  238MOL   H15948033   3.796   3.119   0.887 -0.5151  1.6432  3.1316
  238MOL   H16048034   3.885   3.004   0.990  0.4424 -0.0859 -0.0997
  238MOL   H16148035   3.934   3.170   0.988  0.5974 -0.0194  0.2095
  238MOL   C16248036   3.912   2.980   0.591 -0.5271 -0.3725 -0.1358
  238MOL   C16348037   3.775   3.046   0.579  0.5562  0.2157  0.1169
  238MOL   O16448038   3.741   3.062   0.441 -0.2621  0.6568  0.3471
  238MOL   C16548039   3.789   3.169   0.368 -0.8162 -0.1704  0.2028
  238MOL   H16648040   3.916   2.888   0.534 -0.0458 -0.6154  0.2832
  238MOL   H16748041   3.991   3.039   0.544  1.0610 -1.3303  1.2945
  238MOL   H16848042   3.785   3.149   0.614  0.1938 -0.9532  3.9067
  238MOL   H16948043   3.898   3.175   0.373 -0.6711 -0.6982 -1.8789
  238MOL   H17048044   3.771   3.155   0.261 -1.7392 -2.7185  0.6357
  238MOL   H17148045   3.753   3.265   0.403  0.5795 -0.3933  2.3514
  238MOL   C17248046   3.661   2.973   0.659 -0.1343  0.4701 -0.1550
  238MOL   C17348047   3.521   3.046   0.651 -0.1651  0.2228  0.7196
  238MOL   O17448048   3.423   2.972   0.726  0.0934  0.5514  0.0543
  238MOL   C17548049   3.366   2.869   0.649  0.3687  0.1862  0.2711
  238MOL   H17648050   3.695   2.956   0.762 -0.5013 -2.2072 -0.4634
  238MOL   H17748051   3.636   2.874   0.623  2.0822 -0.7809  1.5631
  238MOL   H17848052   3.492   3.069   0.549  0.3992  0.0657  0.5219
  238MOL   H17948053   3.287   2.903   0.582  0.1040  0.1214  0.5516
  238MOL   H18048054   3.439   2.803   0.600 -0.6914  0.2296 -1.4129
  238MOL   H18148055   3.330   2.797   0.722 -0.9571  0.9031  0.3253
  238MOL   C18248056   3.514   3.178   0.737  0.1664  0.1833 -0.4288
  238MOL   C18348057   3.390   3.267   0.712  0.5260 -0.2591  0.1630
  238MOL   O18448058   3.385   3.382   0.794 -0.3750  0.0069  0.1734
  238MOL   C18548059   3.309   3.360   0.911 -0.2380 -0.2822 -0.3997
  238MOL   H18648060   3.602   3.241   0.725  0.2363 -0.1284 -1.6440
  238MOL   H18748061   3.514   3.156   0.844 -2.5140 -0.9355 -0.6311
  238MOL   H18848062   3.297   3.211   0.722  0.4556 -0.0715  0.5578
  238MOL   H18948063   3.304   3.455   0.965  1.3394  1.0978 -2.6179
  238MOL   H19048064   3.209   3.334   0.876  0.1468 -0.3573 -1.4587
  238MOL   H19148065   3.355   3.287   0.978 -1.2330 -0.3279  0.2538
  238MOL   C19248066   3.373   3.320   0.567 -0.0752 -0.2834  0.2165
  238MOL   C19348067   3.487   3.407   0.522  0.8304  0.1348 -0.1068
  238MOL   O19448068   3.451   3.475   0.406  0.7564  0.7836  0.3920
  238MOL   C19548069   3.561   3.545   0.352 -0.3483 -0.1462 -0.6609
  238MOL   H19648070   3.277   3.370   0.553 -0.4755  0.0300  3.6821
  238MOL   H19748071   3.370   3.245   0.488 -3.1597  0.4154 -0.4086
  238MOL   H19848072   3.584   3.358   0.513  0.8501  0.3095 -0.9081
  238MOL   H19948073   3.606   3.626   0.411 -0.4882  1.2840 -2.4520
  238MOL   H20048074   3.647   3.490   0.314 -0.8378 -0.6343 -1.0649
  238MOL   H20148075   3.522   3.592   0.261 -0.2825 -0.8491 -1.0527
  238MOL   H20248076   3.494   3.494   0.588 -0.6394 -0.5098  0.9188
  239MOL     C148077   7.588   7.559   1.286 -0.4791 -0.5991  0.1511
  239MOL     C248078   7.631   7.494   1.421  0.3777  0.7073  0.3921
  239MOL     O348079   7.731   7.409   1.388 -0.3997 -0.0980 -0.5816
  239MOL     C448080   7.693   7.271   1.400 -0.6409 -0.1902  0.8711
  239MOL     H548081   7.578   7.487   1.204  0.6075 -0.9210  0.2956
  239MOL     H648082   7.493   7.611   1.293 -0.1528  0.1699 -1.0714
  239MOL     H748083   7.544   7.445   1.466  0.0886  1.5295  0.7371
  239MOL     H848084   7.782   7.222   1.359  0.7064  0.7525  2.6211
  239MOL     H948085   7.705   7.242   1.504 -0.7140 -2.3077  0.3178
  239MOL    H1048086   7.594   7.249   1.362  0.2514 -1.3252 -0.9108
  239MOL    H1148087   7.669   7.625   1.255 -0.9838 -0.5369 -1.0679
  239MOL    C1248088   7.678   7.592   1.525  0.1593 -0.0304 -0.4564
  239MOL    C1348089   7.731   7.532   1.658 -0.4473  0.6979  0.3131
  239MOL    O1448090   7.784   7.627   1.753 -0.5492  0.2376  0.0325
  239MOL    C1548091   0.089   7.696   1.708 -0.6860 -0.2577 -0.1110
  239MOL    H1648092   7.599   7.663   1.550 -0.2741 -0.3324 -0.9533
  239MOL    H1748093   7.749   7.659   1.477 -1.1189  1.1866 -0.6986
  239MOL    H1848094   0.004   7.466   1.633 -0.4371  0.2988  1.3583
  239MOL    H1948095   0.113   7.761   1.791 -1.0904 -2.7680  2.0573
  239MOL    H2048096   0.166   7.634   1.661 -2.1673 -1.4352 -1.0714
  239MOL    H2148097   0.059   7.764   1.628  1.2743 -0.5384 -1.1143
  239MOL    C2248098   7.628   7.445   1.739 -0.0184  0.4360 -0.3828
  239MOL    C2348099   7.692   7.372   1.859 -0.6355  0.1221 -0.4204
  239MOL    O2448100   7.589   7.317   1.944 -0.3898 -0.4127  0.1417
  239MOL    C2548101   7.562   7.398   2.051 -0.0623 -0.0642 -0.4574
  239MOL    H2648102   7.573   7.382   1.669 -1.1103  0.3148  0.5733
  239MOL    H2748103   7.552   7.514   1.776 -1.7882 -1.2499 -0.8011
  239MOL    H2848104   7.756   7.445   1.908 -1.0823  1.1681 -1.3923
  239MOL    H2948105   7.501   7.348   2.126  1.0151 -0.3188  0.2584
  239MOL    H3048106   7.660   7.420   2.094 -0.1626  1.1407 -0.8206
  239MOL    H3148107   7.517   7.491   2.016 -0.0481 -0.0697 -0.4894
  239MOL    C3248108   7.786   7.254   1.799 -0.3872  0.1350 -0.5290
  239MOL    C3348109   0.069   7.183   1.899 -0.7375  1.1320 -1.1436
  239MOL    O3448110   0.153   7.087   1.835 -0.0565  0.0893 -0.0127
  239MOL    C3548111   0.095   6.957   1.823  0.0325  0.2047 -0.8661
  239MOL    H3648112   0.024   7.268   1.702 -2.2278  0.2154 -1.4643
  239MOL    H3748113   7.715   7.173   1.779 -0.5535  0.3720 -0.9220
  239MOL    H3848114   7.802   7.134   1.959  0.4246 -2.1717 -2.2004
  239MOL    H3948115   0.069   6.919   1.922  1.6221  0.2505 -0.4091
  239MOL    H4048116   0.006   6.956   1.762 -1.0221 -1.1579  0.6413
  239MOL    H4148117   0.170   6.888   1.783  2.7413  1.7081  1.3556
  239MOL    C4248118   0.166   7.282   1.969  0.4039  0.9734 -0.4573
  239MOL    C4348119   0.298   7.231   2.028 -0.2859 -0.4226 -0.0851
  239MOL    O4448120   0.357   7.353   2.068  0.1726 -0.6717 -0.1065
  239MOL    C4548121   0.497   7.352   2.078 -0.2126 -0.1453  0.0446
  239MOL    H4648122   0.111   7.349   2.035 -0.2331 -0.0346  0.0451
  239MOL    H4748123   0.185   7.345   1.882  2.5298  0.5345 -0.3376
  239MOL    H4848124   0.361   7.187   1.950 -0.4553 -1.0024  0.1012
  239MOL    H4948125   0.541   7.282   2.149  0.7597 -0.1736 -0.5650
  239MOL    H5048126   0.545   7.315   1.988  1.0916  3.3898 -0.8000
  239MOL    H5148127   0.521   7.457   2.093 -2.8119  0.3234  1.2521
  239MOL    C5248128   0.285   7.143   2.151  0.2976  0.3337 -0.3508
  239MOL    C5348129   0.383   7.029   2.175 -0.5821  0.7089  0.9097
  239MOL    O5448130   0.353   6.978   2.307 -0.6056 -0.6166 -0.1326
  239MOL    C5548131   0.451   7.024   2.402  0.1830  0.4746  0.1466
  239MOL    H5648132   0.186   7.101   2.136  0.2234  0.1804  0.5069
  239MOL    H5748133   0.274   7.201   2.243 -2.1609  1.2004 -1.1598
  239MOL    H5848134   0.482   7.067   2.153 -1.0400  0.2323 -2.0963
  239MOL    H5948135   0.482   7.128   2.415 -0.6127  0.5393  1.6150
  239MOL    H6048136   0.407   6.998   2.498 -2.6215  1.0412 -0.9465
  239MOL    H6148137   0.540   6.961   2.390  0.7661  1.2272  0.4716
  239MOL    C6248138   0.357   6.912   2.080 -0.3058  0.4268  0.3841
  239MOL    C6348139   0.475   6.808   2.067 -0.4591 -0.4322 -0.8999
  239MOL    O6448140   0.411   6.692   2.007  0.0834 -0.1994  0.0687
  239MOL    C6548141   0.400   6.580   2.089  0.0256 -0.9082  0.4007
  239MOL    H6648142   0.325   6.944   1.981  0.2834 -0.1505 -0.0011
  239MOL    H6748143   0.272   6.859   2.123 -0.5096 -1.6420 -2.3879
  239MOL    H6848144   0.516   6.798   2.167  0.6364  1.8718 -1.0841
  239MOL    H6948145   0.500   6.540   2.106 -0.5725 -1.4887  2.7461
  239MOL    H7048146   0.358   6.618   2.182 -1.0689  3.0439 -1.6505
  239MOL    H7148147   0.336   6.503   2.046 -0.9654 -0.2018  0.6028
  239MOL    C7248148   0.592   6.863   1.974 -0.5238  0.0311 -0.0702
  239MOL    C7348149   0.731   6.797   1.979 -0.3473  0.3859  0.6470
  239MOL    O7448150   0.701   6.664   1.940 -0.1547  0.0493 -0.3093
  239MOL    C7548151   0.816   6.580   1.959 -0.9463 -0.3233 -0.9669
  239MOL    H7648152   0.595   6.970   1.992 -0.0940  0.3657 -1.9906
  239MOL    H7748153   0.549   6.857   1.874  1.4706  0.8286 -1.0120
  239MOL    H7848154   0.774   6.797   2.079  1.6228 -1.1998 -0.1673
  239MOL    H7948155   0.792   6.477   1.984  0.0830 -0.5710 -0.9824
  239MOL    H8048156   0.884   6.575   1.874 -1.8225  0.8256 -1.7559
  239MOL    H8148157   0.874   6.612   2.046 -1.2542  1.4812 -1.3945
  239MOL    C8248158   0.822   6.863   1.878  0.1585 -0.2673  0.2250
  239MOL    C8348159   0.892   6.994   1.909  0.6591  0.5697 -0.1466
  239MOL    O8448160   0.796   7.091   1.945  0.1630  0.0278  0.0024
  239MOL    C8548161   0.822   7.218   1.884  0.2553  0.9773  0.1159
  239MOL    H8648162   0.761   6.864   1.787 -1.7235 -2.5541  1.4144
  239MOL    H8748163   0.907   6.799   1.856 -0.5770 -0.7887 -1.1203
  239MOL    H8848164   0.945   7.019   1.817 -1.9571 -1.6109 -2.3303
  239MOL    H8948165   0.923   7.248   1.912  1.1619 -2.3670  0.7496
  239MOL    H9048166   0.825   7.205   1.776  1.6361  1.9552  0.0201
  239MOL    H9148167   0.744   7.284   1.921  0.6542  0.5153  1.8552
  239MOL    C9248168   0.990   6.985   2.023 -0.4063 -0.1250 -0.2486
  239MOL    C9348169   1.117   6.910   1.988  0.4493 -0.4799 -0.4462
  239MOL    O9448170   1.222   6.991   1.919  0.2473 -0.4713  0.3963
  239MOL    C9548171   1.198   7.023   1.781  0.0922  0.8272  0.2726
  239MOL    H9648172   0.944   6.946   2.114  1.1554 -0.6937  0.3078
  239MOL    H9748173   1.027   7.082   2.058 -0.2516  0.1430 -1.1470
  239MOL    H9848174   1.094   6.820   1.931 -0.1424 -1.2170  0.9561
  239MOL    H9948175   1.155   6.938   1.728 -1.1950  0.9973  1.0230
  239MOL   H10048176   1.142   7.117   1.771  0.9820  1.4607  1.1992
  239MOL   H10148177   1.289   7.045   1.726 -0.3810  0.5849 -0.6202
  239MOL   C10248178   1.198   6.873   2.111 -0.4447  0.2081  0.1915
  239MOL   C10348179   1.132   6.770   2.214  0.0937 -0.7026  0.3998
  239MOL   O10448180   1.104   6.649   2.151 -0.7887 -0.3926  0.0726
  239MOL   C10548181   1.212   6.564   2.112  0.4564  0.8714 -0.4009
  239MOL   H10648182   1.221   6.965   2.165  0.0835  0.0005  0.3255
  239MOL   H10748183   1.298   6.837   2.088  0.5923  2.3297  1.2954
  239MOL   H10848184   1.039   6.809   2.254 -0.5997 -1.8718 -0.0553
  239MOL   H10948185   1.180   6.468   2.071 -0.1424  0.8592  0.0899
  239MOL   H11048186   1.258   6.605   2.022  1.5489  0.6236  0.0410
  239MOL   H11148187   1.280   6.531   2.191  0.7690 -1.8406 -1.7110
  239MOL   C11248188   1.222   6.767   2.345  0.0748  0.7667  1.0179
  239MOL   C11348189   1.166   6.696   2.472 -0.3440 -0.4610  0.0898
  239MOL   O11448190   1.246   6.736   2.583 -0.4283 -0.2170  0.4482
  239MOL   C11548191   1.364   6.666   2.596  0.7221  0.8667 -0.3156
  239MOL   H11648192   1.235   6.871   2.377 -0.1922  1.8818 -2.3259
  239MOL   H11748193   1.317   6.725   2.311 -0.0847  1.4744 -0.3170
  239MOL   H11848194   1.175   6.589   2.456 -0.7210 -0.5654  0.5648
  239MOL   H11948195   1.404   6.694   2.694  3.4494  2.9650 -1.9500
  239MOL   H12048196   1.349   6.558   2.595  0.3691  0.9171 -0.3975
  239MOL   H12148197   1.444   6.678   2.523  1.3644 -0.5831  0.1410
  239MOL   C12248198   1.013   6.720   2.502 -0.6428  0.2564 -0.1791
  239MOL   C12348199   0.921   6.620   2.428 -1.0834  0.4285  0.5191
  239MOL   O12448200   0.912   6.514   2.517  0.2883 -0.1733  0.6959
  239MOL   C12548201   0.881   6.385   2.472 -0.1531  0.0712 -0.1699
  239MOL   H12648202   0.992   6.825   2.479 -0.1842  0.7263  1.4946
  239MOL   H12748203   1.007   6.703   2.609  0.5782 -2.5931 -0.5199
  239MOL   H12848204   0.967   6.591   2.333 -1.9570  0.0855  0.1951
  239MOL   H12948205   0.961   6.334   2.419  1.0153 -0.8785  2.4355
  239MOL   H13048206   0.853   6.326   2.559  0.8906 -0.1987 -0.0107
  239MOL   H13148207   0.795   6.406   2.409  0.0725  1.0463 -0.1513
  239MOL   C13248208   0.779   6.690   2.406  0.3049  0.0439  0.0134
  239MOL   C13348209   0.704   6.736   2.532  0.0448 -0.2453  0.3436
  239MOL   O13448210   0.718   6.885   2.530  0.6588  0.1648  0.4215
  239MOL   C13548211   0.766   6.933   2.655  0.4316 -0.3781 -0.1923
  239MOL   H13648212   0.712   6.624   2.351 -0.0274 -0.7873  1.3654
  239MOL   H13748213   0.798   6.782   2.351  3.1580  0.1879  1.1028
  239MOL   H13848214   0.752   6.693   2.619 -2.5381 -1.3088  1.2980
  239MOL   H13948215   0.872   6.909   2.658  0.6843  0.9367  3.4755
  239MOL   H14048216   0.770   7.041   2.671  1.1016 -0.6735  1.7860
  239MOL   H14148217   0.716   6.898   2.745  1.1406 -1.7168 -0.3114
  239MOL   C14248218   0.558   6.706   2.523  0.5997 -0.1100  0.2962
  239MOL   C14348219   0.524   6.563   2.567  0.1919  0.0439  0.2411
  239MOL   O14448220   0.520   6.547   2.703  0.0835  0.2795 -0.4086
  239MOL   C14548221   0.589   6.431   2.762  0.4111 -0.2074  0.3162
  239MOL   H14648222   0.519   6.729   2.423 -2.4970  2.4146  2.0014
  239MOL   H14748223   0.516   6.783   2.587  1.3450  2.4421 -2.1806
  239MOL   H14848224   0.597   6.503   2.514 -1.1644 -0.0960 -1.5175
  239MOL   H14948225   0.692   6.431   2.726 -0.6800  3.2222 -3.1450
  239MOL   H15048226   0.595   6.418   2.870 -0.6197  0.9891  0.5330
  239MOL   H15148227   0.539   6.340   2.730  4.0590 -2.6430  1.3174
  239MOL   C15248228   0.389   6.505   2.512  0.8724  0.0627  0.5343
  239MOL   C15348229   0.264   6.589   2.509  0.1001 -0.1695 -0.0633
  239MOL   O15448230   0.180   6.534   2.409  0.0992  0.2215 -0.0162
  239MOL   C15548231   0.079   6.634   2.374 -0.3957  0.6821  0.1642
  239MOL   H15648232   0.371   6.406   2.553 -1.9173 -0.0591 -0.8693
  239MOL   H15748233   0.415   6.479   2.409  0.0374  2.3854 -0.2917
  239MOL   H15848234   0.284   6.692   2.480  1.4355 -0.5256 -0.4386
  239MOL   H15948235   0.010   6.589   2.303  1.0524  3.0455 -2.8276
  239MOL   H16048236   0.011   6.662   2.455 -3.7758 -1.3079 -1.9012
  239MOL   H16148237   0.122   6.719   2.322 -0.9695  0.2338 -1.0508
  239MOL   C16248238   0.197   6.597   2.650 -0.4103  0.2661 -0.2311
  239MOL   C16348239   0.179   6.732   2.710  0.3681  0.2727 -0.6202
  239MOL   O16448240   0.058   6.796   2.680  0.3372 -0.7873 -0.3185
  239MOL   C16548241   0.070   6.902   2.587 -0.5442  0.1344 -0.2397
  239MOL   H16648242   0.269   6.549   2.716 -0.7791 -0.2804 -0.2271
  239MOL   H16748243   0.098   6.553   2.656  0.0055 -1.0176 -2.0529
  239MOL   H16848244   0.266   6.793   2.689  1.2036 -1.8034 -3.2986
  239MOL   H16948245   7.786   6.955   2.587 -0.7999 -0.3162 -0.1631
  239MOL   H17048246   0.151   6.969   2.617 -0.0931 -0.2498 -0.5817
  239MOL   H17148247   0.103   6.873   2.487 -1.9689 -1.6060 -0.2295
  239MOL   C17248248   0.170   6.721   2.866  0.2205  0.6370  0.0620
  239MOL   C17348249   0.153   6.856   2.942  0.8774  0.1842 -0.6572
  239MOL   O17448250   0.010   6.877   2.940  0.2135  0.2244  0.1486
  239MOL   C17548251   7.785   7.009   2.927 -0.2110 -0.7250  0.4190
  239MOL   H17648252   0.266   6.678   2.894 -0.6306 -1.5436 -0.2784
  239MOL   H17748253   0.086   6.658   2.895  2.3382 -1.7792  1.0983
  239MOL   H17848254   0.200   6.938   2.888  0.3362  1.0180  0.1392
  239MOL   H17948255   7.680   7.026   2.947 -0.0530  2.7494 -1.3351
  239MOL   H18048256   0.026   7.076   2.997  0.9507  0.8322 -1.8398
  239MOL   H18148257   7.810   7.051   2.830  0.9975  1.8500  1.7899
  239MOL   C18248258   0.196   6.854   3.092  0.8613  0.1392 -0.1440
  239MOL   C18348259   0.350   6.825   3.116 -0.0544 -0.9029 -0.1126
  239MOL   O18448260   0.418   6.943   3.059 -0.5309  0.1467  0.0435
  239MOL   C18548261   0.523   6.890   2.976 -0.0732 -0.0108 -0.3243
  239MOL   H18648262   0.128   6.783   3.139  2.0186 -0.3549  0.8062
  239MOL   H18748263   0.157   6.949   3.128 -0.5455 -0.7531  0.7343
  239MOL   H18848264   0.375   6.726   3.078  1.8454 -1.0866  1.5372
  239MOL   H18948265   0.479   6.841   2.889  0.8607  0.2053 -0.9411
  239MOL   H19048266   0.595   6.958   2.930  0.2069 -0.4152 -0.4896
  239MOL   H19148267   0.586   6.814   3.023 -0.9663  0.9272  2.4635
  239MOL   C19248268   0.368   6.813   3.268 -0.5904 -0.1317  0.2402
  239MOL   C19348269   0.496   6.742   3.312 -0.1631 -0.1416  0.8067
  239MOL   O19448270   0.497   6.607   3.270 -0.3606 -0.6788 -0.4421
  239MOL   C19548271   0.609   6.527   3.307  0.1390  0.0486 -0.5198
  239MOL   H19648272   0.282   6.753   3.299 -1.6717  2.1710  1.8396
  239MOL   H19748273   0.357   6.910   3.317  0.9756 -1.0067  2.3896
  239MOL   H19848274   0.508   6.743   3.420  3.0293  0.2600  0.5025
  239MOL   H19948275   0.706   6.572   3.285 -0.5990  1.2207 -1.3903
  239MOL   H20048276   0.601   6.497   3.412  1.6122 -0.3144 -0.4935
  239MOL   H20148277   0.601   6.437   3.246 -0.2042 -0.6331  0.5091
  239MOL   H20248278   0.587   6.793   3.281  0.0018 -0.5415  0.6172
  240MOL     C148279   6.523   2.767   5.164  0.0932  0.4872  0.2532
  240MOL     C248280   6.593   2.694   5.055  0.2801 -0.9224 -0.4085
  240MOL     O348281   6.604   2.780   4.950  0.1533 -0.7499  0.0209
  240MOL     C448282   6.594   2.718   4.814  0.3313 -0.1842 -0.3133
  240MOL     H548283   6.479   2.698   5.236  1.2496  0.3061  0.8003
  240MOL     H648284   6.582   2.842   5.217 -3.2074  2.8321  0.7780
  240MOL     H748285   6.529   2.610   5.028 -0.9996 -0.0227 -0.1884
  240MOL     H848286   6.691   2.674   4.789  0.0307 -0.9509 -0.1157
  240MOL     H948287   6.509   2.650   4.811 -0.1665  0.4554 -0.7347
  240MOL    H1048288   6.567   2.795   4.742  0.6872 -0.6393 -0.9349
  240MOL    H1148289   6.441   2.825   5.122  0.2155  2.3812  2.5015
  240MOL    C1248290   6.736   2.637   5.086 -0.0331 -0.7884  0.0841
  240MOL    C1348291   6.755   2.525   5.190  0.4319  0.1363 -0.3994
  240MOL    O1448292   6.683   2.408   5.153 -0.2423 -0.1233  0.1369
  240MOL    C1548293   6.643   2.322   5.266  0.7897 -0.1953  0.3828
  240MOL    H1648294   6.788   2.727   5.122 -1.7751  0.7053 -1.0611
  240MOL    H1748295   6.789   2.605   4.997  0.9294  0.1849  0.2857
  240MOL    H1848296   6.719   2.563   5.286 -1.6454 -0.0769 -1.0700
  240MOL    H1948297   6.555   2.365   5.315 -0.1779 -2.0302  0.3259
  240MOL    H2048298   6.625   2.222   5.226  1.0265 -0.3848  0.7512
  240MOL    H2148299   6.711   2.306   5.349 -0.5326 -1.1039  1.2998
  240MOL    C2248300   6.905   2.484   5.203 -0.2245 -0.1422  0.7109
  240MOL    C2348301   6.992   2.587   5.280  0.7933  0.0123 -0.0300
  240MOL    O2448302   6.956   2.572   5.418  0.2596 -0.1122 -0.2141
  240MOL    C2548303   6.982   2.676   5.510 -0.0711  0.0425 -0.5066
  240MOL    H2648304   6.952   2.475   5.105  2.2278  0.2293  1.8306
  240MOL    H2748305   6.904   2.382   5.242  1.4218 -0.0402  1.0202
  240MOL    H2848306   6.952   2.687   5.267  1.9608  0.5598  0.4883
  240MOL    H2948307   6.932   2.652   5.604  1.6771  0.0051  0.4414
  240MOL    H3048308   7.089   2.682   5.530  0.1803  1.2613 -2.2111
  240MOL    H3148309   6.942   2.773   5.481 -0.9664 -0.6451 -1.5883
  240MOL    C3248310   7.144   2.581   5.262  0.2270  0.6654 -0.1868
  240MOL    C3348311   7.194   2.606   5.119 -0.1815  0.2391  0.0857
  240MOL    O3448312   7.200   2.741   5.089  0.5866 -0.5194 -0.3720
  240MOL    C3548313   7.095   2.790   5.007  0.6256 -0.2305 -0.0259
  240MOL    H3648314   7.166   2.479   5.296  0.3594  0.8181  0.1850
  240MOL    H3748315   7.193   2.642   5.337  2.0012 -3.8675  2.5475
  240MOL    H3848316   7.133   2.558   5.044  0.5004  0.5202 -0.6574
  240MOL    H3948317   7.002   2.733   5.011  0.1260  0.6369  1.1948
  240MOL    H4048318   7.059   2.892   5.024  0.1355 -0.7219  2.0209
  240MOL    H4148319   7.128   2.783   4.904  0.3851 -1.1415 -0.0460
  240MOL    C4248320   7.337   2.560   5.085 -0.4411  0.0930  0.3938
  240MOL    C4348321   7.462   2.587   5.168  0.3992  0.0809 -0.3719
  240MOL    O4448322   7.574   2.514   5.117 -0.4028  0.1747  0.6131
  240MOL    C4548323   7.579   2.370   5.137  0.0422  0.7346  0.5512
  240MOL    H4648324   7.361   2.598   4.986  1.4658  1.1240  1.2211
  240MOL    H4748325   7.324   2.452   5.082  1.0232 -0.1736  2.6569
  240MOL    H4848326   7.438   2.561   5.271 -1.8274  2.6940 -0.1864
  240MOL    H4948327   7.673   2.343   5.090 -1.2810  0.2934 -1.9609
  240MOL    H5048328   7.586   2.347   5.243 -0.1719 -2.7675 -0.1511
  240MOL    H5148329   7.496   2.318   5.089  0.8331 -1.0669  1.1122
  240MOL    C5248330   7.507   2.738   5.156 -0.5552 -0.0499 -0.1405
  240MOL    C5348331   7.630   2.782   5.237 -0.7921 -0.5552 -0.1461
  240MOL    O5448332   7.641   2.921   5.210  0.3781  0.0393 -0.4628
  240MOL    C5548333   7.748   2.955   5.118  0.1425  0.3780 -0.4964
  240MOL    H5648334   7.417   2.791   5.187 -0.1476  0.7167 -0.2851
  240MOL    H5748335   7.524   2.754   5.049  0.4928 -1.1108 -0.1467
  240MOL    H5848336   7.718   2.730   5.200 -1.4084  0.8624 -3.8272
  240MOL    H5948337   7.772   3.061   5.104 -2.1829  0.9362 -0.4189
  240MOL    H6048338   0.031   2.910   5.150 -1.1837 -0.9755  1.5745
  240MOL    H6148339   7.721   2.937   5.014 -1.4845  0.4551 -0.0960
  240MOL    C6248340   7.625   2.761   5.391  0.1533  0.6947 -0.5281
  240MOL    C6348341   7.686   2.620   5.429 -0.6149 -0.0947  0.6460
  240MOL    O6448342   0.013   2.623   5.391  0.2809 -0.1339  0.0337
  240MOL    C6548343   0.069   2.497   5.371 -0.5415  0.0462 -0.4604
  240MOL    H6648344   7.521   2.776   5.419 -0.1980 -1.0390 -0.8660
  240MOL    H6748345   7.691   2.831   5.443  0.5245  2.5749 -3.3950
  240MOL    H6848346   7.643   2.536   5.374 -1.8650 -0.1913  1.7534
  240MOL    H6948347   0.030   2.463   5.275  2.2843 -0.1383 -1.5993
  240MOL    H7048348   0.174   2.519   5.352 -0.4937 -0.0557 -0.3127
  240MOL    H7148349   0.053   2.418   5.445  0.0042  1.0303  0.7179
  240MOL    C7248350   7.679   2.594   5.584 -0.9810  1.0128 -1.0914
  240MOL    C7348351   7.539   2.549   5.639  0.1948  0.6911  0.1940
  240MOL    O7448352   7.526   2.421   5.570  0.1899 -0.1882  0.0907
  240MOL    C7548353   7.389   2.370   5.560 -0.2578 -0.0882  0.0479
  240MOL    H7648354   7.703   2.692   5.624  1.6752 -0.5663  1.4269
  240MOL    H7748355   7.759   2.528   5.618 -0.3017  2.6859  0.6503
  240MOL    H7848356   7.473   2.620   5.590  0.0788  0.4064 -0.0609
  240MOL    H7948357   7.339   2.371   5.656  0.1728  0.1188  0.2695
  240MOL    H8048358   7.343   2.426   5.478  1.3287  1.4087  0.1507
  240MOL    H8148359   7.388   2.267   5.523 -0.4642  0.0518 -0.3363
  240MOL    C8248360   7.538   2.523   5.789 -0.5642  1.0575  0.3586
  240MOL    C8348361   7.573   2.643   5.870 -0.6178 -0.8510  0.2746
  240MOL    O8448362   7.473   2.738   5.844 -0.4200 -0.5159  0.7241
  240MOL    C8548363   7.490   2.864   5.896  0.5835 -0.2733  0.1233
  240MOL    H8648364   7.611   2.446   5.813 -2.2658 -0.4368  0.8380
  240MOL    H8748365   7.440   2.490   5.825  0.5574 -1.1927  1.4184
  240MOL    H8848366   7.667   2.679   5.829 -0.6155 -1.0913  0.0630
  240MOL    H8948367   7.587   2.903   5.864  0.2092  2.3155  1.9878
  240MOL    H9048368   7.414   2.939   5.873  1.8305  1.7693  2.3836
  240MOL    H9148369   7.482   2.872   6.004  2.0467  0.5840  0.1838
  240MOL    C9248370   7.589   2.605   6.017  0.2778 -0.0725  0.0332
  240MOL    C9348371   7.730   2.638   6.078 -0.5469  0.6702 -0.1877
  240MOL    O9448372   7.723   2.594   6.216  0.1968 -0.0317  0.1942
  240MOL    C9548373   7.692   2.691   6.315 -0.1432  0.6340  0.7203
  240MOL    H9648374   7.575   2.497   6.026  1.7122 -0.2983 -0.2827
  240MOL    H9748375   7.499   2.633   6.072 -0.2996 -2.9230  0.6105
  240MOL    H9848376   7.750   2.745   6.069 -0.7342  0.5281 -2.6094
  240MOL    H9948377   7.793   2.718   6.346  0.2508 -0.6025  0.5616
  240MOL   H10048378   7.641   2.778   6.273  0.5733  1.0804  0.7768
  240MOL   H10148379   7.641   2.646   6.400 -0.1413  1.5502  1.2132
  240MOL   C10248380   0.037   2.565   6.008 -0.1598  0.3788  0.4961
  240MOL   C10348381   0.175   2.584   6.068 -0.3823 -0.5592  0.6408
  240MOL   O10448382   0.276   2.515   5.990  0.0742 -0.2846  0.4361
  240MOL   C10548383   0.253   2.376   5.965 -0.0358 -0.2946 -0.4343
  240MOL   H10648384   0.046   2.589   5.902  0.2451  0.9004  0.6478
  240MOL   H10748385   0.005   2.462   6.016 -2.7656  1.2187  1.6256
  240MOL   H10848386   0.173   2.549   6.171 -0.2531 -0.7965  0.5610
  240MOL   H10948387   0.333   2.339   5.901  0.3523 -0.0720 -0.0737
  240MOL   H11048388   0.247   2.325   6.061  1.0340 -1.9930 -1.2561
  240MOL   H11148389   0.165   2.373   5.900  0.7493  1.6701 -1.6371
  240MOL   C11248390   0.225   2.732   6.071  0.2424 -0.3951 -0.1655
  240MOL   C11348391   0.228   2.812   5.944  0.4971  0.0042  0.3238
  240MOL   O11448392   0.105   2.873   5.930  0.9929 -0.2630 -0.2118
  240MOL   C11548393   0.065   2.882   5.794 -0.0112  0.1385 -0.0298
  240MOL   H11648394   0.323   2.729   6.120 -0.0715 -0.6956  0.4536
  240MOL   H11748395   0.170   2.783   6.150  2.0334  0.1974  0.7257
  240MOL   H11848396   0.249   2.751   5.855  0.7820  0.6758 -0.0749
  240MOL   H11948397   0.042   2.784   5.752  0.4302  0.7244 -1.7108
  240MOL   H12048398   7.782   2.937   5.780  1.1726  2.6340  1.5200
  240MOL   H12148399   0.139   2.920   5.724  0.6037 -1.0447 -0.0304
  240MOL   C12248400   0.341   2.923   5.950  0.8424  0.3768  0.1676
  240MOL   C12348401   0.476   2.881   5.904 -0.2194 -0.1471 -0.4158
  240MOL   O12448402   0.466   2.877   5.761  0.0124 -0.6161  0.2852
  240MOL   C12548403   0.570   2.796   5.702 -0.0447 -0.2317 -0.1897
  240MOL   H12648404   0.345   2.962   6.052  0.7951 -1.0278  0.7243
  240MOL   H12748405   0.309   3.008   5.890  1.8560  0.8913  0.3590
  240MOL   H12848406   0.497   2.779   5.937 -1.1824 -1.1502 -2.7734
  240MOL   H12948407   0.668   2.839   5.722  0.3897 -0.7251 -1.2366
  240MOL   H13048408   0.562   2.688   5.721 -2.2365 -0.4008 -1.9344
  240MOL   H13148409   0.552   2.811   5.596  0.8713 -0.1110 -0.3357
  240MOL   C13248410   0.587   2.985   5.943 -0.1858 -0.4777 -0.0526
  240MOL   C13348411   0.639   2.958   6.087 -0.5465  0.8636 -0.5452
  240MOL   O13448412   0.733   2.857   6.059  0.3016  0.4637  0.2911
  240MOL   C13548413   0.747   2.765   6.167 -0.8645 -0.0193  0.4378
  240MOL   H13648414   0.546   3.086   5.943 -0.6733 -0.6649 -1.9656
  240MOL   H13748415   0.663   2.988   5.865  0.3957  0.7626  0.5442
  240MOL   H13848416   0.555   2.926   6.149  1.3282 -1.3096  0.9336
  240MOL   H13948417   0.656   2.714   6.199 -1.3224  1.3007  1.2942
  240MOL   H14048418   0.816   2.685   6.141 -2.0056 -0.4980 -1.2275
  240MOL   H14148419   0.795   2.806   6.256  0.4767 -0.9450  0.1363
  240MOL   C14248420   0.704   3.082   6.151  0.0649  0.0129  1.1600
  240MOL   C14348421   0.614   3.203   6.179 -0.2433 -0.2175 -0.3423
  240MOL   O14448422   0.524   3.167   6.277  0.2471 -0.6282  0.0542
  240MOL   C14548423   0.414   3.256   6.302  0.3967 -0.5719 -0.5013
  240MOL   H14648424   0.785   3.116   6.085 -1.4300 -0.0990 -0.7766
  240MOL   H14748425   0.753   3.046   6.242  1.7277 -0.2552  0.1932
  240MOL   H14848426   0.555   3.223   6.090 -0.1071  1.2900 -0.1160
  240MOL   H14948427   0.351   3.278   6.216 -1.7339 -0.1869  1.1326
  240MOL   H15048428   0.358   3.201   6.377  0.5785  0.7305  0.6084
  240MOL   H15148429   0.450   3.350   6.345 -1.3783 -0.1080 -0.0203
  240MOL   C15248430   0.690   3.341   6.195 -0.8378 -0.3915  0.5017
  240MOL   C15348431   0.713   3.416   6.063 -0.3781 -0.0897  0.7721
  240MOL   O15448432   0.610   3.510   6.042 -0.4604  0.7074 -0.3352
  240MOL   C15548433   0.493   3.456   5.972 -0.9415 -0.4296  0.5002
  240MOL   H15648434   0.786   3.314   6.239 -0.4789  0.1220  0.0405
  240MOL   H15748435   0.641   3.404   6.269 -2.0682 -0.7224 -0.0127
  240MOL   H15848436   0.722   3.338   5.987  0.7551  0.9293 -0.1653
  240MOL   H15948437   0.441   3.531   5.912  1.4992  1.7983  1.0581
  240MOL   H16048438   0.522   3.377   5.903  2.2897  1.8800 -0.9336
  240MOL   H16148439   0.415   3.419   6.038 -0.3514 -0.5430  1.1263
  240MOL   C16248440   0.843   3.501   6.059  0.2826 -0.0283  0.2686
  240MOL   C16348441   0.969   3.417   6.083 -0.4878  0.3378  0.1321
  240MOL   O16448442   1.027   3.391   5.953 -0.1947 -0.5578 -0.3831
  240MOL   C16548443   1.033   3.260   5.895 -0.3829  0.4348 -0.2507
  240MOL   H16648444   0.830   3.575   6.138 -1.4138  0.9037 -0.8613
  240MOL   H16748445   0.854   3.573   5.978  1.6603 -1.4783 -0.8455
  240MOL   H16848446   0.961   3.314   6.118  0.8475  0.5681  1.1302
  240MOL   H16948447   1.073   3.260   5.794  2.0455 -1.3684  0.6617
  240MOL   H17048448   1.108   3.205   5.952  1.1145  1.9249 -0.7418
  240MOL   H17148449   0.936   3.210   5.900 -0.3310  0.2434 -1.0969
  240MOL   C17248450   1.071   3.472   6.175 -1.0490 -0.1812 -0.2723
  240MOL   C17348451   1.035   3.461   6.327 -0.4545  0.2322  0.0230
  240MOL   O17448452   1.008   3.332   6.370 -0.0563  0.2894  0.3363
  240MOL   C17548453   0.928   3.319   6.488  0.1793 -0.4833  0.0195
  240MOL   H17648454   1.094   3.578   6.162  1.1757 -0.7460 -1.3037
  240MOL   H17748455   1.158   3.409   6.156 -0.0311  0.7082  1.4341
  240MOL   H17848456   0.942   3.511   6.352 -0.9305  0.3824 -2.0148
  240MOL   H17948457   0.904   3.217   6.518 -1.1205  0.1397  1.1731
  240MOL   H18048458   0.979   3.356   6.576 -2.3837  2.3811  0.3993
  240MOL   H18148459   0.829   3.363   6.474 -0.2999 -1.7383 -0.5982
  240MOL   C18248460   1.152   3.519   6.412  0.1316  0.3676 -0.0985
  240MOL   C18348461   1.138   3.669   6.449 -0.4411 -0.8831 -0.3594
  240MOL   O18448462   1.261   3.696   6.521  0.3302  0.3947  0.2481
  240MOL   C18548463   1.248   3.780   6.640 -0.4001  0.4806  0.4126
  240MOL   H18648464   1.250   3.510   6.366  0.3218 -4.1557  1.0000
  240MOL   H18748465   1.172   3.466   6.505  1.7410 -0.1918 -0.7492
  240MOL   H18848466   1.045   3.691   6.502  0.0079  0.1956  0.0161
  240MOL   H18948467   1.177   3.860   6.621  2.2800  2.7126 -0.3680
  240MOL   H19048468   1.215   3.716   6.722 -0.9946 -1.4067 -1.2406
  240MOL   H19148469   1.351   3.810   6.655 -1.0841  3.8884 -1.3284
  240MOL   C19248470   1.127   3.763   6.327  0.6072  1.0467 -0.4299
  240MOL   C19348471   1.095   3.914   6.351  0.3370  0.7553 -0.4748
  240MOL   O19448472   1.080   3.979   6.228 -0.2768 -0.0260 -0.2215
  240MOL   C19548473   1.078   4.119   6.245  0.2503 -0.2463 -0.1780
  240MOL   H19648474   1.040   3.731   6.270 -1.1385  2.6370  1.2502
  240MOL   H19748475   1.221   3.755   6.272  0.7630  1.9600 -0.3041
  240MOL   H19848476   1.176   3.960   6.408 -1.3048  1.6142  1.2188
  240MOL   H19948477   1.163   4.160   6.299  1.8358  0.1910 -2.9369
  240MOL   H20048478   1.075   4.180   6.156 -1.0367  0.1006  0.0830
  240MOL   H20148479   0.980   4.132   6.291  0.6587 -0.2208  0.6964
  240MOL   H20248480   1.004   3.929   6.409  1.0679  0.6459  0.7349
  241MOL     C148481   5.130   6.742   6.557 -0.1762 -0.2609  1.0163
  241MOL     C248482   5.276   6.773   6.598  0.3612 -0.6250  0.2310
  241MOL     O348483   5.288   6.811   6.740 -0.2892 -0.0941 -0.2798
  241MOL     C448484   5.214   6.926   6.773  0.1727  0.4418  0.6846
  241MOL     H548485   5.070   6.833   6.569 -0.8155 -0.5656  0.2012
  241MOL     H648486   5.124   6.715   6.451  0.6174  0.1405  0.8664
  241MOL     H748487   5.322   6.861   6.552 -0.1376  0.3800  1.6243
  241MOL     H848488   5.215   7.002   6.695 -1.8545  1.9785  2.1041
  241MOL     H948489   5.111   6.898   6.796 -1.0129  2.3359 -2.1354
  241MOL    H1048490   5.250   6.980   6.860 -1.0389  0.7919  0.9831
  241MOL    H1148491   5.085   6.662   6.616 -0.4027 -0.3282  0.7543
  241MOL    C1248492   5.367   6.652   6.582 -0.5725  0.3614  1.0442
  241MOL    C1348493   5.392   6.609   6.445  0.6190  0.4002  0.4579
  241MOL    O1448494   5.422   6.737   6.380  0.2368 -0.1148  0.5198
  241MOL    C1548495   5.392   6.734   6.237 -0.0074  1.2295 -0.2071
  241MOL    H1648496   5.333   6.562   6.634  0.0283  0.9106  2.4095
  241MOL    H1748497   5.467   6.669   6.621  0.1561  1.6044 -1.2711
  241MOL    H1848498   5.298   6.567   6.408  1.1160  1.8285 -2.6403
  241MOL    H1948499   5.298   6.680   6.225  1.1748 -0.1997 -3.5163
  241MOL    H2048500   5.385   6.836   6.199  3.0200  2.2595  1.7885
  241MOL    H2148501   5.469   6.673   6.190 -0.1238 -0.1344  1.3330
  241MOL    C2248502   5.511   6.506   6.441  0.7957  0.5622 -0.1662
  241MOL    C2348503   5.465   6.369   6.499 -0.4230  0.2064  0.1490
  241MOL    O2448504   5.354   6.313   6.415  0.6807  0.1303  0.4832
  241MOL    C2548505   5.268   6.224   6.483  0.3619 -0.1659 -0.2460
  241MOL    H2648506   5.594   6.544   6.501 -0.2333 -1.3902  2.6150
  241MOL    H2748507   5.542   6.483   6.339 -1.1818  1.2094 -0.9495
  241MOL    H2848508   5.443   6.378   6.605 -0.4294  1.0283  0.0788
  241MOL    H2948509   5.323   6.141   6.527 -0.7341 -0.8017 -0.0514
  241MOL    H3048510   5.208   6.263   6.565 -0.3880 -2.2960  0.2407
  241MOL    H3148511   5.201   6.189   6.404 -1.3026 -0.7753  1.3852
  241MOL    C3248512   5.578   6.264   6.489 -0.4971  0.3644 -0.0019
  241MOL    C3348513   5.702   6.283   6.579  0.3455 -0.4660 -0.1732
  241MOL    O3448514   5.774   6.403   6.533 -0.3501  0.2474 -0.1595
  241MOL    C3548515   5.825   6.399   6.399 -0.3301  0.1020 -0.1440
  241MOL    H3648516   5.615   6.252   6.387 -0.7430  0.9419 -0.1612
  241MOL    H3748517   5.545   6.167   6.527 -2.7340  1.3515  0.6380
  241MOL    H3848518   5.769   6.197   6.568  0.7779 -0.1281 -0.2142
  241MOL    H3948519   5.757   6.406   6.314  0.9015 -1.0275 -1.2383
  241MOL    H4048520   5.882   6.491   6.388  0.1761  0.2867  3.3571
  241MOL    H4148521   5.876   6.305   6.378 -0.2956  0.2897 -0.9303
  241MOL    C4248522   5.671   6.319   6.731 -0.5473 -0.1576  1.0480
  241MOL    C4348523   5.787   6.310   6.828  0.7200 -0.5470 -0.5547
  241MOL    O4448524   5.758   6.356   6.962 -0.1270  0.3075 -0.5142
  241MOL    C4548525   5.807   6.484   6.984 -0.1910 -0.1052 -0.3691
  241MOL    H4648526   5.600   6.244   6.766  0.8810 -2.0728 -0.0427
  241MOL    H4748527   5.637   6.421   6.749 -0.4756  0.2218 -0.7957
  241MOL    H4848528   5.862   6.377   6.786  0.2113  0.7641  0.5688
  241MOL    H4948529   5.915   6.487   6.969 -0.0696  1.3173  0.6654
  241MOL    H5048530   5.761   6.548   6.908  0.8305 -1.5660 -2.2525
  241MOL    H5148531   5.785   6.514   7.087 -0.1508 -2.4644  0.3540
  241MOL    C5248532   5.857   6.180   6.828 -0.0881  0.0800 -0.4389
  241MOL    C5348533   5.777   6.057   6.852  0.3550  0.5523  0.5745
  241MOL    O5448534   5.870   5.955   6.813  0.0105 -0.4175 -0.1608
  241MOL    C5548535   5.807   5.830   6.787  0.3747  0.0530  0.3556
  241MOL    H5648536   5.931   6.189   6.908 -0.0649  2.3632 -0.6867
  241MOL    H5748537   5.921   6.177   6.741 -0.9020 -0.4642 -1.0275
  241MOL    H5848538   5.699   6.045   6.777  0.6827 -2.1551  0.6464
  241MOL    H5948539   5.742   5.849   6.702 -1.4000 -3.7104  0.7838
  241MOL    H6048540   5.867   5.747   6.751  0.1678  0.3315 -0.6353
  241MOL    H6148541   5.740   5.786   6.860  0.0419  1.8379  1.1638
  241MOL    C6248542   5.724   6.028   6.994 -0.2060 -0.3415 -0.3903
  241MOL    C6348543   5.580   6.083   7.024 -0.5509  0.4939  0.0826
  241MOL    O6448544   5.493   6.008   6.937 -0.5765 -0.0186 -0.4661
  241MOL    C6548545   5.375   6.072   6.890 -0.5878 -0.2912 -0.4492
  241MOL    H6648546   5.796   6.070   7.065 -0.9836  0.8492 -0.2803
  241MOL    H6748547   5.722   5.924   7.028  1.4494 -0.0936  0.5201
  241MOL    H6848548   5.594   6.184   6.987 -0.8994  0.4415 -0.1976
  241MOL    H6948549   5.405   6.162   6.836  4.9942 -0.5222  1.9049
  241MOL    H7048550   5.334   6.008   6.812  0.5633 -1.3946 -0.1715
  241MOL    H7148551   5.302   6.104   6.965  1.4755  0.7760  1.1921
  241MOL    C7248552   5.531   6.074   7.167  0.2158 -0.3356 -0.1640
  241MOL    C7348553   5.594   6.158   7.275 -0.0779  0.0144 -0.4671
  241MOL    O7448554   5.737   6.164   7.278  0.2256 -0.3823 -0.5193
  241MOL    C7548555   5.798   6.043   7.321  0.4596 -0.1521 -0.0739
  241MOL    H7648556   5.543   5.970   7.195 -0.0412 -0.0021  1.2405
  241MOL    H7748557   5.424   6.095   7.173  0.2305  0.0059 -1.0893
  241MOL    H7848558   5.567   6.123   7.374  0.9468  0.5130 -0.0054
  241MOL    H7948559   5.905   6.041   7.306  0.2236 -1.1633 -1.7575
  241MOL    H8048560   5.781   6.016   7.425 -2.2069  0.5869 -0.2676
  241MOL    H8148561   5.752   5.961   7.267  1.7616  1.0494 -3.1084
  241MOL    C8248562   5.558   6.313   7.275 -1.0282 -0.6621  0.4549
  241MOL    C8348563   5.414   6.353   7.251  0.0645  0.5510  0.1493
  241MOL    O8448564   5.349   6.308   7.367 -0.5952  0.0573  0.0554
  241MOL    C8548565   5.213   6.263   7.337 -0.4245  0.2048  0.1730
  241MOL    H8648566   5.618   6.363   7.199  0.0868 -0.5562  1.3879
  241MOL    H8748567   5.615   6.361   7.354 -1.5524  1.0085 -0.1509
  241MOL    H8848568   5.383   6.298   7.161  0.9442 -0.0058  0.1892
  241MOL    H8948569   5.158   6.349   7.298 -0.8073  0.1118  0.4992
  241MOL    H9048570   5.193   6.180   7.269 -0.9309  0.2922  0.2135
  241MOL    H9148571   5.170   6.232   7.432  2.3542 -1.0727  1.0519
  241MOL    C9248572   5.397   6.501   7.231 -0.0723 -0.4133  0.7173
  241MOL    C9348573   5.437   6.544   7.089 -0.1270  0.0565 -0.7926
  241MOL    O9448574   5.342   6.491   7.006  0.1395 -0.2685  0.1644
  241MOL    C9548575   5.387   6.465   6.872  0.2231 -0.4832 -0.0768
  241MOL    H9648576   5.448   6.561   7.307 -1.3568  0.5409  0.8427
  241MOL    H9748577   5.294   6.528   7.253  0.1883  2.2961 -1.1877
  241MOL    H9848578   5.540   6.516   7.067 -0.3791 -1.1858 -0.4499
  241MOL    H9948579   5.435   6.549   6.822  0.1316  0.4538  1.3849
  241MOL   H10048580   5.454   6.381   6.861  2.0297  0.4372  3.2609
  241MOL   H10148581   5.294   6.446   6.818 -0.5884  2.1994  0.3120
  241MOL   C10248582   5.426   6.699   7.079 -0.3583  0.6352 -0.2597
  241MOL   C10348583   5.549   6.773   7.131  0.5422  0.2204 -0.2852
  241MOL   O10448584   5.641   6.766   7.020 -0.5633  0.3359 -0.2355
  241MOL   C10548585   5.772   6.811   7.056  0.5087 -0.3569  0.6203
  241MOL   H10648586   5.330   6.734   7.118 -1.0432 -1.2614 -0.1938
  241MOL   H10748587   5.414   6.735   6.977 -4.2672  0.5798  0.0770
  241MOL   H10848588   5.588   6.720   7.218  0.3992  2.1017  0.9517
  241MOL   H10948589   5.783   6.917   7.030 -1.7906 -0.3105 -0.2892
  241MOL   H11048590   5.802   6.804   7.161  1.1652  0.2366  0.4760
  241MOL   H11148591   5.833   6.759   6.983  1.3346  2.4645 -0.7831
  241MOL   C11248592   5.514   6.922   7.171 -0.3032  0.1293 -0.2267
  241MOL   C11348593   5.464   6.938   7.313  0.1330  0.5810  0.3210
  241MOL   O11448594   5.567   6.944   7.416 -0.0718  0.0345 -0.0878
  241MOL   C11548595   5.584   6.832   7.513 -0.5610 -0.5023  0.3117
  241MOL   H11648596   5.439   6.962   7.102 -0.5042 -1.3089 -0.8744
  241MOL   H11748597   5.599   6.990   7.175 -0.0659 -0.0127 -2.0752
  241MOL   H11848598   5.386   6.865   7.329 -0.0475  0.5192 -0.7825
  241MOL   H11948599   5.675   6.848   7.571 -0.0926  0.3181 -0.6154
  241MOL   H12048600   5.497   6.816   7.576 -2.4839  0.8015 -1.9329
  241MOL   H12148601   5.598   6.742   7.453 -1.1326  0.0336 -0.6360
  241MOL   C12248602   5.403   7.078   7.344 -0.0954 -0.9395  0.9313
  241MOL   C12348603   5.297   7.145   7.260 -0.6253  0.3259  0.0026
  241MOL   O12448604   5.172   7.089   7.282 -0.7392 -0.7068  0.0501
  241MOL   C12548605   5.153   6.977   7.199 -0.5684  0.2871  0.3763
  241MOL   H12648606   5.485   7.150   7.338  0.7876 -2.0334 -0.4408
  241MOL   H12748607   5.361   7.077   7.445 -5.1135 -4.7758 -1.0165
  241MOL   H12848608   5.320   7.136   7.154 -0.7857 -0.5539  0.0400
  241MOL   H12948609   5.131   6.885   7.254 -0.2952 -0.0958 -0.1447
  241MOL   H13048610   5.065   7.008   7.143 -1.6219 -2.2815  0.5119
  241MOL   H13148611   5.233   6.952   7.130 -0.8974  0.0394  0.0830
  241MOL   C13248612   5.291   7.301   7.282  0.6358 -0.0771 -0.2907
  241MOL   C13348613   5.178   7.368   7.195 -1.0217  0.1463 -0.7616
  241MOL   O13448614   5.157   7.495   7.239  0.3307 -0.0352  0.1792
  241MOL   C13548615   5.036   7.504   7.324 -0.7207  0.0461  0.0412
  241MOL   H13648616   5.379   7.353   7.244 -0.6222  0.4068 -2.7017
  241MOL   H13748617   5.275   7.322   7.387  0.3245 -2.2583  0.1079
  241MOL   H13848618   5.085   7.310   7.197 -2.0927  1.8592 -0.3710
  241MOL   H13948619   4.950   7.449   7.286  0.8787 -1.6280 -1.2489
  241MOL   H14048620   5.066   7.475   7.425  0.1327 -2.2397 -0.8502
  241MOL   H14148621   5.003   7.607   7.339 -2.4692 -0.1479 -2.2626
  241MOL   C14248622   5.215   7.388   7.050 -0.5410 -0.3287 -0.8029
  241MOL   C14348623   5.171   7.279   6.951  0.4521 -0.3445  0.2205
  241MOL   O14448624   5.028   7.296   6.942  0.3483 -0.1174  0.1227
  241MOL   C14548625   4.957   7.187   6.886 -0.0227 -0.2994 -0.6051
  241MOL   H14648626   5.324   7.384   7.051 -0.5012  0.5663 -1.8196
  241MOL   H14748627   5.174   7.481   7.012  1.6090 -0.5083 -3.7259
  241MOL   H14848628   5.184   7.180   6.996 -2.6213 -1.0033 -0.1947
  241MOL   H14948629   4.981   7.152   6.786  1.2874  0.1433 -0.4548
  241MOL   H15048630   4.970   7.101   6.953  1.3115  0.4614  0.1479
  241MOL   H15148631   4.853   7.218   6.878  0.0193 -0.0373 -0.1474
  241MOL   C15248632   5.232   7.304   6.813  0.1587 -0.1173  0.7521
  241MOL   C15348633   5.385   7.310   6.815  0.2448  0.2188  0.9926
  241MOL   O15448634   5.419   7.191   6.874 -0.3838  0.6834 -0.0778
  241MOL   C15548635   5.542   7.213   6.945 -0.4881  0.3575  0.3448
  241MOL   H15648636   5.185   7.396   6.779 -2.5353 -1.1946  1.4746
  241MOL   H15748637   5.192   7.228   6.746  0.1726  0.4286  0.1249
  241MOL   H15848638   5.412   7.400   6.869  1.2074 -1.7740  3.9365
  241MOL   H15948639   5.593   7.117   6.950 -1.5580 -0.2537 -0.2755
  241MOL   H16048640   5.601   7.285   6.888  0.5786 -0.4637  0.4043
  241MOL   H16148641   5.525   7.246   7.048  1.6370 -1.7256  1.4068
  241MOL   C16248642   5.440   7.307   6.670  0.3714  0.1547  0.3308
  241MOL   C16348643   5.412   7.442   6.596  0.4296 -0.3134 -0.8746
  241MOL   O16448644   5.480   7.532   6.677 -0.6615 -0.1748 -0.3510
  241MOL   C16548645   5.398   7.649   6.704 -0.8291  0.3719  0.1277
  241MOL   H16648646   5.402   7.218   6.620  2.6626 -1.5425  1.4728
  241MOL   H16748647   5.548   7.292   6.674  0.1816 -1.3501  0.1639
  241MOL   H16848648   5.304   7.458   6.602  0.0847 -2.9833  1.1313
  241MOL   H16948649   5.462   7.730   6.739  0.6623 -1.3112  1.3623
  241MOL   H17048650   5.350   7.681   6.612 -0.1037 -0.7534 -0.6653
  241MOL   H17148651   5.338   7.632   6.793  1.1396  2.5265  1.9315
  241MOL   C17248652   5.458   7.441   6.454 -0.4129  0.2529  0.2488
  241MOL   C17348653   5.368   7.379   6.344 -0.3178  0.5458  0.1288
  241MOL   O17448654   5.254   7.467   6.325 -0.3131  1.1029  0.7025
  241MOL   C17548655   5.134   7.412   6.376  0.8253 -0.1870 -0.4615
  241MOL   H17648656   5.554   7.390   6.441  0.4208  1.2967  2.0771
  241MOL   H17748657   5.480   7.544   6.424 -2.1192  0.1590 -1.3760
  241MOL   H17848658   5.339   7.280   6.379 -0.7408  0.3970 -0.6395
  241MOL   H17948659   5.087   7.339   6.311 -0.2461 -2.2322  2.5061
  241MOL   H18048660   5.143   7.371   6.477  1.3949  0.1423 -0.3745
  241MOL   H18148661   5.074   7.503   6.378  2.1671  0.7399 -1.1605
  241MOL   C18248662   5.444   7.353   6.208  0.5392 -0.1118 -0.2579
  241MOL   C18348663   5.356   7.268   6.112  0.1815 -0.7146  0.2466
  241MOL   O18448664   5.351   7.346   5.990  0.5463  0.6340  0.3214
  241MOL   C18548665   5.250   7.452   5.982  0.5150  0.2067  0.1286
  241MOL   H18648666   5.529   7.286   6.225  1.0481 -0.0115 -2.2790
  241MOL   H18748667   5.490   7.443   6.168 -0.2669  0.5708  0.3474
  241MOL   H18848668   5.254   7.247   6.145 -0.3635 -0.1922 -1.0584
  241MOL   H18948669   5.251   7.510   5.890  0.7855 -1.1698 -0.7416
  241MOL   H19048670   5.150   7.416   6.006 -0.5859  2.2946 -1.1454
  241MOL   H19148671   5.276   7.536   6.047  0.1977  0.4409 -0.0462
  241MOL   C19248672   5.407   7.133   6.066  1.0713 -0.3637  0.1085
  241MOL   C19348673   5.301   7.053   5.986  0.2539  0.4218  0.3152
  241MOL   O19448674   5.366   6.929   5.949  0.1604  0.3136  0.1964
  241MOL   C19548675   5.276   6.823   5.896  0.2774 -0.6829 -0.1491
  241MOL   H19648676   5.445   7.065   6.142 -0.7513 -2.0293 -0.4208
  241MOL   H19748677   5.487   7.144   5.993  0.2162 -2.4971 -1.1917
  241MOL   H19848678   5.271   7.103   5.894 -0.0913  0.9411  0.7106
  241MOL   H19948679   5.186   6.807   5.955  0.4270  2.4238  0.9814
  241MOL   H20048680   5.245   6.858   5.798  0.6055  0.8410  0.2810
  241MOL   H20148681   5.326   6.728   5.879 -0.0469 -0.7255 -0.9038
  241MOL   H20248682   5.225   7.039   6.063  0.6570  0.9057  0.8025
  242MOL     C148683   0.626   1.867   1.222 -0.5856 -0.6773 -0.4305
  242MOL     C248684   0.693   2.000   1.169  0.2108 -0.2278  0.4382
  242MOL     O348685   0.821   2.024   1.223 -0.5354  0.1794  0.1356
  242MOL     C448686   0.816   2.063   1.357  0.3081 -0.0530 -0.7685
  242MOL     H548687   0.540   1.863   1.156 -0.7846  0.6286 -0.2720
  242MOL     H648688   0.682   1.776   1.200 -0.5543 -0.3290 -1.8447
  242MOL     H748689   0.637   2.090   1.196  0.9937  0.0642  1.1016
  242MOL     H848690   0.757   1.998   1.421  0.0764  0.9807  0.0796
  242MOL     H948691   0.918   2.062   1.396  0.3440  1.7879 -0.7416
  242MOL    H1048692   0.786   2.164   1.386  0.0999 -0.8170  1.7807
  242MOL    H1148693   0.591   1.871   1.325  1.4091 -2.2288  0.3512
  242MOL    C1248694   0.705   1.994   1.018  0.1836 -0.9063  0.6378
  242MOL    C1348695   0.726   2.139   0.963 -0.0287 -0.2032 -0.5620
  242MOL    O1448696   0.784   2.109   0.835 -0.1536  0.1509  0.2592
  242MOL    C1548697   0.923   2.088   0.831 -0.0268 -0.0426  0.2431
  242MOL    H1648698   0.627   1.941   0.963  0.1796  0.8809 -1.1069
  242MOL    H1748699   0.792   1.932   0.996  1.2127  1.0107 -0.8264
  242MOL    H1848700   0.805   2.197   1.011  1.2496 -1.4252 -1.1288
  242MOL    H1948701   0.965   2.003   0.885  2.0584 -0.3260 -1.7483
  242MOL    H2048702   0.954   2.064   0.729  3.2642 -0.3169  1.2244
  242MOL    H2148703   0.972   2.182   0.860  0.1291  0.5661 -1.9124
  242MOL    C2248704   0.594   2.221   0.946 -0.1059 -0.4931  0.4000
  242MOL    C2348705   0.612   2.359   0.886 -0.1449 -0.2599 -0.0211
  242MOL    O2448706   0.484   2.420   0.865 -0.0497 -0.2513 -0.3896
  242MOL    C2548707   0.421   2.390   0.749 -0.3752 -0.2554 -0.4784
  242MOL    H2648708   0.545   2.236   1.042 -1.6814 -1.1151 -0.2999
  242MOL    H2748709   0.529   2.153   0.892  0.4513 -2.9191  2.6567
  242MOL    H2848710   0.673   2.345   0.797  0.8226 -0.7425  0.7113
  242MOL    H2948711   0.488   2.433   0.675  0.3832 -0.3491  0.1463
  242MOL    H3048712   0.421   2.284   0.722 -1.5346  0.0561 -1.7554
  242MOL    H3148713   0.320   2.426   0.768  0.7732  1.8396  1.7941
  242MOL    C3248714   0.678   2.452   0.998  0.5189 -0.0928  0.0960
  242MOL    C3348715   0.719   2.578   0.932  0.1201  0.3238 -0.1008
  242MOL    O3448716   0.757   2.668   1.036  0.1948 -0.4734 -0.0175
  242MOL    C3548717   0.670   2.783   1.057  1.0847  1.2921  0.7483
  242MOL    H3648718   0.766   2.404   1.041 -0.8124 -1.7082  1.0453
  242MOL    H3748719   0.606   2.471   1.077  1.3350  1.1495  0.5577
  242MOL    H3848720   0.639   2.623   0.874 -1.6223 -0.6550  1.4961
  242MOL    H3948721   0.675   2.862   0.982 -0.4199  0.2143 -0.5119
  242MOL    H4048722   0.566   2.753   1.047  1.7776 -1.0562  0.1551
  242MOL    H4148723   0.687   2.824   1.156  0.1458  1.2531  0.9208
  242MOL    C4248724   0.850   2.556   0.855  0.0522 -0.4442  0.6697
  242MOL    C4348725   0.901   2.677   0.766 -0.2983  0.1222  0.6852
  242MOL    O4448726   1.035   2.659   0.722 -0.4750 -0.2868  0.2419
  242MOL    C4548727   1.137   2.696   0.819  0.4940  0.2892  0.2817
  242MOL    H4648728   0.838   2.482   0.775 -0.2949  1.3590 -0.9780
  242MOL    H4748729   0.921   2.519   0.929  1.4975 -2.0539 -1.4696
  242MOL    H4848730   0.900   2.770   0.823  2.4563  1.7230 -1.8010
  242MOL    H4948731   1.126   2.801   0.848 -0.3347  0.0126  0.9886
  242MOL    H5048732   1.111   2.648   0.913  0.7605 -0.1368  0.1388
  242MOL    H5148733   1.234   2.677   0.774  0.7727 -0.5767  1.2209
  242MOL    C5248734   0.814   2.714   0.641  0.0196 -0.1353  0.6587
  242MOL    C5348735   0.858   2.834   0.556  0.6092  0.1925 -0.3465
  242MOL    O5448736   0.806   2.843   0.427  0.0606  0.1641  0.2823
  242MOL    C5548737   0.872   2.748   0.333 -0.6645  0.2380  0.0893
  242MOL    H5648738   0.713   2.733   0.679  0.1643  4.5139 -0.9292
  242MOL    H5748739   0.818   2.625   0.579 -0.3243 -1.7891  2.9677
  242MOL    H5848740   0.967   2.837   0.553  0.6869  1.2435  2.1164
  242MOL    H5948741   0.980   2.739   0.345 -0.8946 -1.5538  1.0024
  242MOL    H6048742   0.835   2.646   0.337 -0.6771  0.3028  2.3172
  242MOL    H6148743   0.849   2.781   0.232  0.8681 -0.3546 -0.4595
  242MOL    C6248744   0.806   2.975   0.614  0.6920  0.2835  0.2278
  242MOL    C6348745   0.832   3.106   0.541  0.0988 -0.2422 -0.0601
  242MOL    O6448746   0.741   3.203   0.590  0.2175 -0.1836  0.1375
  242MOL    C6548747   0.679   3.279   0.494  0.4857 -0.1427 -0.2828
  242MOL    H6648748   0.842   2.992   0.715  0.0196 -1.3366  0.7636
  242MOL    H6748749   0.700   2.953   0.628  0.5599  0.2093 -0.8444
  242MOL    H6848750   0.813   3.086   0.435 -3.5055 -1.2133  0.6968
  242MOL    H6948751   0.594   3.223   0.455 -1.1196 -0.6900  3.7080
  242MOL    H7048752   0.634   3.362   0.549  1.8169  0.8711 -0.6994
  242MOL    H7148753   0.741   3.323   0.415 -3.8431  0.7156 -3.3898
  242MOL    C7248754   0.966   3.181   0.578 -0.7040  0.4366  0.5733
  242MOL    C7348755   1.096   3.120   0.513  0.2152  0.1794  0.4581
  242MOL    O7448756   1.094   3.164   0.380  0.4516  0.7146  0.5862
  242MOL    C7548757   1.085   3.054   0.289  0.4570 -0.2290  0.2770
  242MOL    H7648758   0.972   3.198   0.686  0.4756 -0.2288  0.6235
  242MOL    H7748759   0.967   3.285   0.545 -1.2993 -0.2177 -1.6137
  242MOL    H7848760   1.091   3.011   0.522  3.5417 -0.1247 -0.7751
  242MOL    H7948761   1.175   2.992   0.292  1.5056  1.2859  0.5401
  242MOL    H8048762   0.996   2.994   0.301 -1.1787  2.5409  2.4395
  242MOL    H8148763   1.069   3.097   0.190 -1.6254  1.5643  1.3684
  242MOL    C8248764   1.221   3.172   0.586 -0.0528 -0.2245  1.2680
  242MOL    C8348765   1.355   3.110   0.534 -0.2156 -1.0076 -0.1381
  242MOL    O8448766   1.466   3.191   0.558  0.1094  0.1194 -0.0451
  242MOL    C8548767   1.473   3.303   0.468 -0.3530  0.1208  0.0895
  242MOL    H8648768   1.211   3.146   0.692  2.8294 -1.0597  1.3714
  242MOL    H8748769   1.210   3.280   0.578 -1.3114 -0.3500  1.2054
  242MOL    H8848770   1.345   3.100   0.426 -0.7238  1.3103 -0.3396
  242MOL    H8948771   1.486   3.274   0.363 -2.4309 -0.5157 -0.0179
  242MOL    H9048772   1.381   3.361   0.477 -0.5127  0.2191 -1.8674
  242MOL    H9148773   1.549   3.373   0.500 -0.5337  0.6736 -0.6592
  242MOL    C9248774   1.401   2.975   0.588  1.0129 -0.1937 -0.3614
  242MOL    C9348775   1.462   2.886   0.476 -0.3133  0.2027 -0.2742
  242MOL    O9448776   1.366   2.851   0.380  0.5276  0.4041 -0.0561
  242MOL    C9548777   1.279   2.745   0.420  0.3122  0.7079  0.4586
  242MOL    H9648778   1.311   2.923   0.622  1.0361 -1.0296 -1.5739
  242MOL    H9748779   1.458   2.985   0.681  3.1526  2.4804 -1.9027
  242MOL    H9848780   1.506   2.804   0.532 -0.9408 -0.0578 -0.1535
  242MOL    H9948781   1.221   2.776   0.507  0.3170  0.5610  0.5144
  242MOL   H10048782   1.221   2.722   0.331 -0.4890  0.1449  1.1221
  242MOL   H10148783   1.334   2.652   0.431 -0.6918  0.0787  0.1889
  242MOL   C10248784   1.584   2.937   0.402  0.2651  0.7675  0.3664
  242MOL   C10348785   1.657   2.816   0.329 -0.1866 -0.8078  0.1939
  242MOL   O10448786   1.710   2.866   0.209  0.1160  0.3590  0.0526
  242MOL   C10548787   1.607   2.898   0.113  0.5815 -0.1317 -0.6123
  242MOL   H10648788   1.647   2.971   0.484 -0.5527  1.0759  0.8745
  242MOL   H10748789   1.562   3.027   0.344  0.0180 -0.2723 -1.1790
  242MOL   H10848790   1.593   2.731   0.308 -0.4074 -0.6938  0.4067
  242MOL   H10948791   1.643   2.983   0.055  1.2980 -0.4381 -0.6190
  242MOL   H11048792   1.591   2.814   0.046 -0.1535 -0.7326  0.2988
  242MOL   H11148793   1.508   2.929   0.145  0.4502 -0.4472 -0.7103
  242MOL   C11248794   1.774   2.763   0.410  0.1545  0.1004 -0.0473
  242MOL   C11348795   1.829   2.625   0.355 -0.2051 -0.5573  0.2641
  242MOL   O11448796   1.946   2.613   0.431  0.2497  0.4425  0.4669
  242MOL   C11548797   2.063   2.643   0.357 -0.0724  0.5787 -0.2046
  242MOL   H11648798   1.748   2.750   0.515  3.7794  1.5891  1.0913
  242MOL   H11748799   1.852   2.838   0.398  0.4736 -0.4109 -1.2988
  242MOL   H11848800   1.851   2.620   0.248 -0.2790  2.3125  0.0781
  242MOL   H11948801   2.072   2.565   0.282 -1.4569  0.6449 -0.4497
  242MOL   H12048802   2.058   2.748   0.327 -1.5905  1.0416  1.5409
  242MOL   H12148803   2.152   2.642   0.421  0.7337 -0.3091 -1.3281
  242MOL   C12248804   1.734   2.506   0.371 -0.3740 -0.1793 -0.2740
  242MOL   C12348805   1.796   2.376   0.303 -0.5438  0.6118  0.0017
  242MOL   O12448806   1.826   2.295   0.413 -0.2323  0.1088  0.4120
  242MOL   C12548807   1.951   2.321   0.483  0.1094 -0.4038 -0.4412
  242MOL   H12648808   1.639   2.526   0.321 -1.3652 -2.3643  0.6885
  242MOL   H12748809   1.715   2.480   0.475  0.9901 -0.0742  0.0141
  242MOL   H12848810   1.892   2.390   0.252 -1.1145 -1.6922 -1.7562
  242MOL   H12948811   1.972   2.236   0.546  1.2764  0.6522  0.6272
  242MOL   H13048812   2.041   2.317   0.421 -0.4457  0.1149 -1.2968
  242MOL   H13148813   1.941   2.409   0.547 -1.3844  0.4542 -1.8037
  242MOL   C13248814   1.686   2.301   0.221  0.0001 -0.4800 -0.4384
  242MOL   C13348815   1.691   2.317   0.069  0.1491 -0.5667 -0.1395
  242MOL   O13448816   1.608   2.218   0.017  0.4825 -0.0004 -0.2546
  242MOL   C13548817   1.464   2.241   0.012 -0.4298  0.4823  0.6498
  242MOL   H13648818   1.585   2.321   0.256 -0.1779  0.3246 -1.3677
  242MOL   H13748819   1.703   2.194   0.231  1.6609 -0.2123 -0.3259
  242MOL   H13848820   1.792   2.280   0.052  0.4876 -0.0858  0.7653
  242MOL   H13948821   1.416   2.143   0.017 -1.8364  1.1463  0.5332
  242MOL   H14048822   1.417   2.277   0.103 -1.6648 -1.2506  0.7314
  242MOL   H14148823   1.417   2.308   7.751 -0.3642  0.3618  0.4943
  242MOL   C14248824   1.675   2.457   0.001 -0.5815  0.1565 -0.5252
  242MOL   C14348825   1.735   2.465   7.670 -0.0768 -0.4421 -0.6672
  242MOL   O14448826   1.639   2.537   7.593  0.4163  0.4256  0.0749
  242MOL   C14548827   1.631   2.477   7.462 -0.2700  0.1846 -0.8968
  242MOL   H14648828   1.718   2.542   0.055 -0.8807  0.3415 -0.5771
  242MOL   H14748829   1.572   2.491   0.012 -0.6250 -0.0996 -0.0942
  242MOL   H14848830   1.748   2.362   7.637  1.5358 -0.5661  0.2485
  242MOL   H14948831   1.731   2.470   7.419  0.3313  0.8696  0.3740
  242MOL   H15048832   1.597   2.374   7.470 -1.5591  0.6476 -0.2286
  242MOL   H15148833   1.562   2.535   7.400  1.4619  3.6958  0.3215
  242MOL   C15248834   1.867   2.538   7.648  0.2924  0.3993  0.3090
  242MOL   C15348835   1.986   2.491   7.738  0.3645 -0.4430 -0.7257
  242MOL   O15448836   2.006   2.353   7.716 -0.2329 -0.2916 -0.2555
  242MOL   C15548837   2.080   2.286   0.004 -0.6701 -0.2524  0.1352
  242MOL   H15648838   1.856   2.646   7.660  1.4726  0.6195 -0.4154
  242MOL   H15748839   1.899   2.533   7.544  0.3284 -0.4937  0.3611
  242MOL   H15848840   1.956   2.509   0.030  0.2060  0.2087 -0.8835
  242MOL   H15948841   2.148   2.355   0.053  0.5057 -0.4669 -1.1833
  242MOL   H16048842   2.019   2.243   0.083  0.3402 -0.3823  0.8574
  242MOL   H16148843   2.129   2.199   7.769  0.0325  0.8665 -1.2882
  242MOL   C16248844   2.116   2.571   7.705  0.3444 -0.7020 -0.6462
  242MOL   C16348845   2.104   2.723   7.702 -0.0188 -0.4360  0.3505
  242MOL   O16448846   2.064   2.773   0.022 -0.2621 -0.3771 -0.1703
  242MOL   C16548847   1.965   2.867   0.017  0.7507  0.4064 -0.0699
  242MOL   H16648848   2.144   2.538   7.605  1.3434 -0.6937 -0.3799
  242MOL   H16748849   2.204   2.536   7.761  0.7935 -1.0065 -1.5315
  242MOL   H16848850   2.026   2.747   7.630 -2.0908 -0.8223  2.4354
  242MOL   H16948851   1.869   2.828   7.795  0.5909  0.0742  0.7785
  242MOL   H17048852   1.953   2.904   0.119  1.9496 -3.0563  1.4025
  242MOL   H17148853   1.982   2.961   7.774 -2.0788  0.7003 -0.5093
  242MOL   C17248854   2.232   2.810   7.660 -0.4819  1.0183 -0.7312
  242MOL   C17348855   2.275   2.777   7.511 -0.2254 -0.3503 -0.0689
  242MOL   O17448856   2.169   2.810   7.422 -0.0276 -0.5105  0.2356
  242MOL   C17548857   2.150   2.718   7.312  0.2520 -0.5426  0.4672
  242MOL   H17648858   2.319   2.788   7.722 -0.1985 -0.0035 -1.4854
  242MOL   H17748859   2.214   2.918   7.662 -0.0175  1.0839  0.3386
  242MOL   H17848860   2.308   2.674   7.499 -0.5894 -0.4049 -0.6441
  242MOL   H17948861   2.232   2.691   7.245 -0.7254  0.9440 -1.3658
  242MOL   H18048862   2.122   2.625   7.361 -1.7615  0.0252  0.4312
  242MOL   H18148863   2.077   2.759   7.244  0.3813  0.6094  1.0087
  242MOL   C18248864   2.391   2.863   7.457 -0.0742  0.8073 -1.1439
  242MOL   C18348865   2.532   2.831   7.516  0.4543  0.1323  0.1555
  242MOL   O18448866   2.559   2.707   7.453 -0.6590  0.1856 -0.1826
  242MOL   C18548867   2.617   2.608   7.539  0.2798 -0.2820 -0.1032
  242MOL   H18648868   2.368   2.964   7.492 -2.8891 -0.2260  0.1789
  242MOL   H18748869   2.393   2.876   7.349 -0.8391  2.0565 -1.0092
  242MOL   H18848870   2.506   2.810   7.620 -1.9129 -1.2467 -0.6648
  242MOL   H18948871   2.600   2.508   7.499 -0.2719  0.8460 -2.7178
  242MOL   H19048872   2.724   2.623   7.552  0.4549 -0.1142 -1.7168
  242MOL   H19148873   2.565   2.612   7.635  1.1306  0.7170  0.3195
  242MOL   C19248874   2.645   2.936   7.498 -0.5022  0.3140  0.0337
  242MOL   C19348875   2.784   2.897   7.560  0.5805  0.5273 -0.8587
  242MOL   O19448876   2.772   2.868   7.703  0.2056  0.0668 -0.5371
  242MOL   C19548877   2.897   2.865   7.771  0.9438  0.6121  0.7256
  242MOL   H19648878   2.615   3.022   7.558  0.7063  0.1374  0.9211
  242MOL   H19748879   2.669   2.972   7.398 -2.4795 -1.0894 -0.9825
  242MOL   H19848880   2.856   2.979   7.552  0.1833  0.9983  0.2689
  242MOL   H19948881   2.959   2.949   7.738  2.6513 -0.8507  0.1312
  242MOL   H20048882   2.875   2.877   0.066 -1.1139 -1.8361  0.6148
  242MOL   H20148883   2.950   2.772   7.751 -0.6520  0.1474 -1.5972
  242MOL   H20248884   2.823   2.814   7.501 -0.1835 -0.0719 -0.5240
  243MOL     C148885   5.072   1.196   3.416  0.4728 -0.5255  0.2360
  243MOL     C248886   5.001   1.314   3.478  0.0335 -0.7920 -0.2807
  243MOL     O348887   4.995   1.284   3.621  0.2224  0.2262 -0.2497
  243MOL     C448888   4.860   1.268   3.666  0.0169 -0.1194 -0.9984
  243MOL     H548889   5.090   1.203   3.309 -0.6496  0.4521  0.1106
  243MOL     H648890   5.173   1.190   3.457  1.1048  0.8840 -1.0607
  243MOL     H748891   4.905   1.312   3.426 -0.7239 -1.6595  1.1189
  243MOL     H848892   4.817   1.367   3.680 -1.9130 -1.2408  1.2548
  243MOL     H948893   4.795   1.208   3.602  1.3818 -0.2534 -2.2934
  243MOL    H1048894   4.873   1.212   3.758 -0.7728  2.1581  0.5392
  243MOL    H1148895   5.037   1.095   3.438 -0.4760 -0.7057 -1.9513
  243MOL    C1248896   5.086   1.444   3.455 -0.3384 -0.1297 -0.0337
  243MOL    C1348897   5.015   1.573   3.508 -0.5439  0.3312  0.1504
  243MOL    O1448898   5.109   1.680   3.489 -0.0135  0.1465 -0.0287
  243MOL    C1548899   5.199   1.696   3.596  0.4452  0.2127 -0.1924
  243MOL    H1648900   5.110   1.458   3.350 -1.2200 -3.0297 -0.6532
  243MOL    H1748901   5.181   1.424   3.505  0.1944 -0.5894 -1.2232
  243MOL    H1848902   4.998   1.568   3.616  0.5048 -1.9074  0.2391
  243MOL    H1948903   5.253   1.791   3.599 -0.0278  0.4452  1.6648
  243MOL    H2048904   5.131   1.696   3.681  0.3212 -1.2702 -0.2862
  243MOL    H2148905   5.260   1.607   3.610 -0.3759 -0.1609  1.0686
  243MOL    C2248906   4.886   1.598   3.428  0.0210 -0.3109 -0.5749
  243MOL    C2348907   4.804   1.720   3.474 -0.6025 -0.1738  0.4059
  243MOL    O2448908   4.709   1.758   3.375 -0.5250  0.1088 -0.2116
  243MOL    C2548909   4.743   1.878   3.309  0.8170  0.0722  0.1704
  243MOL    H2648910   4.810   1.519   3.427 -0.0638 -0.2810  1.3245
  243MOL    H2748911   4.923   1.598   3.326  0.3290  0.0377 -0.4610
  243MOL    H2848912   4.877   1.800   3.485 -1.0609  0.1775  0.8835
  243MOL    H2948913   4.780   1.960   3.370 -0.7350 -0.4494  1.8749
  243MOL    H3048914   4.787   1.872   3.210 -0.8600  1.2336 -0.6705
  243MOL    H3148915   4.646   1.923   3.286  1.5465  0.2197 -2.7599
  243MOL    C3248916   4.732   1.708   3.609  0.6843 -0.1590  0.4816
  243MOL    C3348917   4.680   1.857   3.647 -0.6455  0.7450 -0.0110
  243MOL    O3448918   4.543   1.869   3.604  0.8442  0.2664  0.4081
  243MOL    C3548919   4.516   2.005   3.566 -0.0076  0.2998 -0.2828
  243MOL    H3648920   4.804   1.675   3.684  0.8061  0.0573  0.4593
  243MOL    H3748921   4.651   1.637   3.594  1.7365 -1.5024  1.0477
  243MOL    H3848922   4.735   1.938   3.599  0.8500 -0.0507  0.3236
  243MOL    H3948923   4.593   2.049   3.503  0.6760  0.0719  0.3865
  243MOL    H4048924   4.430   2.013   3.499  1.6095  1.6585 -2.2538
  243MOL    H4148925   4.496   2.066   3.654 -0.3736 -1.1938  0.6877
  243MOL    C4248926   4.678   1.873   3.796  0.0824 -0.8146 -0.2989
  243MOL    C4348927   4.800   1.930   3.872 -0.4174 -0.0372 -0.1349
  243MOL    O4448928   4.888   1.819   3.880  0.3466 -0.4210 -0.0081
  243MOL    C4548929   4.881   1.748   4.005 -0.0707  0.3567 -0.3905
  243MOL    H4648930   4.639   1.785   3.846 -0.5858  0.5307  1.5825
  243MOL    H4748931   4.610   1.956   3.814  0.5002 -0.1372 -1.7186
  243MOL    H4848932   4.765   1.954   3.973 -1.1350  2.0929 -0.8619
  243MOL    H4948933   4.924   1.813   4.082 -0.3892 -0.1182  0.1947
  243MOL    H5048934   4.781   1.732   4.044  0.0668  3.2267  1.2301
  243MOL    H5148935   4.935   1.653   3.998 -0.9713 -0.1948 -0.0076
  243MOL    C5248936   4.870   2.051   3.789  0.3638  0.2056 -0.2982
  243MOL    C5348937   4.972   2.134   3.865 -0.5891 -0.2968  0.2882
  243MOL    O5448938   5.038   2.227   3.774 -0.2153  0.4461 -0.3015
  243MOL    C5548939   5.142   2.168   3.698  0.1937  0.0433 -0.2934
  243MOL    H5648940   4.791   2.116   3.752 -0.0119  0.5879  1.1621
  243MOL    H5748941   4.917   2.010   3.699 -1.4212  0.1429 -1.2273
  243MOL    H5848942   5.046   2.068   3.909 -0.0209  0.5261  0.5742
  243MOL    H5948943   5.186   2.236   3.625  1.5161  0.7116  1.0935
  243MOL    H6048944   5.225   2.142   3.763 -0.1144 -2.4966 -0.8631
  243MOL    H6148945   5.113   2.080   3.642  1.3145 -0.6201  0.1519
  243MOL    C6248946   4.911   2.213   3.984  0.0345  0.3604 -0.5200
  243MOL    C6348947   5.011   2.291   4.074  0.5404  0.3320 -0.6927
  243MOL    O6448948   4.947   2.379   4.165  0.2894 -0.0713 -0.4947
  243MOL    C6548949   4.890   2.487   4.093  0.0568 -0.5661  0.2813
  243MOL    H6648950   4.853   2.148   4.050  1.8345  0.6702  1.4429
  243MOL    H6748951   4.842   2.286   3.943  0.9979  0.3687 -2.1500
  243MOL    H6848952   5.078   2.352   4.013  0.7654 -1.3298 -2.1482
  243MOL    H6948953   4.789   2.482   4.053 -0.0136 -1.1801  0.5394
  243MOL    H7048954   4.892   2.568   4.167  0.5386  0.7196 -1.1006
  243MOL    H7148955   4.956   2.529   4.016  0.9535  1.1417  1.9331
  243MOL    C7248956   5.107   2.205   4.150 -0.0074  0.3532 -0.1580
  243MOL    C7348957   5.216   2.276   4.234  0.0379  0.0200  0.0945
  243MOL    O7448958   5.191   2.242   4.370  0.2976  0.2114  0.6376
  243MOL    C7548959   5.135   2.338   4.458 -0.1676 -0.6688 -1.0016
  243MOL    H7648960   5.158   2.136   4.083 -1.5722 -1.5842  0.5882
  243MOL    H7748961   5.047   2.144   4.217 -0.3511 -0.6147 -1.3367
  243MOL    H7848962   5.208   2.382   4.212  0.5205 -0.0318 -0.3397
  243MOL    H7948963   5.098   2.292   4.549  1.1313  2.1546  1.0482
  243MOL    H8048964   5.207   2.414   4.490 -0.0531 -1.6950  1.3025
  243MOL    H8148965   5.055   2.395   4.412  1.3665  3.5608  1.2357
  243MOL    C8248966   5.354   2.234   4.194 -0.2489  0.2701  0.1096
  243MOL    C8348967   5.388   2.265   4.045 -0.6909 -0.2244  0.3179
  243MOL    O8448968   5.409   2.406   4.040  0.1386  0.3455  0.0863
  243MOL    C8548969   5.404   2.469   3.921 -0.3955  0.2059  0.0890
  243MOL    H8648970   5.341   2.128   4.215 -2.0295 -0.0673 -2.4361
  243MOL    H8748971   5.431   2.268   4.264 -0.6960  1.1792  0.1797
  243MOL    H8848972   5.310   2.239   3.974  1.8802  1.0392 -3.1095
  243MOL    H8948973   5.502   2.465   3.873 -0.7139 -0.5143 -0.5225
  243MOL    H9048974   5.348   2.408   3.849  1.5083 -3.0017  1.2382
  243MOL    H9148975   5.375   2.574   3.912 -0.9827  0.1332  1.1022
  243MOL    C9248976   5.520   2.184   4.001  0.0918 -0.7537 -0.2325
  243MOL    C9348977   5.521   2.036   4.001  0.2016 -0.5825 -0.2319
  243MOL    O9448978   5.477   1.982   3.875  0.3419 -0.1735 -0.2986
  243MOL    C9548979   5.368   1.892   3.888  0.1370  0.3950  0.0365
  243MOL    H9648980   5.608   2.227   4.046  0.6746 -1.6128 -0.5356
  243MOL    H9748981   5.555   2.203   3.899  1.3805 -0.0529  0.3401
  243MOL    H9848982   5.458   2.010   4.086  1.0716  0.5936  0.7736
  243MOL    H9948983   5.335   1.865   3.787  0.4229 -0.6909  0.2245
  243MOL   H10048984   5.398   1.795   3.929 -2.3912  0.3324  1.8461
  243MOL   H10148985   5.291   1.938   3.950  2.6245  1.4167  2.4898
  243MOL   C10248986   5.665   1.988   4.020  0.4630  0.1991 -1.1715
  243MOL   C10348987   5.697   1.972   4.174  0.7979  0.5413  0.3551
  243MOL   O10448988   5.624   1.858   4.232  0.8547  0.3223 -0.5543
  243MOL   C10548989   5.619   1.854   4.377 -0.0686 -0.0721 -0.0487
  243MOL   H10648990   5.739   2.038   3.958  0.6860 -0.2019 -1.2269
  243MOL   H10748991   5.669   1.885   3.985  2.3979 -0.2463  0.2947
  243MOL   H10848992   5.658   2.059   4.228  1.4633  0.5249  0.8569
  243MOL   H10948993   5.562   1.936   4.420  2.5370  1.2301  1.0145
  243MOL   H11048994   5.568   1.761   4.403  1.0593 -0.2196  1.7134
  243MOL   H11148995   5.717   1.858   4.424 -0.8952 -2.7246  2.0440
  243MOL   C11248996   5.848   1.957   4.187  0.9561  0.2513  0.1614
  243MOL   C11348997   5.923   2.091   4.181  0.3692 -0.0540 -0.7442
  243MOL   O11448998   5.876   2.163   4.297  0.5422 -0.0567 -0.3921
  243MOL   C11548999   5.875   2.308   4.284 -0.0694 -0.3650  0.8990
  243MOL   H11649000   5.890   1.887   4.114  1.4662  0.2411  0.4593
  243MOL   H11749001   5.873   1.911   4.283  3.6769  0.0117 -0.5994
  243MOL   H11849002   5.904   2.143   4.086  0.5078  0.8993 -0.2537
  243MOL   H11949003   5.848   2.361   4.376 -0.6008  1.6305 -0.3700
  243MOL   H12049004   5.978   2.341   4.268  0.0672 -0.5663  1.3543
  243MOL   H12149005   5.818   2.341   4.197  0.5465  0.0661  0.6526
  243MOL   C12249006   6.075   2.075   4.198 -0.4489 -0.0946 -0.5912
  243MOL   C12349007   6.134   2.007   4.082 -0.4051 -0.0217  0.3694
  243MOL   O12449008   6.124   2.098   3.979 -0.0483  0.6493  0.0168
  243MOL   C12549009   6.078   2.048   3.861 -0.1983  0.8487  0.7135
  243MOL   H12649010   6.094   2.018   4.289  1.9424 -0.6833 -1.4134
  243MOL   H12749011   6.117   2.172   4.223 -1.7565 -0.0031  1.4188
  243MOL   H12849012   6.093   1.906   4.070 -1.0043  0.2692 -0.0791
  243MOL   H12949013   6.167   2.013   3.807 -2.0644  0.5401 -2.2554
  243MOL   H13049014   6.009   1.964   3.854  2.0603 -1.0235 -0.0593
  243MOL   H13149015   6.031   2.134   3.812 -0.7871  0.9152  1.3937
  243MOL   C13249016   6.287   1.981   4.092  0.0048 -0.0197 -0.1324
  243MOL   C13349017   6.329   1.899   4.217  0.1698  0.2054  0.3617
  243MOL   O13449018   6.275   1.780   4.172 -0.2590  0.1948  0.3060
  243MOL   C13549019   6.229   1.689   4.282  0.4826  0.3998 -0.7407
  243MOL   H13649020   6.348   2.071   4.087  1.7116 -0.9244  3.0762
  243MOL   H13749021   6.316   1.928   4.001 -0.1709 -0.3761  0.0154
  243MOL   H13849022   6.284   1.930   4.312 -1.7540 -0.8149 -0.1793
  243MOL   H13949023   6.200   1.593   4.239  0.6874 -1.1413  2.4235
  243MOL   H14049024   6.310   1.684   4.356 -0.2081  1.3445  0.1052
  243MOL   H14149025   6.140   1.725   4.333  1.5671  1.6950  0.3059
  243MOL   C14249026   6.485   1.879   4.242 -0.2992 -0.2766  0.2839
  243MOL   C14349027   6.532   1.931   4.384 -0.4808 -0.1482  0.3485
  243MOL   O14449028   6.637   1.844   4.411 -0.0892  0.1947  0.1102
  243MOL   C14549029   6.660   1.796   4.545 -0.1313 -0.0458  0.5181
  243MOL   H14649030   6.548   1.913   4.160 -0.0858  1.0600  0.9902
  243MOL   H14749031   6.503   1.772   4.235  0.8330  0.0044 -1.1743
  243MOL   H14849032   6.457   1.924   4.463 -0.7233 -1.0100  0.0399
  243MOL   H14949033   6.579   1.730   4.577  0.1256  0.9215  3.3088
  243MOL   H15049034   6.759   1.754   4.561  1.3935  2.3146 -2.3040
  243MOL   H15149035   6.656   1.885   4.609 -1.2959  0.0353  0.3402
  243MOL   C15249036   6.592   2.073   4.372 -0.6599 -0.3763  0.1745
  243MOL   C15349037   6.500   2.200   4.377 -0.1045  1.0560  0.4696
  243MOL   O15449038   6.385   2.191   4.297  0.4545  0.6519 -0.0682
  243MOL   C15549039   6.364   2.300   4.208 -0.5090 -0.2044  0.0699
  243MOL   H15649040   6.658   2.073   4.286 -1.8224  2.2922 -0.7760
  243MOL   H15749041   6.669   2.092   4.446  0.1026 -0.2713 -0.6440
  243MOL   H15849042   6.559   2.287   4.349  0.7878  0.2157 -0.2801
  243MOL   H15949043   6.357   2.394   4.264  0.1137 -0.0112 -0.1700
  243MOL   H16049044   6.450   2.320   4.144 -0.5990  3.0169  0.8227
  243MOL   H16149045   6.276   2.291   4.144  0.3842  0.2024 -1.2207
  243MOL   C16249046   6.452   2.242   4.512  1.0527 -0.5317  0.3404
  243MOL   C16349047   6.562   2.283   4.618  1.0917 -0.3793  0.6912
  243MOL   O16449048   6.648   2.385   4.576  0.0783 -0.3865 -0.7433
  243MOL   C16549049   6.780   2.386   4.629 -0.4508 -0.2719  0.5094
  243MOL   H16649050   6.400   2.158   4.557  0.9786 -0.5798  0.1667
  243MOL   H16749051   6.383   2.325   4.503  0.4361 -1.2746 -2.3027
  243MOL   H16849052   6.627   2.199   4.639  0.1809 -1.4380 -0.6556
  243MOL   H16949053   6.821   2.482   4.597 -1.6403  0.3121  0.7479
  243MOL   H17049054   6.789   2.368   4.736 -0.4380 -0.6831  0.4426
  243MOL   H17149055   6.846   2.317   4.576 -1.8965 -0.6729 -0.7909
  243MOL   C17249056   6.500   2.324   4.752  0.6104 -1.3648 -0.2648
  243MOL   C17349057   6.411   2.219   4.826 -0.1570  0.0481  0.0625
  243MOL   O17449058   6.500   2.096   4.820  0.0050  0.2449 -0.0409
  243MOL   C17549059   6.415   1.979   4.828  0.2989 -0.3052  0.1250
  243MOL   H17649060   6.446   2.414   4.725  2.6633  0.4686  1.5005
  243MOL   H17749061   6.589   2.342   4.813  0.5424 -1.6514 -0.0788
  243MOL   H17849062   6.321   2.211   4.765 -2.0036 -1.4378  2.8986
  243MOL   H17949063   6.341   1.982   4.748  0.3525  0.3128  0.0977
  243MOL   H18049064   6.476   1.891   4.807 -0.3292 -0.9289  0.8919
  243MOL   H18149065   6.363   1.962   4.922 -0.5075 -2.8500 -0.7274
  243MOL   C18249066   6.379   2.250   4.975 -1.1636  0.0663  0.8748
  243MOL   C18349067   6.228   2.240   5.002  0.1855  0.4698 -0.3980
  243MOL   O18449068   6.197   2.108   5.048 -0.4082 -0.0058 -0.6075
  243MOL   C18549069   6.085   2.052   4.987  0.6457 -0.0497  0.4509
  243MOL   H18649070   6.413   2.346   5.015  0.5544 -0.1322 -0.0962
  243MOL   H18749071   6.430   2.182   5.043 -0.4514  1.4173  1.7210
  243MOL   H18849072   6.162   2.270   4.920 -0.6978 -1.1488 -0.2960
  243MOL   H18949073   6.091   1.956   5.037 -0.1854  0.7203  2.0458
  243MOL   H19049074   5.990   2.100   5.007  1.0886  1.4658 -0.9325
  243MOL   H19149075   6.104   2.040   4.880  0.8132 -2.9617  0.7901
  243MOL   C19249076   6.188   2.329   5.116  0.0929 -0.5160 -0.1883
  243MOL   C19349077   6.050   2.317   5.174 -0.3907  0.3033  0.1039
  243MOL   O19449078   6.042   2.396   5.288  0.2072 -0.3894  0.6885
  243MOL   C19549079   5.921   2.399   5.356  0.4844  0.6096 -0.2640
  243MOL   H19649080   6.207   2.431   5.082  0.3631 -0.5611 -0.1795
  243MOL   H19749081   6.264   2.319   5.194  1.8070  0.6887 -1.6645
  243MOL   H19849082   6.013   2.217   5.196  0.5146 -0.0708 -0.0666
  243MOL   H19949083   5.844   2.428   5.284 -0.9870  0.0903  1.0755
  243MOL   H20049084   5.906   2.298   5.395  0.7158  0.2996 -0.9595
  243MOL   H20149085   5.922   2.476   5.432 -2.8660  0.2002  0.2926
  243MOL   H20249086   5.981   2.353   5.097  0.7079  0.6405 -0.7201
  244MOL     C149087   7.203   0.198   2.730  0.7396 -0.5962  0.6766
  244MOL     C249088   7.065   0.219   2.789 -0.3715 -0.4753 -0.2924
  244MOL     O349089   7.053   0.328   2.883 -1.0199 -0.7039 -0.1244
  244MOL     C449090   7.112   0.308   3.002 -1.1348  0.1534  0.6374
  244MOL     H549091   7.277   0.170   2.805  1.5342  2.3548  1.0610
  244MOL     H649092   7.206   0.135   2.641  0.6758 -2.4042  1.9351
  244MOL     H749093   7.036   0.124   2.835 -0.6085  0.1979  0.9815
  244MOL     H849094   7.071   0.218   3.049 -0.6890 -1.9995 -2.8841
  244MOL     H949095   7.219   0.294   2.982 -1.3933  1.9070 -2.2421
  244MOL    H1049096   7.112   0.395   3.068  0.4726  0.3521  0.4116
  244MOL    H1149097   7.252   0.295   2.714  0.3098 -0.3565  0.7962
  244MOL    C1249098   6.945   0.234   2.683 -0.0088  0.8024  0.4419
  244MOL    C1349099   6.951   0.344   2.582  0.6044  0.8448  0.7794
  244MOL    O1449100   6.843   0.315   2.489 -0.0134 -0.6833  0.1826
  244MOL    C1549101   6.879   0.280   2.357  0.4296  0.3746  0.7916
  244MOL    H1649102   6.851   0.230   2.739  0.9865  3.2297  2.4371
  244MOL    H1749103   6.947   0.138   2.633 -2.1213  0.9549  0.0270
  244MOL    H1849104   7.046   0.332   2.529  1.4052  0.2806  2.3111
  244MOL    H1949105   6.920   0.367   2.305  1.6259 -0.0003  1.0770
  244MOL    H2049106   6.963   0.211   2.350 -1.3225 -1.7664  0.7308
  244MOL    H2149107   6.795   0.238   2.302  1.1271  1.1624 -0.9093
  244MOL    C2249108   6.938   0.492   2.641  0.1692 -0.5544 -0.2476
  244MOL    C2349109   6.965   0.597   2.533  0.6077 -0.2535 -0.1803
  244MOL    O2449110   6.891   0.705   2.577 -0.6101 -0.2135 -0.3712
  244MOL    C2549111   6.765   0.730   2.518 -0.0600  0.4038  0.9301
  244MOL    H2649112   6.995   0.495   2.734 -0.1891  0.9951 -0.0738
  244MOL    H2749113   6.831   0.493   2.659  0.1150 -1.0924 -0.5297
  244MOL    H2849114   6.935   0.556   2.436 -0.0921 -1.5117  0.5571
  244MOL    H2949115   6.709   0.806   2.572 -1.7804 -0.5029  0.4414
  244MOL    H3049116   6.768   0.755   2.412  1.4844  0.5177  0.9872
  244MOL    H3149117   6.713   0.635   2.527  0.3793  0.1847  1.1750
  244MOL    C3249118   7.108   0.657   2.530 -0.8214  0.3954 -0.3183
  244MOL    C3349119   7.229   0.554   2.502 -0.0739  0.7970  0.0829
  244MOL    O3449120   7.194   0.466   2.396  0.0173 -0.0245 -0.0313
  244MOL    C3549121   7.188   0.533   2.269  0.6442  0.2963  1.3124
  244MOL    H3649122   7.127   0.706   2.625  2.9644  1.9751 -1.7836
  244MOL    H3749123   7.110   0.733   2.451 -0.1052 -0.6033 -1.2840
  244MOL    H3849124   7.236   0.489   2.589  1.1283  2.4104  1.2040
  244MOL    H3949125   7.141   0.464   2.200  0.1905  2.0008 -0.1205
  244MOL    H4049126   7.134   0.628   2.261  1.1202  0.4282 -0.5200
  244MOL    H4149127   7.290   0.542   2.233  0.8728 -0.3063  1.7910
  244MOL    C4249128   7.372   0.615   2.465  0.6349  0.7230 -0.6792
  244MOL    C4349129   7.428   0.689   2.585  0.7039 -0.3299  0.8501
  244MOL    O4449130   7.447   0.582   2.680 -0.5199 -0.1640  0.3318
  244MOL    C4549131   7.386   0.606   2.805  0.0022  0.2674  0.3326
  244MOL    H4649132   7.371   0.687   2.384  0.1581  1.4802 -0.0109
  244MOL    H4749133   7.443   0.539   2.432  1.2867  0.8162  0.4822
  244MOL    H4849134   7.348   0.758   2.610  1.2978  1.3874 -1.7712
  244MOL    H4949135   7.405   0.537   2.887  0.1075  1.6188  1.4579
  244MOL    H5049136   7.415   0.708   2.830  1.7332 -0.0287 -0.4080
  244MOL    H5149137   7.278   0.607   2.789 -0.1318 -0.0190  1.1936
  244MOL    C5249138   7.553   0.766   2.546  0.4319  0.4122  0.3163
  244MOL    C5349139   7.624   0.850   2.660 -0.7024  0.0658  0.5842
  244MOL    O5449140   7.753   0.878   2.610  0.0169  0.1843  0.0107
  244MOL    C5549141   0.052   0.829   2.688  0.1468  0.0650  1.2014
  244MOL    H5649142   7.534   0.822   2.455 -1.3112  0.5134  0.7293
  244MOL    H5749143   7.627   0.696   2.508 -0.0621 -0.1910  0.4601
  244MOL    H5849144   7.631   0.784   2.746  3.3294 -1.2255 -0.6205
  244MOL    H5949145   0.147   0.841   2.635 -1.3067 -0.0885 -1.5582
  244MOL    H6049146   0.060   0.892   2.776 -1.5229  1.3220  0.5027
  244MOL    H6149147   0.054   0.723   2.712  1.2675 -0.5398 -1.3482
  244MOL    C6249148   7.543   0.987   2.686  1.2354 -0.1287 -0.0352
  244MOL    C6349149   7.612   1.093   2.775 -0.0125 -0.0934  0.8788
  244MOL    O6449150   7.531   1.207   2.795 -0.4862 -0.2300  0.4483
  244MOL    C6549151   7.519   1.287   2.681  0.2540  0.1002 -1.1119
  244MOL    H6649152   7.442   0.973   2.722 -0.0660  1.9198 -2.6777
  244MOL    H6749153   7.526   1.028   2.586  2.2974 -1.9856 -1.0088
  244MOL    H6849154   7.707   1.126   2.733 -0.5904 -0.2609 -0.6032
  244MOL    H6949155   7.484   1.225   2.599  0.5450 -2.7699  0.8606
  244MOL    H7049156   7.452   1.372   2.694  1.5478  0.8300  1.1269
  244MOL    H7149157   7.618   1.325   2.658  1.2209 -0.2123  2.1766
  244MOL    C7249158   7.631   1.042   2.922  1.5886 -0.0652  0.3675
  244MOL    C7349159   7.712   1.131   3.015 -0.0070  0.0926 -0.2269
  244MOL    O7449160   7.706   1.059   3.132  0.6354 -0.3663  0.6364
  244MOL    C7549161   7.634   1.115   3.240 -0.0754 -0.6075 -0.3500
  244MOL    H7649162   7.671   0.941   2.925  0.0450 -0.6681  1.4273
  244MOL    H7749163   7.529   1.030   2.958  0.9823  1.1986 -0.9073
  244MOL    H7849164   7.655   1.224   3.021 -0.9313 -0.4389 -0.7602
  244MOL    H7949165   7.541   1.155   3.200  0.3747 -1.6545 -2.5113
  244MOL    H8049166   7.606   1.045   3.319  0.3265 -1.2311 -0.7516
  244MOL    H8149167   7.683   1.204   3.279 -1.0366  0.6823 -1.9938
  244MOL    C8249168   0.040   1.157   2.967 -0.3028  0.4620 -0.5160
  244MOL    C8349169   0.118   1.267   3.046 -0.5829  0.4240 -0.0415
  244MOL    O8449170   0.154   1.214   3.174 -0.0745 -0.5445 -0.0757
  244MOL    C8549171   0.180   1.303   3.280  0.6578 -0.6113  0.0754
  244MOL    H8649172   0.046   1.195   2.865  2.7157  0.6305 -0.3345
  244MOL    H8749173   0.094   1.062   2.967 -0.0307  0.6145 -0.5860
  244MOL    H8849174   0.053   1.352   3.063 -0.5223  0.8405 -1.7624
  244MOL    H8949175   0.267   1.366   3.262  0.2693  0.1719  0.9350
  244MOL    H9049176   0.091   1.365   3.293 -0.2660 -1.7382 -0.8367
  244MOL    H9149177   0.205   1.256   3.375  1.6115  0.9291  0.6066
  244MOL    C9249178   0.245   1.308   2.968 -0.0215  0.4449  0.4725
  244MOL    C9349179   0.257   1.462   2.970 -1.4605 -0.4192 -0.0427
  244MOL    O9449180   0.393   1.504   3.005  0.0562  0.1796  0.3073
  244MOL    C9549181   0.405   1.631   3.062 -0.2445 -0.9951  0.1193
  244MOL    H9649182   0.259   1.271   2.866  1.3194  0.7610  0.5424
  244MOL    H9749183   0.333   1.270   3.018 -0.5041 -1.1482  0.1548
  244MOL    H9849184   0.194   1.511   3.044  0.2338 -0.8863  1.7621
  244MOL    H9949185   0.508   1.662   3.084 -0.4809 -0.9533  1.1903
  244MOL   H10049186   0.364   1.713   3.003 -0.2298 -0.8022  0.3728
  244MOL   H10149187   0.353   1.621   3.157  0.1054 -1.4039  0.2687
  244MOL   C10249188   0.215   1.535   2.838 -0.2434  0.5047 -0.0327
  244MOL   C10349189   0.074   1.509   2.801  0.2656 -0.3141 -0.3697
  244MOL   O10449190   0.004   1.595   2.888 -0.0975 -0.5306  0.0161
  244MOL   C10549191   7.675   1.579   2.883  0.1118 -0.0580  0.5875
  244MOL   H10649192   0.294   1.510   2.767 -0.5077 -0.5033  0.0121
  244MOL   H10749193   0.227   1.643   2.846  0.4142  0.8380 -4.3364
  244MOL   H10849194   0.042   1.405   2.810 -0.6244 -0.1273 -1.3242
  244MOL   H10949195   7.630   1.625   2.971  0.2199 -0.8465  1.0550
  244MOL   H11049196   7.639   1.639   2.799 -0.9888 -3.1839 -1.2272
  244MOL   H11149197   7.635   1.479   2.896  0.7773 -0.5384 -0.9803
  244MOL   C11249198   0.048   1.553   2.648 -0.1170  0.5412 -0.2862
  244MOL   C11349199   0.128   1.461   2.548 -0.2809  0.0974  0.3372
  244MOL   O11449200   0.035   1.351   2.534 -0.1797  0.2918  0.3264
  244MOL   C11549201   0.093   1.223   2.501  0.5431 -0.1181 -0.3558
  244MOL   H11649202   0.087   1.655   2.643  1.0852  0.1810  1.4660
  244MOL   H11749203   7.753   1.549   2.621 -0.8032  1.1308  2.1703
  244MOL   H11849204   0.225   1.426   2.584  0.4654  3.1832  1.4285
  244MOL   H11949205   0.102   1.207   2.393 -1.3015 -0.2905 -0.4924
  244MOL   H12049206   0.183   1.214   2.562 -0.3623 -0.1721  0.9791
  244MOL   H12149207   0.017   1.148   2.522  0.7571  0.0992  1.2280
  244MOL   C12249208   0.124   1.521   2.406  0.8139 -0.0446 -0.3240
  244MOL   C12349209   0.242   1.475   2.316  0.0439 -0.2865 -0.4317
  244MOL   O12449210   0.209   1.501   2.179  0.1016  0.1067 -0.6137
  244MOL   C12549211   0.178   1.376   2.106 -0.9669 -0.2186 -0.2100
  244MOL   H12649212   0.130   1.630   2.407 -0.9463  0.1019 -1.8055
  244MOL   H12749213   0.029   1.508   2.354 -0.0714  0.3050  1.1693
  244MOL   H12849214   0.264   1.370   2.337 -0.1880 -0.1973  0.2805
  244MOL   H12949215   0.084   1.332   2.141 -2.8327  2.8464 -1.2013
  244MOL   H13049216   0.158   1.399   2.002  0.0233 -1.0952 -0.6099
  244MOL   H13149217   0.265   1.311   2.108  0.9097  2.0179 -4.3043
  244MOL   C13249218   0.377   1.535   2.351  0.2839  0.0967 -0.8558
  244MOL   C13349219   0.500   1.484   2.269 -0.1214 -0.3910 -0.0033
  244MOL   O13449220   0.611   1.567   2.300  0.3487 -0.0854 -0.2835
  244MOL   C13549221   0.694   1.581   2.189 -0.3762 -0.6046  0.6207
  244MOL   H13649222   0.393   1.523   2.458 -1.3270 -1.4729 -0.7669
  244MOL   H13749223   0.365   1.643   2.343 -2.3681 -0.0516  0.3232
  244MOL   H13849224   0.480   1.499   2.163 -3.1252  0.9678  0.7090
  244MOL   H13949225   0.740   1.485   2.164  0.0362 -0.5123  1.0165
  244MOL   H14049226   0.653   1.631   2.101 -1.2744 -1.0291  0.7913
  244MOL   H14149227   0.778   1.645   2.216  0.4576 -1.0364 -0.8909
  244MOL   C14249228   0.546   1.335   2.296  0.1328  0.5894 -0.0820
  244MOL   C14349229   0.590   1.298   2.439  0.4066 -0.0707 -0.6003
  244MOL   O14449230   0.480   1.288   2.530  0.1402  0.2803 -0.6251
  244MOL   C14549231   0.505   1.345   2.652 -0.7299  0.4717  0.2013
  244MOL   H14649232   0.629   1.315   2.227  0.9364  0.3632  0.9423
  244MOL   H14749233   0.463   1.275   2.261 -1.0656  2.2676 -0.2081
  244MOL   H14849234   0.661   1.372   2.475 -0.1234 -1.0266  2.5767
  244MOL   H14949235   0.596   1.315   2.703 -0.0483  2.1047 -0.0272
  244MOL   H15049236   0.505   1.454   2.648 -1.7870  0.4625 -0.2618
  244MOL   H15149237   0.423   1.322   2.721 -2.5326  0.0229 -2.0219
  244MOL   C15249238   0.639   1.154   2.422  0.3851  0.9876 -0.7725
  244MOL   C15349239   0.685   1.088   2.555  1.0305 -0.2046 -0.0763
  244MOL   O15449240   0.693   0.941   2.543  0.3120 -0.0251 -0.3703
  244MOL   C15549241   0.752   0.893   2.425 -0.1250  0.6144 -0.4274
  244MOL   H15649242   0.708   1.146   2.338  0.4020  1.1494 -0.7739
  244MOL   H15749243   0.554   1.097   2.385  0.8859  0.8188 -1.6999
  244MOL   H15849244   0.601   1.105   2.623 -0.3830 -0.9921 -1.5978
  244MOL   H15949245   0.688   0.883   2.337  2.1178 -0.0381 -2.0456
  244MOL   H16049246   0.838   0.956   2.403 -0.3333  1.4932  1.2080
  244MOL   H16149247   0.775   0.790   2.454 -0.5589  0.0013 -2.1713
  244MOL   C16249248   0.809   1.152   2.606  0.3679 -0.2675  0.4091
  244MOL   C16349249   0.852   1.086   2.739 -0.1854  0.2571 -0.0937
  244MOL   O16449250   0.939   0.986   2.699 -0.2547 -0.3501  0.1761
  244MOL   C16549251   0.940   0.871   2.778  0.0827  0.6174  0.6089
  244MOL   H16649252   0.803   1.260   2.613 -2.9061 -0.4472  1.2884
  244MOL   H16749253   0.890   1.145   2.534  0.6917 -0.9305  0.8319
  244MOL   H16849254   0.761   1.055   2.789 -0.1984 -0.3433 -0.4851
  244MOL   H16949255   0.850   0.814   2.758 -0.4238  1.4262  0.5524
  244MOL   H17049256   1.023   0.809   2.744 -1.7010 -1.2450 -0.4624
  244MOL   H17149257   0.958   0.892   2.884  0.4616 -1.8442  1.0521
  244MOL   C17249258   0.938   1.189   2.820 -0.4264 -0.2483 -0.1340
  244MOL   C17349259   0.843   1.289   2.897 -0.4946  0.4357 -0.2856
  244MOL   O17449260   0.787   1.208   3.000  0.2609  0.2040  0.4317
  244MOL   C17549261   0.670   1.257   3.064  0.0400 -0.0471 -0.0731
  244MOL   H17649262   1.013   1.239   2.758  3.0758 -1.3795  3.0046
  244MOL   H17749263   1.002   1.147   2.898 -0.9672  0.2154  0.5582
  244MOL   H17849264   0.761   1.330   2.837 -0.5093  2.2807  0.9435
  244MOL   H17949265   0.606   1.319   3.001 -0.6565 -0.6644  0.0291
  244MOL   H18049266   0.605   1.182   3.108 -2.2465  1.4287 -0.8020
  244MOL   H18149267   0.692   1.328   3.145  1.8785  1.4539 -1.8315
  244MOL   C18249268   0.934   1.402   2.958 -0.7524  0.9505  0.3999
  244MOL   C18349269   0.966   1.532   2.879  0.8819 -0.0746  0.3775
  244MOL   O18449270   0.843   1.589   2.870  0.4356  0.6478  0.2939
  244MOL   C18549271   0.791   1.611   2.744  0.3070 -0.1692 -0.1995
  244MOL   H18649272   1.023   1.349   2.992 -0.3247  0.7028 -1.0466
  244MOL   H18749273   0.891   1.415   3.057 -1.4339 -0.1148  0.2468
  244MOL   H18849274   1.003   1.493   2.784 -0.1891 -4.8517  1.7847
  244MOL   H18949275   0.731   1.523   2.720  0.3058 -0.2274  0.0225
  244MOL   H19049276   0.718   1.692   2.741 -1.0168 -1.2501  2.1623
  244MOL   H19149277   0.858   1.640   2.662 -0.8638 -0.1904 -1.1791
  244MOL   C19249278   1.053   1.644   2.946 -0.2660 -0.5914  0.0022
  244MOL   C19349279   1.097   1.757   2.852  0.6449 -0.1402 -0.4080
  244MOL   O19449280   1.145   1.865   2.933  0.1981 -0.3698  0.2953
  244MOL   C19549281   1.187   1.975   2.851 -0.2185 -0.4264  0.4827
  244MOL   H19649282   1.149   1.596   2.968  0.8725  2.5579  2.2401
  244MOL   H19749283   1.012   1.684   3.039  0.1911  1.9937 -0.8776
  244MOL   H19849284   1.005   1.794   2.807  0.4311  0.9172  0.8584
  244MOL   H19949285   1.277   1.953   2.793  0.1221 -0.1657  0.9113
  244MOL   H20049286   1.104   2.011   2.790  1.4460  0.7404 -1.1612
  244MOL   H20149287   1.212   2.053   2.923 -0.4324  0.7550 -0.6851
  244MOL   H20249288   1.165   1.726   2.773 -0.0900  0.9480 -1.4771
  245MOL     C149289   5.656   2.957   4.196  0.1298 -0.2314 -0.0128
  245MOL     C249290   5.539   2.929   4.097  0.3392  0.6798  0.2134
  245MOL     O349291   5.607   2.868   3.985  0.2464  0.6183  0.6911
  245MOL     C449292   5.527   2.863   3.870  0.0331  0.6058 -0.1640
  245MOL     H549293   5.708   3.045   4.157 -1.1097 -0.4297 -2.1689
  245MOL     H649294   5.616   2.991   4.291 -4.8893 -1.1447 -1.6362
  245MOL     H749295   5.489   3.023   4.076 -0.9041 -0.1099 -0.3930
  245MOL     H849296   5.581   2.847   3.777  3.4266  0.9254  1.6806
  245MOL     H949297   5.451   2.785   3.871  1.4131 -0.7946 -1.5319
  245MOL    H1049298   5.482   2.962   3.859  1.3025  1.2237  0.0546
  245MOL    H1149299   5.718   2.871   4.221  1.5268  1.4289  2.4105
  245MOL    C1249300   5.438   2.826   4.161  0.3182 -0.2153 -0.2150
  245MOL    C1349301   5.293   2.881   4.177 -0.4658  0.1454 -0.3816
  245MOL    O1449302   5.221   2.779   4.249  0.2773 -0.3783  0.6343
  245MOL    C1549303   5.173   2.670   4.171  0.6521 -0.1410 -0.2088
  245MOL    H1649304   5.471   2.796   4.260 -4.1971  0.6416  1.6613
  245MOL    H1749305   5.431   2.732   4.106 -1.6612 -0.4071  0.3363
  245MOL    H1849306   5.239   2.899   4.084  2.1313 -1.5346 -2.3000
  245MOL    H1949307   5.141   2.599   4.248  0.4159  0.6309  0.4101
  245MOL    H2049308   5.094   2.708   4.106  0.1009 -0.9431 -0.0138
  245MOL    H2149309   5.247   2.618   4.111  1.1279  0.1197  0.1506
  245MOL    C2249310   5.289   3.011   4.265  0.1442 -0.3469  0.2315
  245MOL    C2349311   5.165   3.101   4.235  0.8636 -0.0017  0.0652
  245MOL    O2449312   5.183   3.159   4.107 -0.1271  0.2267 -0.2612
  245MOL    C2549313   5.190   3.307   4.108 -0.2651  0.7206 -0.7383
  245MOL    H2649314   5.375   3.074   4.244 -0.1661  0.2606  0.7737
  245MOL    H2749315   5.300   2.998   4.373  1.7231 -1.1374 -0.0113
  245MOL    H2849316   5.152   3.180   4.308 -2.0575 -2.4806  2.3510
  245MOL    H2949317   5.290   3.334   4.142 -0.6768  0.7558  0.4825
  245MOL    H3049318   5.188   3.357   4.012 -0.5214 -0.3212 -1.2780
  245MOL    H3149319   5.124   3.364   4.175 -1.5691 -0.1729 -1.2529
  245MOL    C3249320   5.029   3.024   4.241 -0.1716  0.0231  0.4135
  245MOL    C3349321   4.902   3.108   4.258  0.4358 -0.7080  0.0695
  245MOL    O3449322   4.876   3.145   4.123 -0.2958 -0.2319  0.2629
  245MOL    C3549323   4.778   3.244   4.107 -0.2816 -0.5415  0.2337
  245MOL    H3649324   5.020   2.941   4.311  2.2005 -0.3902  0.2958
  245MOL    H3749325   5.025   2.965   4.149  1.3981 -1.3235  1.1839
  245MOL    H3849326   4.933   3.184   4.329 -1.2202  1.3494 -1.3539
  245MOL    H3949327   4.787   3.274   4.002 -1.0197  2.5401  1.0008
  245MOL    H4049328   4.676   3.208   4.119 -1.0346  1.6255  0.6788
  245MOL    H4149329   4.791   3.336   4.164  0.1630  0.0991 -0.8823
  245MOL    C4249330   4.782   3.027   4.319 -0.4253 -0.2079  0.3146
  245MOL    C4349331   4.798   2.970   4.471 -0.5883 -0.0770 -0.1216
  245MOL    O4449332   4.823   3.086   4.552  0.1397  0.1454 -0.1311
  245MOL    C4549333   4.932   3.071   4.646  0.4377 -0.0275  0.0798
  245MOL    H4649334   4.758   2.940   4.259 -2.4076  0.3405  0.2526
  245MOL    H4749335   4.690   3.086   4.320 -0.1737  0.1933 -0.5389
  245MOL    H4849336   4.878   2.898   4.483  0.6753  1.4816  0.9258
  245MOL    H4949337   5.030   3.055   4.600  0.0153  0.8853 -1.1774
  245MOL    H5049338   4.948   3.148   4.722  0.7507 -0.9309  0.9387
  245MOL    H5149339   4.911   2.978   4.699  1.4490  1.3678  3.0448
  245MOL    C5249340   4.673   2.904   4.523  0.2741 -0.0895  0.1903
  245MOL    C5349341   4.660   2.746   4.501 -0.3112 -0.4271  0.6081
  245MOL    O5449342   4.775   2.689   4.579  0.1324 -0.0063  0.4987
  245MOL    C5549343   4.852   2.590   4.511  0.4404  0.4166 -0.0145
  245MOL    H5649344   4.586   2.949   4.476  0.3871  0.6854  0.7050
  245MOL    H5749345   4.663   2.939   4.625  0.8646  0.1853  0.1578
  245MOL    H5849346   4.677   2.731   4.395 -1.4415  1.9404  0.0499
  245MOL    H5949347   4.911   2.633   4.430  1.1825 -0.9552 -0.2182
  245MOL    H6049348   4.922   2.558   4.588 -0.5463 -1.9203 -0.0446
  245MOL    H6149349   4.801   2.501   4.474  0.4389  1.3157 -2.2367
  245MOL    C6249350   4.535   2.681   4.555 -0.1598  0.0237 -0.0207
  245MOL    C6349351   4.406   2.721   4.478 -0.3202  0.0966 -0.0064
  245MOL    O6449352   4.437   2.710   4.333  0.7565 -0.1838  0.1372
  245MOL    C6549353   4.407   2.825   4.257 -0.0315  0.9476 -0.0967
  245MOL    H6649354   4.524   2.708   4.661  1.0567  0.4439  0.0083
  245MOL    H6749355   4.552   2.573   4.553 -1.6392 -0.2002 -1.0610
  245MOL    H6849356   4.384   2.826   4.497 -0.1891 -0.0517  0.9842
  245MOL    H6949357   4.298   2.836   4.259 -0.1730  0.2962 -2.4061
  245MOL    H7049358   4.458   2.917   4.284  0.7979  0.4535  0.0323
  245MOL    H7149359   4.440   2.799   4.157  1.8065 -0.2077  0.7901
  245MOL    C7249360   4.282   2.642   4.509  0.8158 -0.7421 -0.5551
  245MOL    C7349361   4.213   2.649   4.643  0.3004 -0.0902 -0.2836
  245MOL    O7449362   4.073   2.608   4.629 -0.0954 -0.2285 -0.0163
  245MOL    C7549363   3.989   2.712   4.596  0.8314 -0.0291 -0.1949
  245MOL    H7649364   4.307   2.538   4.492 -1.9001 -1.6481  0.6389
  245MOL    H7749365   4.213   2.655   4.426 -0.5367 -1.6031  0.4066
  245MOL    H7849366   4.213   2.752   4.679  2.3812  0.4660 -1.7967
  245MOL    H7949367   3.885   2.685   4.574  1.3501  0.7243 -3.7688
  245MOL    H8049368   3.985   2.775   4.686  0.7629  0.7695 -0.7483
  245MOL    H8149369   4.020   2.778   4.515 -0.4522  0.4211 -0.3367
  245MOL    C8249370   4.287   2.551   4.748 -0.3065  0.0587 -0.3304
  245MOL    C8349371   4.212   2.522   4.880  0.2876 -1.1147  0.0266
  245MOL    O8449372   4.272   2.422   4.963 -0.0364  0.6883 -0.1754
  245MOL    C8549373   4.260   2.283   4.918 -0.0829 -0.5186  0.5744
  245MOL    H8649374   4.389   2.584   4.771 -0.9384  3.6369 -2.3176
  245MOL    H8749375   4.295   2.455   4.699  3.3511 -0.4153  1.0542
  245MOL    H8849376   4.112   2.500   4.845  0.5863 -2.1056 -0.1978
  245MOL    H8949377   4.159   2.253   4.892 -1.1411  2.5828  0.9166
  245MOL    H9049378   4.325   2.261   4.834  0.9824 -1.2900  1.5858
  245MOL    H9149379   4.282   2.210   4.996  0.3862 -0.5503  0.4186
  245MOL    C9249380   4.208   2.657   4.964  0.0624 -0.4211  0.1014
  245MOL    C9349381   4.122   2.650   5.091  0.2302 -0.3802  0.3575
  245MOL    O9449382   4.154   2.770   5.154 -0.1710 -0.3583  0.1151
  245MOL    C9549383   4.251   2.765   5.258 -0.7196 -0.0592 -0.2812
  245MOL    H9649384   4.157   2.730   4.900 -0.6986 -1.1580 -0.1440
  245MOL    H9749385   4.300   2.704   4.996 -0.8004  0.6982  0.9848
  245MOL    H9849386   4.146   2.562   5.151  3.3867 -0.7232 -1.3153
  245MOL    H9949387   4.297   2.667   5.268  2.9175  1.5265 -0.5638
  245MOL   H10049388   4.321   2.848   5.257 -0.5717 -0.1760  0.3448
  245MOL   H10149389   4.198   2.787   5.351 -0.4150 -0.5989  0.0208
  245MOL   C10249390   3.969   2.664   5.057 -0.0521  0.0524  0.1493
  245MOL   C10349391   3.898   2.529   5.029  0.0247 -0.5306 -1.0473
  245MOL   O10449392   3.951   2.431   5.111 -0.3186  0.4844 -0.5005
  245MOL   C10549393   3.912   2.302   5.075 -0.7472 -0.3916  0.4296
  245MOL   H10649394   3.961   2.728   4.969  0.2420 -1.4804 -0.9909
  245MOL   H10749395   3.929   2.710   5.148 -1.3374  0.6354 -0.6919
  245MOL   H10849396   3.931   2.508   4.928  1.3323  0.2856 -0.7961
  245MOL   H10949397   3.939   2.273   4.974 -1.1825 -1.0120  0.4851
  245MOL   H11049398   3.948   2.225   5.144  0.4737  0.5330  0.8489
  245MOL   H11149399   3.805   2.284   5.085 -0.9796  0.1484 -1.0315
  245MOL   C11249400   3.747   2.548   5.036  0.4191 -0.2482  0.1269
  245MOL   C11349401   3.681   2.649   4.939 -0.7130  0.0414 -0.3511
  245MOL   O11449402   3.551   2.618   4.924 -0.5048 -0.3166  0.6737
  245MOL   C11549403   3.517   2.508   4.847  0.2794 -0.4162 -0.0053
  245MOL   H11649404   3.702   2.570   5.133 -1.6696 -1.5221 -0.5305
  245MOL   H11749405   3.703   2.455   5.001 -0.1681 -0.6220  1.7790
  245MOL   H11849406   3.739   2.633   4.848  2.2398 -1.0227  1.6517
  245MOL   H11949407   3.567   2.512   4.750  1.5732  0.6109  0.6945
  245MOL   H12049408   3.522   2.416   4.905 -1.4558 -0.4491  0.1207
  245MOL   H12149409   3.414   2.515   4.812  0.3934  1.4696 -0.0107
  245MOL   C12249410   3.670   2.791   4.991 -0.2294  0.1042  1.3654
  245MOL   C12349411   3.632   2.899   4.888  0.2680 -0.3336  0.2187
  245MOL   O12449412   3.614   3.025   4.957  0.2433 -0.2615  0.2119
  245MOL   C12549413   3.476   3.054   4.992 -0.1139  0.2250 -0.2419
  245MOL   H12649414   3.763   2.816   5.041 -0.3841  1.0841  1.1759
  245MOL   H12749415   3.589   2.800   5.063 -1.1218 -0.0204  0.3881
  245MOL   H12849416   3.541   2.863   4.839 -2.0004  3.5998  1.2886
  245MOL   H12949417   3.412   3.088   4.911 -1.3631  0.0294  0.6459
  245MOL   H13049418   3.423   2.973   5.043  1.9818 -1.1884 -0.2462
  245MOL   H13149419   3.490   3.137   5.062  1.8829  0.8466 -1.3294
  245MOL   C13249420   3.758   2.921   4.799  0.1247 -0.4211  0.2286
  245MOL   C13349421   3.749   3.046   4.701  0.8690  0.3202  0.0794
  245MOL   O13449422   3.866   3.034   4.620 -0.2467 -0.6681 -0.2300
  245MOL   C13549423   3.977   3.104   4.668 -0.3407  0.0251 -0.0663
  245MOL   H13649424   3.771   2.829   4.742 -2.2326 -0.6076 -0.0888
  245MOL   H13749425   3.845   2.928   4.864  0.4195 -1.8464  0.0090
  245MOL   H13849426   3.751   3.138   4.759 -0.1521  1.5291 -1.7175
  245MOL   H13949427   3.936   3.206   4.672  1.5743  0.8472 -0.9957
  245MOL   H14049428   4.000   3.069   4.768  2.5172  0.0481 -0.6923
  245MOL   H14149429   4.065   3.091   4.605 -0.1695 -1.7722  0.5404
  245MOL   C14249430   3.620   3.039   4.601 -0.2930 -0.2228  0.1399
  245MOL   C14349431   3.614   3.159   4.511  0.0840  0.4500  0.2992
  245MOL   O14449432   3.559   3.128   4.381 -0.0407 -0.1279 -0.3978
  245MOL   C14549433   3.438   3.054   4.380  0.6209  0.4441  0.8836
  245MOL   H14649434   3.526   3.025   4.655 -0.2398  1.4494  0.6720
  245MOL   H14749435   3.630   2.946   4.544  0.3700  0.1961 -0.4311
  245MOL   H14849436   3.716   3.192   4.490  1.3581 -2.2772  1.8978
  245MOL   H14949437   3.355   3.125   4.374  0.1469 -0.1530  0.3267
  245MOL   H15049438   3.434   2.990   4.292  0.3049 -0.1406  1.3168
  245MOL   H15149439   3.433   2.983   4.462 -0.4710 -0.6031 -0.0741
  245MOL   C15249440   3.538   3.274   4.574  0.1028 -0.0050  0.0416
  245MOL   C15349441   3.576   3.416   4.519 -0.3845 -0.7006  0.4584
  245MOL   O15449442   3.471   3.513   4.549  0.2715 -0.3475 -0.0170
  245MOL   C15549443   3.445   3.604   4.440  0.5494 -0.4013 -0.0691
  245MOL   H15649444   3.546   3.281   4.682  0.5468 -1.4596  0.1043
  245MOL   H15749445   3.430   3.262   4.557 -0.4134 -0.1865  3.2790
  245MOL   H15849446   3.558   3.397   4.413 -1.6303  1.0238  0.3410
  245MOL   H15949447   3.411   3.693   4.492  2.0681  1.1732 -1.6829
  245MOL   H16049448   3.541   3.622   4.390  0.3491  0.0627 -0.2861
  245MOL   H16149449   3.379   3.563   4.363 -0.6730 -0.7743  1.1705
  245MOL   C16249450   3.722   3.482   4.536  0.2532  0.8473 -0.3886
  245MOL   C16349451   3.758   3.499   4.688 -0.0466 -0.1144 -0.5113
  245MOL   O16449452   3.884   3.563   4.675  0.0387  0.0433 -0.0551
  245MOL   C16549453   3.980   3.553   4.783  0.3890  0.0653 -0.1351
  245MOL   H16649454   3.741   3.575   4.482  0.5418  1.1865  0.2920
  245MOL   H16749455   3.796   3.416   4.493  1.2104  2.0444 -0.5972
  245MOL   H16849456   3.767   3.398   4.728 -1.4332 -0.0375  0.0148
  245MOL   H16949457   4.011   3.449   4.774  1.1748 -0.0024  2.8650
  245MOL   H17049458   4.057   3.630   4.784  0.1156  0.3439 -0.3531
  245MOL   H17149459   3.927   3.575   4.876 -2.3619  3.1171 -2.3252
  245MOL   C17249460   3.669   3.596   4.763  0.0629 -0.2413 -0.3316
  245MOL   C17349461   3.560   3.536   4.853 -0.3559  0.0331 -0.6250
  245MOL   O17449462   3.606   3.477   4.972  0.1056 -0.0889 -1.0319
  245MOL   C17549463   3.676   3.548   5.070 -0.2170  0.3258  0.1573
  245MOL   H17649464   3.627   3.669   4.695  1.5361  2.6140  1.6848
  245MOL   H17749465   3.726   3.662   4.829 -0.8549  0.2059  0.0217
  245MOL   H17849466   3.513   3.457   4.795  0.2035 -0.5525 -0.2914
  245MOL   H17949467   3.762   3.599   5.026 -0.3515  0.4668  0.0593
  245MOL   H18049468   3.615   3.628   5.112 -0.8184  0.0234 -0.1355
  245MOL   H18149469   3.720   3.486   5.149  0.6445  0.4662 -0.2083
  245MOL   C18249470   3.441   3.641   4.880 -0.9936  0.7303 -0.5971
  245MOL   C18349471   3.326   3.593   4.970 -0.0625 -0.0449  0.0891
  245MOL   O18449472   3.236   3.698   4.974  0.1021  0.0746  0.4359
  245MOL   C18549473   3.180   3.724   5.100 -0.5115 -0.0547  0.3115
  245MOL   H18649474   3.398   3.682   4.788 -1.6631  0.0453 -0.5909
  245MOL   H18749475   3.490   3.717   4.940  0.6611 -0.2722 -0.6505
  245MOL   H18849476   3.366   3.586   5.071 -0.0679 -1.8353 -0.0044
  245MOL   H18949477   3.124   3.640   5.141  0.0249 -1.9930 -2.7880
  245MOL   H19049478   3.258   3.723   5.176 -2.5981 -1.9144  2.5166
  245MOL   H19149479   3.129   3.821   5.109  0.8026  0.5481  1.3574
  245MOL   C19249480   3.258   3.458   4.929  0.7299 -0.2490 -1.1025
  245MOL   C19349481   3.197   3.447   4.789  0.3389  0.2961 -0.8891
  245MOL   O19449482   3.163   3.316   4.749 -0.6465 -0.5511  0.2051
  245MOL   C19549483   3.140   3.311   4.609 -0.1456  0.4506 -0.0943
  245MOL   H19649484   3.178   3.437   5.001 -0.1768 -1.2523 -2.3651
  245MOL   H19749485   3.327   3.375   4.944  0.5341 -0.0963  0.6662
  245MOL   H19849486   3.269   3.482   4.714 -0.6309 -0.2060 -2.0714
  245MOL   H19949487   3.226   3.340   4.550  0.4214 -1.1518 -0.0838
  245MOL   H20049488   3.134   3.204   4.586  1.8385 -0.5058  3.4709
  245MOL   H20149489   3.062   3.377   4.570 -0.9806 -1.6389 -2.1071
  245MOL   H20249490   3.111   3.514   4.795 -0.5563 -0.7978 -1.3927
  246MOL     C149491   7.464   0.057   4.267  0.5616  0.4829 -0.3027
  246MOL     C249492   7.527   7.731   4.314 -0.4682 -0.3363  0.2479
  246MOL     O349493   7.643   7.772   4.384  0.2524  0.0311  0.4505
  246MOL     C449494   7.729   7.674   4.434  0.6506  0.7301 -0.5618
  246MOL     H549495   7.416   0.092   4.359  0.9088 -0.7652  0.3614
  246MOL     H649496   7.533   0.129   4.223 -1.6969  2.5940 -0.5251
  246MOL     H749497   7.560   7.679   4.224 -0.5691 -2.0598  1.2047
  246MOL     H849498   0.018   7.712   4.453  1.6397 -0.9406 -2.1555
  246MOL     H949499   7.694   7.636   4.530  2.1709 -2.6026 -1.2402
  246MOL    H1049500   7.745   7.591   4.365 -0.4482  0.2673 -0.2667
  246MOL    H1149501   7.380   0.047   4.198 -1.6791  0.8679  2.2859
  246MOL    C1249502   7.430   7.636   4.384  0.5917  0.2590  0.1757
  246MOL    C1349503   7.333   7.566   4.290 -0.6847 -1.0171 -0.3491
  246MOL    O1449504   7.402   7.469   4.219 -0.2100  0.1770  1.2087
  246MOL    C1549505   7.381   7.478   4.077  0.1244 -0.2215  0.4588
  246MOL    H1649506   7.369   7.703   4.445 -1.8592 -2.1582  0.4616
  246MOL    H1749507   7.491   7.571   4.446 -0.3985  0.8243  1.7840
  246MOL    H1849508   7.291   7.641   4.222 -1.6233 -0.5042  0.7704
  246MOL    H1949509   7.450   7.402   4.040  2.6628  0.9498  2.6566
  246MOL    H2049510   7.281   7.459   4.038  0.1833 -0.2121  0.3029
  246MOL    H2149511   7.415   7.572   4.034  0.0184 -0.9765 -1.3256
  246MOL    C2249512   7.228   7.498   4.375  0.1990  0.0561  0.7493
  246MOL    C2349513   7.103   7.450   4.298  0.0275  0.1833  0.1519
  246MOL    O2449514   7.026   7.364   4.389 -0.5033  0.6489 -0.0224
  246MOL    C2549515   7.063   7.225   4.374  0.7020  0.4196 -0.1484
  246MOL    H2649516   7.178   7.547   4.459  0.1710  2.3395 -0.5592
  246MOL    H2749517   7.263   7.402   4.412 -0.8516  0.0049  1.6624
  246MOL    H2849518   7.129   7.391   4.210  1.1419  0.5997  0.1821
  246MOL    H2949519   6.988   7.178   4.311  0.3855 -0.8152  1.1243
  246MOL    H3049520   7.159   7.215   4.323  1.0970  1.9350  0.2843
  246MOL    H3149521   7.067   7.177   4.472  0.8628  0.6316 -0.0516
  246MOL    C3249522   7.001   7.559   4.264  0.5840  0.6335 -0.2118
  246MOL    C3349523   6.893   7.529   4.154  0.0085 -0.4295 -0.1836
  246MOL    O3449524   6.958   7.479   4.033  0.1590 -0.3058 -0.5164
  246MOL    C3549525   7.026   7.576   3.953 -0.3612 -0.5985 -0.4680
  246MOL    H3649526   7.065   7.644   4.239  0.9974  0.7423  1.1928
  246MOL    H3749527   6.948   7.596   4.352 -0.4159 -0.9905 -0.1141
  246MOL    H3849528   6.832   7.615   4.126  0.2226  0.5987  2.3808
  246MOL    H3949529   7.059   7.538   3.857  0.3458 -0.2468 -0.3656
  246MOL    H4049530   6.963   7.663   3.932  1.0968  0.1236 -1.8904
  246MOL    H4149531   7.112   7.616   4.007 -0.0311 -2.1018  0.1501
  246MOL    C4249532   6.800   7.412   4.204 -0.1309  0.0111 -0.4755
  246MOL    C4349533   6.668   7.384   4.128 -0.0892  0.3435  0.2003
  246MOL    O4449534   6.594   7.276   4.197  0.5178 -0.1259  0.1433
  246MOL    C4549535   6.622   7.152   4.142  0.0704  0.1807 -0.0886
  246MOL    H4649536   6.779   7.424   4.310 -0.6539  1.3403 -0.7224
  246MOL    H4749537   6.870   7.329   4.205 -1.3171 -1.0053 -1.0747
  246MOL    H4849538   6.705   7.349   4.032  0.3949  0.2370  0.4261
  246MOL    H4949539   6.616   7.147   4.033  1.9330  1.5745 -0.2662
  246MOL    H5049540   6.711   7.102   4.181  1.2293  2.3362  0.0850
  246MOL    H5149541   6.549   7.076   4.172  1.4596 -0.1818  2.5418
  246MOL    C5249542   6.574   7.505   4.113 -0.3603  0.4195  0.3165
  246MOL    C5349543   6.523   7.578   4.231 -0.1909  0.1161  0.0765
  246MOL    O5449544   6.625   7.676   4.267  0.6840  0.1045  0.4804
  246MOL    C5549545   6.663   7.669   4.407  0.7180  0.0114 -0.1671
  246MOL    H5649546   6.491   7.461   4.058  2.0402 -2.8272 -0.8941
  246MOL    H5749547   6.617   7.573   4.040  2.7356  0.0438  1.7287
  246MOL    H5849548   6.498   7.501   4.305 -1.6821  0.1841 -0.3435
  246MOL    H5949549   6.680   7.574   4.458  3.4289  1.0125  0.8296
  246MOL    H6049550   6.753   7.719   4.441 -0.0068  2.3426 -1.5431
  246MOL    H6149551   6.591   7.719   4.471  0.0921 -0.0603 -0.8058
  246MOL    C6249552   6.392   7.646   4.201  0.2674  0.0605 -0.4400
  246MOL    C6349553   6.304   7.676   4.317  0.1039  0.5677  0.3863
  246MOL    O6449554   6.239   7.800   4.284 -0.2287  0.1116 -0.2501
  246MOL    C6549555   6.216   0.081   4.389  0.0699 -0.3148 -0.0867
  246MOL    H6649556   6.331   7.575   4.146 -1.1382  0.7173  0.2412
  246MOL    H6749557   6.402   7.740   4.146  1.8019  0.0397 -0.2259
  246MOL    H6849558   6.360   7.697   4.408  3.6440 -0.3429 -1.5088
  246MOL    H6949559   6.301   0.146   4.410  0.5189 -1.3189  1.2943
  246MOL    H7049560   6.146   0.154   4.347 -1.3892 -1.2686  0.6312
  246MOL    H7149561   6.181   0.036   4.482  0.4666  0.8266  0.6194
  246MOL    C7249562   6.197   7.572   4.345 -0.4104  0.8322  0.3296
  246MOL    C7349563   6.237   7.450   4.436 -0.4080  0.9020 -0.1851
  246MOL    O7449564   6.284   7.509   4.560 -0.0899 -0.0273  0.3804
  246MOL    C7549565   6.383   7.438   4.618 -0.4397 -0.4108 -0.3077
  246MOL    H7649566   6.156   7.536   4.250  0.2252  0.2280  0.2727
  246MOL    H7749567   6.116   7.621   4.398 -0.2782  1.7122 -0.2714
  246MOL    H7849568   6.320   7.400   4.386 -0.4056  1.7715 -1.0641
  246MOL    H7949569   6.396   7.462   4.724  1.0261 -0.4006 -0.4754
  246MOL    H8049570   6.372   7.331   4.601  0.1860 -0.6925  0.9138
  246MOL    H8149571   6.474   7.472   4.569 -0.0724  0.8471  1.1777
  246MOL    C8249572   6.123   7.362   4.460 -0.3360  0.1193 -0.0708
  246MOL    C8349573   6.089   7.266   4.347 -0.1598  0.1125 -0.0649
  246MOL    O8449574   6.196   7.178   4.340  0.3887 -0.5194  0.3386
  246MOL    C8549575   6.256   7.171   4.211 -0.2923 -0.1880  0.7634
  246MOL    H8649576   6.029   7.415   4.476 -1.5198 -2.0352  0.2882
  246MOL    H8749577   6.137   7.304   4.552 -1.9358 -0.4793 -0.1851
  246MOL    H8849578   6.086   7.312   4.248  2.6658 -0.6785 -0.5656
  246MOL    H8949579   6.330   7.091   4.206 -0.5552 -0.5052  1.6994
  246MOL    H9049580   6.186   7.169   4.128  0.7811 -0.8119 -0.1505
  246MOL    H9149581   6.309   7.265   4.201 -1.1628  0.1381 -0.9380
  246MOL    C9249582   5.959   7.193   4.366 -1.2084 -0.1267 -0.3563
  246MOL    C9349583   5.916   7.090   4.258 -0.2910  0.4876 -0.4348
  246MOL    O9449584   5.808   7.018   4.305 -0.0370  0.4645  0.0273
  246MOL    C9549585   5.820   6.919   4.400  0.1130  0.1758  0.0260
  246MOL    H9649586   5.871   7.251   4.395 -1.0640  0.3987 -0.9536
  246MOL    H9749587   5.977   7.139   4.459 -0.9714  0.8470  0.1776
  246MOL    H9849588   5.997   7.018   4.251 -1.4430 -0.9177  0.3344
  246MOL    H9949589   5.927   6.904   4.413  0.2366 -0.1604 -1.2383
  246MOL   H10049590   5.765   6.940   4.491  1.6197 -0.0556  0.9982
  246MOL   H10149591   5.798   6.821   4.356  3.5151 -1.1976  1.2040
  246MOL   C10249592   5.884   7.153   4.119 -0.1716 -0.3219  0.0510
  246MOL   C10349593   5.762   7.245   4.124 -0.3459 -0.8233 -0.1989
  246MOL   O10449594   5.823   7.370   4.151  0.4385  0.1318  0.2437
  246MOL   C10549595   5.738   7.457   4.219  0.7962 -0.9160 -0.5624
  246MOL   H10649596   5.857   7.076   4.047  1.5600 -1.0700  0.1823
  246MOL   H10749597   5.972   7.206   4.082  0.4324 -0.8741  0.6867
  246MOL   H10849598   5.684   7.217   4.195 -0.0234 -0.0241  0.4808
  246MOL   H10949599   5.652   7.480   4.156  0.9918  0.2961 -0.4078
  246MOL   H11049600   5.718   7.411   4.315  0.4137 -0.3144 -0.3529
  246MOL   H11149601   5.791   7.551   4.234 -0.5106 -0.1597 -0.6096
  246MOL   C11249602   5.702   7.248   3.982  0.1804 -0.1541 -0.8347
  246MOL   C11349603   5.603   7.131   3.933 -0.1689  0.9365  0.0678
  246MOL   O11449604   5.468   7.180   3.961 -0.1322  0.1075 -0.1535
  246MOL   C11549605   5.401   7.116   4.071 -0.5841 -0.0277  0.4851
  246MOL   H11649606   5.792   7.260   3.922 -0.7862 -1.4299 -2.5902
  246MOL   H11749607   5.652   7.344   3.968 -0.7605 -0.2752  1.5376
  246MOL   H11849608   5.629   7.038   3.984  1.4573  2.1131  1.4451
  246MOL   H11949609   5.307   7.156   4.108  0.5914  0.9217  2.5020
  246MOL   H12049610   5.391   7.012   4.040  0.9403  0.3970 -1.5443
  246MOL   H12149611   5.462   7.118   4.161  0.1082 -1.8743  0.0840
  246MOL   C12249612   5.618   7.097   3.781 -0.0173  0.9551 -0.1671
  246MOL   C12349613   5.527   6.981   3.725 -0.1232  0.3423 -0.4509
  246MOL   O12449614   5.539   6.972   3.587  0.9093 -0.0305 -0.0436
  246MOL   C12549615   5.424   7.016   3.508 -0.0633 -0.3243 -0.1530
  246MOL   H12649616   5.726   7.085   3.765  0.2975  0.8369  1.9540
  246MOL   H12749617   5.581   7.186   3.730  0.8591  0.7932 -1.1215
  246MOL   H12849618   5.424   7.013   3.734  0.0821  1.1081 -0.7794
  246MOL   H12949619   5.427   7.125   3.501  0.0829 -0.1683  1.8807
  246MOL   H13049620   5.429   6.983   3.405 -0.7012  1.2635 -0.7149
  246MOL   H13149621   5.328   6.981   3.546 -1.1448  1.5987 -1.0404
  246MOL   C13249622   5.556   6.840   3.779 -0.1075 -0.2057  0.0413
  246MOL   C13349623   5.464   6.720   3.722  0.2671 -0.4381  0.4970
  246MOL   O13449624   5.527   6.595   3.748  0.0883 -0.0349 -0.0768
  246MOL   C13549625   5.652   6.575   3.695 -0.7583 -0.5079  0.5437
  246MOL   H13649626   5.541   6.839   3.887 -0.0070 -1.3011  0.0595
  246MOL   H13749627   5.662   6.819   3.760 -0.0855  1.2724 -1.4820
  246MOL   H13849628   5.447   6.726   3.614  0.1332 -0.5678  0.5117
  246MOL   H13949629   5.667   6.654   3.623 -0.7909 -0.1283  0.9514
  246MOL   H14049630   5.738   6.573   3.762  1.5692  1.5033 -2.2698
  246MOL   H14149631   5.659   6.481   3.639  1.1638 -0.6214  0.9283
  246MOL   C14249632   5.319   6.729   3.783 -0.5016 -0.8133  0.2806
  246MOL   C14349633   5.223   6.613   3.751 -0.0880 -0.0571 -0.0169
  246MOL   O14449634   5.109   6.622   3.833  0.1014 -0.1372  0.3910
  246MOL   C14549635   5.122   6.536   3.951  0.5181  0.0330  0.3589
  246MOL   H14649636   5.281   6.824   3.746 -2.4520 -2.3360 -1.7192
  246MOL   H14749637   5.335   6.732   3.890 -2.4668  1.2227  0.5401
  246MOL   H14849638   5.273   6.516   3.753  1.7572  0.8979  0.6036
  246MOL   H14949639   5.061   6.565   4.036 -1.6644 -2.8102 -0.1430
  246MOL   H15049640   5.106   6.431   3.925 -0.3179  0.1947  0.2175
  246MOL   H15149641   5.223   6.544   3.992  1.1523  0.0030 -1.1329
  246MOL   C15249642   5.173   6.628   3.609  0.2414 -1.2646  0.2945
  246MOL   C15349643   5.118   6.508   3.529  0.1008  0.1137  0.2869
  246MOL   O15449644   5.220   6.408   3.532 -0.0081 -0.2350  0.0728
  246MOL   C15549645   5.325   6.420   3.433  0.0553 -0.4039 -0.4212
  246MOL   H15649646   5.256   6.665   3.548 -0.0470 -0.4463  0.3951
  246MOL   H15749647   5.105   6.713   3.601  1.2972 -0.3509  0.7219
  246MOL   H15849648   5.103   6.537   3.425 -4.8910  0.5226  1.0100
  246MOL   H15949649   5.271   6.420   3.338 -0.1037  0.4376 -0.3347
  246MOL   H16049650   5.365   6.522   3.430  2.0213 -1.1223  0.4364
  246MOL   H16149651   5.393   6.336   3.445 -0.2803 -1.1137 -3.0969
  246MOL   C16249652   4.994   6.441   3.591  0.2509 -0.3512  0.0115
  246MOL   C16349653   4.866   6.524   3.584  0.4592 -0.1006  0.3407
  246MOL   O16449654   4.837   6.553   3.451  0.3447 -0.3623 -0.1167
  246MOL   C16549655   4.776   6.677   3.430  0.3528 -0.1353  0.4763
  246MOL   H16649656   5.022   6.411   3.692 -1.7522  0.5357  0.8637
  246MOL   H16749657   4.973   6.350   3.535  0.4958  0.0425 -0.7223
  246MOL   H16849658   4.872   6.608   3.654 -1.9920  0.5494 -0.1969
  246MOL   H16949659   4.833   6.760   3.472  0.4306  0.0015  0.0970
  246MOL   H17049660   4.765   6.685   3.322 -0.1721  0.1661  0.5487
  246MOL   H17149661   4.675   6.678   3.472 -1.0510  3.0773 -2.7405
  246MOL   C17249662   4.747   6.442   3.624  0.1668 -0.2712  0.6660
  246MOL   C17349663   4.724   6.418   3.768  0.3811  0.3748 -0.3973
  246MOL   O17449664   4.647   6.531   3.816 -0.3070  0.2782 -0.0108
  246MOL   C17549665   4.705   6.604   3.920  0.3401 -0.3448 -0.0253
  246MOL   H17649666   4.762   6.346   3.574 -1.4063 -0.2019  0.0234
  246MOL   H17749667   4.651   6.478   3.588  0.3540  0.4669  0.9050
  246MOL   H17849668   4.819   6.420   3.822 -0.1328  0.4763  0.5260
  246MOL   H17949669   4.739   6.542   4.004 -0.8740  1.7593  2.0814
  246MOL   H18049670   4.799   6.645   3.885  0.2725  0.1030  0.3090
  246MOL   H18149671   4.644   6.685   3.959  2.1938  0.7789  0.6170
  246MOL   C18249672   4.642   6.294   3.793 -0.2400  0.2725  0.5563
  246MOL   C18349673   4.720   6.162   3.790 -0.2565 -0.4037 -0.1320
  246MOL   O18449674   4.813   6.159   3.905  0.4509 -0.0279  0.3678
  246MOL   C18549675   4.914   6.062   3.897  0.3402 -0.1094 -0.0517
  246MOL   H18649676   4.549   6.284   3.738 -1.2876 -0.5776  2.4579
  246MOL   H18749677   4.599   6.308   3.892  1.0527  0.3548  1.1217
  246MOL   H18849678   4.780   6.145   3.701  1.2825 -2.7634  1.3089
  246MOL   H18949679   4.865   5.965   3.910  0.1082  0.0637  0.3936
  246MOL   H19049680   4.962   6.069   3.799 -0.6766 -1.2332 -0.6610
  246MOL   H19149681   4.990   6.070   3.974  0.9567 -2.0905 -0.4265
  246MOL   C19249682   4.630   6.034   3.799  0.3918 -0.1380  0.2280
  246MOL   C19349683   4.521   6.014   3.694 -1.0385 -0.6669  0.6368
  246MOL   O19449684   4.425   5.916   3.732 -0.3681 -0.2968 -0.3655
  246MOL   C19549685   4.454   5.777   3.721  0.5097 -0.4970 -0.3893
  246MOL   H19649686   4.577   6.035   3.894 -0.5511  0.5326 -0.2968
  246MOL   H19749687   4.694   5.946   3.794  1.0052  0.4218 -2.7204
  246MOL   H19849688   4.571   5.980   3.603 -1.0702  0.5632  0.1491
  246MOL   H19949689   4.373   5.718   3.765  0.1300 -1.1827 -1.9539
  246MOL   H20049690   4.470   5.759   3.614  1.9423 -0.5278 -0.1791
  246MOL   H20149691   4.553   5.755   3.759  2.1985  3.8628 -1.9967
  246MOL   H20249692   4.474   6.108   3.665  2.4143  0.8189 -0.3484
  247MOL     C149693   7.056   2.992   2.661 -0.2681  0.2306 -0.1643
  247MOL     C249694   6.917   3.046   2.695 -0.7488  0.4615 -0.3426
  247MOL     O349695   6.846   2.948   2.774  0.5623 -0.4554  0.0001
  247MOL     C449696   6.758   2.875   2.684 -0.3946 -0.5720 -0.4535
  247MOL     H549697   7.037   2.909   2.593 -1.2081  0.2988  0.0222
  247MOL     H649698   7.121   3.062   2.607 -0.8706 -0.0101 -1.2205
  247MOL     H749699   6.870   3.078   2.602  0.3823  0.5679 -0.8977
  247MOL     H849700   6.673   2.937   2.655  1.7919  3.0997  0.5767
  247MOL     H949701   6.823   2.840   2.604 -1.2391  1.4917 -2.0845
  247MOL    H1049702   6.729   2.790   2.745  0.1016  0.0024  0.6050
  247MOL    H1149703   7.109   2.938   2.740  0.5076  2.0190  0.5637
  247MOL    C1249704   6.942   3.174   2.779 -0.0749  0.0993 -0.1565
  247MOL    C1349705   6.813   3.225   2.855 -0.0858  0.9076  1.3586
  247MOL    O1449706   6.851   3.269   2.985  0.1409 -0.2021  0.1000
  247MOL    C1549707   6.857   3.170   3.090  0.0740  0.3747 -0.3344
  247MOL    H1649708   6.990   3.245   2.712  1.9437 -2.5103 -1.5634
  247MOL    H1749709   7.019   3.154   2.854 -1.2814  0.8593  1.3151
  247MOL    H1849710   6.737   3.146   2.857 -0.3777  1.2024  2.8827
  247MOL    H1949711   6.916   3.195   3.178  0.7878  2.1026 -1.2864
  247MOL    H2049712   6.765   3.116   3.110  0.2719  0.1771  0.0417
  247MOL    H2149713   6.921   3.087   3.060 -1.0322 -1.4566  2.1780
  247MOL    C2249714   6.750   3.344   2.776  0.2266  0.9610  0.1166
  247MOL    C2349715   6.608   3.393   2.817 -0.3546  1.1526  0.7308
  247MOL    O2449716   6.579   3.513   2.738 -0.1427  0.4533 -0.7913
  247MOL    C2549717   6.629   3.645   2.782  0.3583  0.0060  0.2871
  247MOL    H2649718   6.743   3.317   2.671  0.4712 -1.0737  0.5970
  247MOL    H2749719   6.827   3.421   2.782 -0.5117  1.6779  0.4670
  247MOL    H2849720   6.612   3.417   2.923 -1.8936  0.8739  0.8627
  247MOL    H2949721   6.736   3.636   2.796  0.6038  1.8441 -0.2230
  247MOL    H3049722   6.606   3.717   2.703  1.9368 -1.2943 -1.3987
  247MOL    H3149723   6.592   3.687   2.875 -0.6244  2.5814 -1.1815
  247MOL    C3249724   6.488   3.284   2.815  0.8583  0.0742  0.0312
  247MOL    C3349725   6.428   3.249   2.676 -0.0252  0.0908 -0.7009
  247MOL    O3449726   6.514   3.154   2.615 -0.1969  0.0291 -0.1656
  247MOL    C3549727   6.551   3.180   2.483  0.1918 -0.4252  0.0673
  247MOL    H3649728   6.407   3.341   2.860 -0.6299 -2.5716  0.7969
  247MOL    H3749729   6.503   3.190   2.869  2.4861 -1.5777 -3.1358
  247MOL    H3849730   6.415   3.329   2.603 -0.7375  0.9280  0.3236
  247MOL    H3949731   6.598   3.277   2.467 -2.9954  1.3335  0.9232
  247MOL    H4049732   6.628   3.106   2.462 -0.4453 -2.0658  3.2659
  247MOL    H4149733   6.461   3.152   2.429 -0.4896  0.0136  0.9590
  247MOL    C4249734   6.291   3.176   2.671  0.2447  0.3963 -0.4512
  247MOL    C4349735   6.166   3.243   2.734  0.2981  0.2148 -0.1935
  247MOL    O4449736   6.128   3.352   2.651 -0.4332  0.1378  0.4375
  247MOL    C4549737   6.167   3.474   2.705  0.2952 -0.4372 -0.1716
  247MOL    H4649738   6.311   3.085   2.729  1.4421  0.9824  0.0677
  247MOL    H4749739   6.264   3.141   2.571  2.1402  1.2186 -1.2690
  247MOL    H4849740   6.200   3.281   2.830 -2.0242  0.0452  0.7148
  247MOL    H4949741   6.155   3.551   2.628 -1.1355  0.7137  1.1805
  247MOL    H5049742   6.100   3.514   2.781 -0.0688 -0.7462 -0.3247
  247MOL    H5149743   6.267   3.486   2.746  0.1131 -1.5962  0.6352
  247MOL    C5249744   6.040   3.159   2.756 -0.2917  0.5165 -0.1060
  247MOL    C5349745   5.903   3.225   2.786 -0.7993  0.1314  0.3884
  247MOL    O5449746   5.802   3.128   2.787 -0.5609 -0.0836 -0.2204
  247MOL    C5549747   5.709   3.128   2.683  0.4688 -0.0242 -0.1137
  247MOL    H5649748   6.070   3.076   2.820 -0.7740 -0.2412 -0.8498
  247MOL    H5749749   6.037   3.109   2.659  0.1804 -1.1670  0.7102
  247MOL    H5849750   5.889   3.305   2.713  2.0981  0.2775 -0.1009
  247MOL    H5949751   5.618   3.073   2.710  1.0740 -2.1438 -2.1696
  247MOL    H6049752   5.681   3.227   2.648  1.8939  0.8056  1.0403
  247MOL    H6149753   5.747   3.074   2.595  0.4905  0.1631 -0.2192
  247MOL    C6249754   5.886   3.289   2.927 -0.1860  0.0814 -0.5157
  247MOL    C6349755   5.916   3.212   3.059 -0.3400  0.3676  0.0415
  247MOL    O6449756   5.924   3.302   3.167 -0.4865 -0.1718  0.4621
  247MOL    C6549757   6.056   3.342   3.198 -0.0900  0.2036 -0.2375
  247MOL    H6649758   5.788   3.336   2.935 -0.4494 -0.4335 -0.6543
  247MOL    H6749759   5.952   3.375   2.931  1.5340 -1.2120 -0.2654
  247MOL    H6849760   6.018   3.177   3.046 -0.3809  0.1696  0.2558
  247MOL    H6949761   6.095   3.388   3.107 -2.1311  1.3813 -0.5421
  247MOL    H7049762   6.058   3.423   3.271 -1.5289 -0.9205  1.0822
  247MOL    H7149763   6.121   3.258   3.221 -1.6366 -1.9893 -3.4280
  247MOL    C7249764   5.806   3.109   3.102 -0.3829 -0.6611 -0.3444
  247MOL    C7349765   5.826   3.027   3.228  0.2625  0.2251 -0.1318
  247MOL    O7449766   5.700   2.949   3.253 -0.1613 -0.3541 -0.1906
  247MOL    C7549767   5.618   3.022   3.344  0.7013  0.0850  0.7818
  247MOL    H7649768   5.777   3.047   3.017 -0.4431 -1.2562  0.1091
  247MOL    H7749769   5.714   3.167   3.111 -0.4817 -0.8227 -0.3109
  247MOL    H7849770   5.836   3.091   3.316 -2.4540  1.3338 -0.5803
  247MOL    H7949771   5.648   3.000   3.447 -0.2450 -0.7388  0.8886
  247MOL    H8049772   5.629   3.130   3.336  1.9334  0.0572  1.9354
  247MOL    H8149773   5.510   3.013   3.338  0.6969  0.8646 -0.5118
  247MOL    C8249774   5.947   2.930   3.208  0.0074  0.2835  0.0111
  247MOL    C8349775   5.980   2.835   3.323  0.1756 -0.0809  0.6170
  247MOL    O8449776   6.105   2.766   3.297 -0.3628 -0.2455  0.2015
  247MOL    C8549777   6.088   2.647   3.221  0.4692  0.0685 -0.1120
  247MOL    H8649778   6.041   2.983   3.199  0.8099 -0.6896  2.2961
  247MOL    H8749779   5.936   2.874   3.115  1.0374  0.3886 -0.1768
  247MOL    H8849780   5.900   2.763   3.339 -1.6087  1.2780 -1.9651
  247MOL    H8949781   6.035   2.571   3.278 -2.7648  1.7483 -0.7703
  247MOL    H9049782   6.046   2.663   3.122  1.3697 -0.3534 -0.5699
  247MOL    H9149783   6.188   2.609   3.198  0.0362  0.3348 -2.6100
  247MOL    C9249784   5.988   2.904   3.454 -0.5439  0.0357  0.8521
  247MOL    C9349785   5.998   2.814   3.577 -0.3593  0.6787  0.4467
  247MOL    O9449786   6.050   2.905   3.673 -0.0381  0.2265  0.6046
  247MOL    C9549787   6.187   2.918   3.680 -0.3498 -0.0481 -0.6893
  247MOL    H9649788   5.900   2.964   3.479 -1.2136 -1.7968  3.1521
  247MOL    H9749789   6.068   2.977   3.450  0.8697 -1.4645  1.4588
  247MOL    H9849790   6.074   2.737   3.566 -1.2268 -0.2132  0.5410
  247MOL    H9949791   6.244   2.925   3.586  0.3778  0.1483 -0.2391
  247MOL   H10049792   6.205   3.003   3.745 -1.6770 -1.7590  1.9772
  247MOL   H10149793   6.227   2.832   3.735 -2.1393 -1.4279 -1.4649
  247MOL   C10249794   5.853   2.749   3.623 -0.3188 -0.4948 -0.7429
  247MOL   C10349795   5.862   2.617   3.708 -0.3204  0.1562  0.3854
  247MOL   O10449796   5.912   2.499   3.639 -0.3433 -0.2948 -0.6551
  247MOL   C10549797   5.831   2.452   3.533 -0.0011  0.4799  0.1352
  247MOL   H10649798   5.798   2.720   3.534  3.1071 -3.7913 -1.9518
  247MOL   H10749799   5.792   2.829   3.664  0.6379  0.0184 -0.3060
  247MOL   H10849800   5.764   2.594   3.749 -0.8682  0.4817 -0.7214
  247MOL   H10949801   5.733   2.422   3.570  0.9354 -1.5219  1.0954
  247MOL   H11049802   5.811   2.514   3.447  0.7545 -0.5044 -0.7659
  247MOL   H11149803   5.874   2.358   3.500  0.9816  1.2354 -0.7416
  247MOL   C11249804   5.960   2.645   3.829 -0.5173 -0.3351  0.5239
  247MOL   C11349805   5.991   2.537   3.935 -0.1789 -0.5799  0.3334
  247MOL   O11449806   5.876   2.463   3.969 -0.3713 -0.0120  0.3149
  247MOL   C11549807   5.780   2.542   4.040  0.2281  0.4337  0.2835
  247MOL   H11649808   5.909   2.727   3.879 -0.3044  0.1676 -0.0836
  247MOL   H11749809   6.053   2.696   3.808 -0.5346  0.7436  2.9125
  247MOL   H11849810   6.019   2.592   4.024  1.2560  1.9944 -1.6515
  247MOL   H11949811   5.816   2.569   4.139  0.6711 -0.1081  0.2721
  247MOL   H12049812   5.740   2.627   3.984 -0.2279 -0.0610 -0.1463
  247MOL   H12149813   5.688   2.486   4.057  0.1259  0.1355 -1.1756
  247MOL   C12249814   6.102   2.429   3.901  0.5518  0.5637  0.0771
  247MOL   C12349815   6.238   2.481   3.869 -0.1135  0.0837  0.1862
  247MOL   O12449816   6.287   2.532   3.996 -0.1192  0.2424 -0.3079
  247MOL   C12549817   6.385   2.633   3.985  0.6452  0.5199  0.1027
  247MOL   H12649818   6.069   2.379   3.811  1.2045 -1.1166  0.7615
  247MOL   H12749819   6.104   2.360   3.985 -1.6115  1.0570  0.5851
  247MOL   H12849820   6.226   2.568   3.805  1.2844 -0.6579 -1.1024
  247MOL   H12949821   6.353   2.725   3.938  2.5529  2.1728  1.9480
  247MOL   H13049822   6.402   2.670   4.086 -0.5070 -2.6664  1.5397
  247MOL   H13149823   6.482   2.600   3.947  0.4560 -1.4034  1.2046
  247MOL   C13249824   6.331   2.363   3.825  0.3054  0.2724  0.4695
  247MOL   C13349825   6.308   2.304   3.680 -0.0927 -0.2773 -0.0003
  247MOL   O13449826   6.343   2.402   3.576 -0.8479 -0.1446 -0.0601
  247MOL   C13549827   6.251   2.498   3.530  0.2504  0.0456  0.1897
  247MOL   H13649828   6.335   2.287   3.903  0.5937  1.4972  1.6599
  247MOL   H13749829   6.431   2.405   3.837  0.9857 -1.4164  0.9145
  247MOL   H13849830   6.206   2.266   3.672 -0.3996  0.7313 -1.0706
  247MOL   H13949831   6.276   2.531   3.429 -0.8496 -1.2311 -0.5176
  247MOL   H14049832   6.157   2.444   3.539  0.4129 -0.7468 -2.3880
  247MOL   H14149833   6.255   2.588   3.591 -1.9612 -0.2614  0.8113
  247MOL   C14249834   6.384   2.181   3.670  0.5735 -0.2954 -0.2967
  247MOL   C14349835   6.349   2.086   3.555 -0.7448 -0.3683 -0.3137
  247MOL   O14449836   6.213   2.049   3.575 -0.5933  0.0795  0.6062
  247MOL   C14549837   6.164   1.926   3.521 -0.2193 -0.5945  0.4049
  247MOL   H14649838   6.361   2.113   3.752  3.7460 -1.9951 -0.7362
  247MOL   H14749839   6.492   2.197   3.676  0.7404 -1.2612 -0.7897
  247MOL   H14849840   6.414   2.000   3.570 -0.3819  0.0653  0.6657
  247MOL   H14949841   6.067   1.892   3.557 -1.1403  0.3334 -1.1569
  247MOL   H15049842   6.144   1.933   3.414 -0.4121 -1.2261  0.3944
  247MOL   H15149843   6.241   1.850   3.536  1.3057  0.9219  0.3677
  247MOL   C15249844   6.358   2.145   3.412  0.1776  0.5356  1.4589
  247MOL   C15349845   6.491   2.206   3.365 -0.3037 -0.0165 -0.6778
  247MOL   O15449846   6.573   2.091   3.342  0.2674 -0.4400 -0.0305
  247MOL   C15549847   6.669   2.064   3.442 -0.3627 -0.1101 -0.0361
  247MOL   H15649848   6.272   2.211   3.400 -1.3427 -1.6688 -0.1240
  247MOL   H15749849   6.331   2.064   3.344  0.9523 -0.6279  2.5105
  247MOL   H15849850   6.516   2.281   3.440 -1.8510 -0.1613 -0.0048
  247MOL   H15949851   6.763   2.114   3.421 -0.8564  0.8639  0.0183
  247MOL   H16049852   6.625   2.090   3.538 -1.5560  2.2411 -1.1516
  247MOL   H16149853   6.703   1.961   3.446  1.1290  0.2536 -2.2975
  247MOL   C16249854   6.470   2.281   3.232 -0.0602  0.7386 -0.1680
  247MOL   C16349855   6.596   2.340   3.165 -0.7291  0.3950  0.2104
  247MOL   O16449856   6.663   2.446   3.243 -0.1123  0.2942 -0.1846
  247MOL   C16549857   6.583   2.556   3.271 -0.8266 -0.8521 -0.0729
  247MOL   H16649858   6.390   2.355   3.235 -1.9788 -1.3713  3.5148
  247MOL   H16749859   6.426   2.211   3.162 -1.3059  0.6134  0.7281
  247MOL   H16849860   6.582   2.397   3.073  1.4569 -0.4492 -0.6922
  247MOL   H16949861   6.516   2.536   3.355  0.3435  0.8351  1.2948
  247MOL   H17049862   6.646   2.645   3.276  0.3845 -1.7561  1.4369
  247MOL   H17149863   6.528   2.589   3.183 -1.1125 -2.8319 -0.6556
  247MOL   C17249864   6.697   2.239   3.127  0.5514 -0.2700 -0.0362
  247MOL   C17349865   6.778   2.289   3.003 -0.2898  0.3564 -0.3258
  247MOL   O17449866   6.697   2.303   2.882  0.0123 -0.5845  0.0204
  247MOL   C17549867   6.605   2.197   2.849 -0.6169 -0.0630 -0.0938
  247MOL   H17649868   6.646   2.146   3.106 -1.6860  0.9983 -0.4090
  247MOL   H17749869   6.759   2.213   3.213 -1.0484 -2.1464  0.5970
  247MOL   H17849870   6.844   2.205   2.982  0.9757  1.4667 -0.8350
  247MOL   H17949871   6.531   2.172   2.925 -1.7623  1.2902 -0.7411
  247MOL   H18049872   6.545   2.230   2.764 -3.3567  0.3616  1.9417
  247MOL   H18149873   6.667   2.109   2.832  0.2038  0.3976  0.4606
  247MOL   C18249874   6.871   2.405   3.049 -0.0406  0.3602  0.7596
  247MOL   C18349875   6.975   2.450   2.943 -0.0897  0.3765  0.1610
  247MOL   O18449876   7.039   2.575   2.972  0.2881  0.0237 -0.6028
  247MOL   C18549877   6.964   2.686   2.927 -0.1559  0.2324  0.3204
  247MOL   H18649878   6.920   2.361   3.136  0.9530 -1.6528 -0.7522
  247MOL   H18749879   6.818   2.496   3.075  2.8795  1.9655  1.3255
  247MOL   H18849880   6.932   2.436   2.844  0.8993  0.9697 -0.3461
  247MOL   H18949881   6.965   2.691   2.818  0.1158  0.0004  0.3091
  247MOL   H19049882   6.857   2.676   2.946  0.0820  0.6002  1.9232
  247MOL   H19149883   7.009   2.775   2.971 -0.4204 -0.3463  1.7986
  247MOL   C19249884   7.091   2.350   2.939 -0.2629 -0.2889 -0.1691
  247MOL   C19349885   7.208   2.379   2.848  0.0702  0.1377 -0.3857
  247MOL   O19449886   7.283   2.259   2.824  0.3608  0.3480  0.3558
  247MOL   C19549887   7.389   2.270   2.744 -0.7250 -0.0408  0.3560
  247MOL   H19649888   7.040   2.260   2.906  1.6135 -1.0418 -1.0685
  247MOL   H19749889   7.122   2.335   3.042 -2.7011  0.2471  0.6977
  247MOL   H19849890   7.269   2.460   2.889  3.6178 -2.1623 -0.9026
  247MOL   H19949891   7.455   2.184   2.738 -1.2515 -0.4044 -0.2731
  247MOL   H20049892   7.374   2.313   2.645 -1.1473  1.9112  1.2453
  247MOL   H20149893   7.456   2.343   2.790  0.5813 -0.5440 -0.7225
  247MOL   H20249894   7.178   2.414   2.748  0.6728  0.5998 -0.4102
   7.81058   7.81058   7.81058
