Control file title. For DL_FIELD 4.10
49796
    1MOL     C1    1   5.875   0.805   6.500  0.7777  0.2834 -0.1053
    1MOL     C2    2   5.892   0.749   6.641  0.5505  0.1098 -0.3995
    1MOL     C3    3   5.754   0.691   6.682  0.1319 -0.4529 -0.4238
    1MOL     C4    4   5.710   0.553   6.623 -0.2228  0.1904 -0.6256
    1MOL     C5    5   5.592   0.480   6.691 -0.1933  0.4026 -0.1604
    1MOL     C6    6   5.545   0.341   6.632  0.5458 -0.3063 -0.0865
    1MOL     C7    7   5.447   0.270   6.732 -0.9235 -0.2615  0.4808
    1MOL     H8    8   5.788   0.871   6.497  1.0450  0.6282 -0.3589
    1MOL     H9    9   5.855   0.730   6.423  3.0731  0.6496 -1.1122
    1MOL    H10   10   5.969   0.673   6.634  0.3010  0.0267 -2.6282
    1MOL    H11   11   5.749   0.663   6.788 -1.0232 -1.5730 -0.7621
    1MOL    H12   12   5.678   0.762   6.652  1.0126  0.0649 -1.4522
    1MOL    H13   13   5.678   0.568   6.520 -2.5789  2.5477  0.4004
    1MOL    H14   14   5.795   0.485   6.634 -0.7456 -0.1058  2.0826
    1MOL    H15   15   5.505   0.543   6.704 -1.6260 -1.3142 -1.2063
    1MOL    H16   16   5.634   0.473   6.792 -1.2567 -2.3909  0.1265
    1MOL    H17   17   5.625   0.276   6.596 -0.8452 -1.6968 -0.7189
    1MOL    H18   18   5.486   0.363   6.542  1.3340 -0.7477 -0.7181
    1MOL    H19   19   5.408   0.179   6.685  0.1448 -1.4423  1.8368
    1MOL    H20   20   5.373   0.340   6.772  1.8251  3.0474 -0.0099
    1MOL    H21   21   5.499   0.234   6.821  1.6831 -0.2133 -0.9854
    1MOL    H22   22   5.962   0.857   6.460  3.1738 -3.1713  0.4061
    1MOL    C23   23   5.950   0.864   6.735  0.6071  0.1492  0.1710
    1MOL    C24   24   5.934   0.837   6.887 -0.0903 -0.9988  0.8922
    1MOL    C25   25   5.974   0.967   6.961 -0.0597  0.1092 -0.0791
    1MOL    C26   26   6.117   1.009   6.940 -0.2736 -0.4924  0.1011
    1MOL    C27   27   6.174   1.085   7.064  0.3806  0.0295  0.1545
    1MOL    C28   28   6.313   1.144   7.046 -0.3234  0.3736 -0.4530
    1MOL    C29   29   6.382   1.200   7.168  0.2525 -0.4689 -0.1287
    1MOL    H30   30   6.052   0.882   6.703  0.4433 -1.4113 -1.3309
    1MOL    H31   31   5.893   0.952   6.703  0.6814 -0.3720 -1.4792
    1MOL    H32   32   5.828   0.825   6.911 -0.5323  0.7548 -0.0743
    1MOL    H33   33   5.943   0.962   7.066 -1.5785  0.3644 -0.5069
    1MOL    H34   34   5.898   1.041   6.934  0.5394  0.8225  0.1857
    1MOL    H35   35   6.121   1.069   6.850 -2.6991  2.1069  1.6539
    1MOL    H36   36   6.185   0.924   6.931 -2.4998 -2.5104  1.5172
    1MOL    H37   37   6.178   1.015   7.147  0.4766  0.5897  0.6216
    1MOL    H38   38   6.112   1.172   7.084  0.8153  0.8406 -1.8912
    1MOL    H39   39   6.306   1.221   6.970 -0.6968  1.2597  0.4608
    1MOL    H40   40   6.379   1.067   7.008 -0.5598 -0.1263  0.1496
    1MOL    H41   41   6.325   1.287   7.202 -0.0453 -0.6432 -0.1820
    1MOL    H42   42   6.391   1.121   7.243 -0.9908  0.3010  0.8489
    1MOL    H43   43   6.483   1.235   7.148 -0.2850 -0.5947 -3.2441
    1MOL    C44   44   6.011   0.707   6.936  0.0351  0.0446  0.2214
    1MOL    C45   45   6.034   0.699   7.084  0.3903 -0.1187  0.0655
    1MOL    C46   46   5.891   0.691   7.149 -1.4275  0.9270 -0.0910
    1MOL    C47   47   5.890   0.722   7.300 -0.5837  0.1847  0.1595
    1MOL    C48   48   5.872   0.870   7.333  0.4090 -0.1386 -0.1913
    1MOL    C49   49   5.850   0.889   7.481 -0.5434 -0.2154 -0.1646
    1MOL    C50   50   5.705   0.870   7.514  0.0045  1.0504  0.2843
    1MOL    H51   51   6.104   0.698   6.880 -0.9554 -0.5562 -1.3785
    1MOL    H52   52   5.948   0.620   6.914  0.4204 -0.2841  0.4261
    1MOL    H53   53   6.077   0.790   7.124 -1.2756  0.8475 -0.2660
    1MOL    H54   54   5.852   0.592   7.126 -0.6745  0.7531 -0.6179
    1MOL    H55   55   5.817   0.761   7.110 -0.9154  1.4854 -0.0514
    1MOL    H56   56   5.810   0.661   7.343  0.1939  0.7425  2.4616
    1MOL    H57   57   5.978   0.686   7.353 -0.1438 -0.3326 -0.8966
    1MOL    H58   58   5.784   0.903   7.277  0.7856 -3.1124 -2.6356
    1MOL    H59   59   5.957   0.934   7.309  0.0006  0.2378 -0.6509
    1MOL    H60   60   5.883   0.989   7.508  1.2328 -0.5253 -1.1103
    1MOL    H61   61   5.903   0.810   7.535 -2.7394 -1.4467  0.2652
    1MOL    H62   62   5.664   0.774   7.482  0.8127  1.3510 -1.7288
    1MOL    H63   63   5.650   0.956   7.475 -0.2989  0.9985  0.5912
    1MOL    H64   64   5.684   0.872   7.621 -1.6568 -0.6647  0.0109
    1MOL    C65   65   6.116   0.577   7.130 -0.1464  0.5874  0.1966
    1MOL    C66   66   6.229   0.608   7.232 -0.3282 -0.8907 -0.9308
    1MOL    C67   67   6.336   0.693   7.165 -0.1051 -0.4310  0.2219
    1MOL    C68   68   6.430   0.605   7.068  0.4434 -0.0863 -0.4141
    1MOL    C69   69   6.477   0.673   6.939 -0.2246 -0.8599 -0.7602
    1MOL    C70   70   6.570   0.795   6.983 -0.8444  0.3136  0.1327
    1MOL    C71   71   6.662   0.839   6.868 -0.0234 -0.1571 -0.0799
    1MOL    H72   72   6.068   0.505   7.196  1.3565  1.8632  2.7727
    1MOL    H73   73   6.137   0.509   7.048 -1.8142 -1.4578  1.4138
    1MOL    H74   74   6.186   0.674   7.307  0.6656 -1.6737  0.3486
    1MOL    H75   75   6.287   0.776   7.115 -1.9548 -1.1660  0.7867
    1MOL    H76   76   6.400   0.735   7.243  0.1989 -0.3011 -0.0959
    1MOL    H77   77   6.519   0.579   7.124  0.0350 -3.1256 -1.1251
    1MOL    H78   78   6.391   0.505   7.048 -1.3408  0.4778  0.1295
    1MOL    H79   79   6.527   0.595   6.883 -1.5326 -0.6194 -2.2896
    1MOL    H80   80   6.387   0.698   6.883 -0.7013 -2.5569 -0.7898
    1MOL    H81   81   6.632   0.770   7.069  2.9577  3.1006 -1.6315
    1MOL    H82   82   6.509   0.876   7.024  1.1243  2.3017 -0.7125
    1MOL    H83   83   6.709   0.932   6.901 -1.6960  0.3587  0.8564
    1MOL    H84   84   6.718   0.759   6.819 -2.7447 -0.9574 -1.9834
    1MOL    H85   85   6.589   0.867   6.793  0.2089  0.2240 -0.1615
    1MOL    C86   86   6.282   0.483   7.307 -1.3209  0.5143  0.1828
    1MOL    C87   87   6.383   0.515   7.426 -0.0268 -0.2239  0.2825
    1MOL    C88   88   6.335   0.613   7.526 -0.7528 -0.1283 -0.1238
    1MOL    C89   89   6.192   0.581   7.587  0.7211  0.1591 -0.0012
    1MOL    C90   90   6.131   0.686   7.680  0.2304  0.3460  0.0850
    1MOL    C91   91   6.203   0.703   0.103  0.6512  0.3793 -1.1102
    1MOL    C92   92   6.234   0.558   0.163  0.4735 -0.2689 -0.2735
    1MOL    H93   93   6.206   0.415   7.346  0.0055 -0.1602  1.6494
    1MOL    H94   94   6.326   0.417   7.233 -0.6544  0.8276  0.3018
    1MOL    H95   95   6.469   0.560   7.377 -1.3912  1.8387 -0.2446
    1MOL    H96   96   6.400   0.632   7.611 -1.9717  1.7603  0.4224
    1MOL    H97   97   6.332   0.714   7.486  3.3352  1.1264  2.4649
    1MOL    H98   98   6.124   0.562   7.504 -0.6046  1.8208  0.6662
    1MOL    H99   99   6.201   0.479   7.625 -0.2926  0.3747  0.8541
    1MOL   H100  100   6.029   0.656   7.705  0.5555  1.9603  3.5759
    1MOL   H101  101   6.124   0.783   7.631  0.9573  0.3174 -0.0791
    1MOL   H102  102   6.289   0.767   0.084  1.8775 -0.5755  1.0803
    1MOL   H103  103   6.132   0.752   0.170  0.7485  0.5546 -1.1337
    1MOL   H104  104   6.314   0.510   0.106  0.9675  1.4599 -1.0674
    1MOL   H105  105   6.143   0.498   0.156  1.9552 -2.7438  1.0196
    1MOL   H106  106   6.267   0.554   0.266 -0.1993 -1.3801 -0.0928
    1MOL   C107  107   6.436   0.387   7.492  0.5234 -0.3711 -0.1109
    1MOL   C108  108   6.541   0.305   7.418  0.0174 -0.1322 -0.5299
    1MOL   C109  109   6.678   0.377   7.417  0.5069  0.1463 -0.0704
    1MOL   C110  110   6.782   0.329   7.314  0.8288  0.7748  0.9163
    1MOL   C111  111   6.781   0.421   7.189 -0.2407  0.2724  0.4447
    1MOL   C112  112   6.878   0.386   7.076 -0.3247  0.5909 -0.5106
    1MOL   C113  113   6.861   0.480   6.957 -0.1633  1.2615  0.3463
    1MOL   H114  114   6.345   0.337   7.525  0.0297  0.7896  0.2944
    1MOL   H115  115   6.487   0.400   7.587 -0.4555 -2.6263  0.7619
    1MOL   H116  116   6.509   0.309   7.314  1.3267 -1.6496 -1.0027
    1MOL   H117  117   6.724   0.366   7.515 -0.7520 -0.2516  0.4894
    1MOL   H118  118   6.665   0.484   7.401  0.1850  0.4326  2.0091
    1MOL   H119  119   6.881   0.335   7.360  1.1241  0.5616  0.3137
    1MOL   H120  120   6.778   0.231   7.266  0.1462  2.4246 -2.5386
    1MOL   H121  121   6.798   0.525   7.217  0.7470  0.8367 -2.0725
    1MOL   H122  122   6.689   0.404   7.133  0.8377 -2.7433 -0.5227
    1MOL   H123  123   6.982   0.388   7.108  0.2446  0.3619 -2.2751
    1MOL   H124  124   6.860   0.284   7.043  0.6262  0.8286 -1.7952
    1MOL   H125  125   6.925   0.444   6.876  0.9808 -2.2046  2.6323
    1MOL   H126  126   6.767   0.493   6.904  1.3029  3.7776 -1.7027
    1MOL   H127  127   6.896   0.582   6.973  0.1194  1.3413 -0.7613
    1MOL   C128  128   6.552   0.161   7.466 -0.3975  0.5159  0.3120
    1MOL   C129  129   6.421   0.081   7.477 -0.0392  0.4737  0.4169
    1MOL   C130  130   6.455   7.660   7.539 -0.5041  0.3135 -0.5357
    1MOL   C131  131   6.486   7.672   7.693  0.2073 -0.3161 -1.2691
    1MOL   C132  132   6.456   7.534   0.050 -0.0458  0.1059  0.0426
    1MOL   C133  133   6.306   7.505   0.090  0.2558  0.1306  0.6249
    1MOL   C134  134   6.277   7.362   0.118 -0.0635 -0.2538  0.5505
    1MOL   H135  135   6.623   0.125   7.391 -0.5001 -0.3328  0.6098
    1MOL   H136  136   6.607   0.151   7.560  0.8634 -0.4628 -0.5165
    1MOL   H137  137   6.362   0.118   7.560  0.0001 -1.6738  1.4370
    1MOL   H138  138   6.536   7.611   7.486  0.6096  2.5543 -0.9592
    1MOL   H139  139   6.368   7.595   7.530  0.0020 -0.8392  2.4090
    1MOL   H140  140   6.429   0.037   0.030 -0.7313 -2.4667  1.1482
    1MOL   H141  141   6.591   7.701   7.697  0.1558 -0.1248 -1.2943
    1MOL   H142  142   6.510   7.537   0.145  0.5598  1.4164 -0.3355
    1MOL   H143  143   6.502   7.459   7.699 -1.0436 -0.2712 -0.2314
    1MOL   H144  144   6.239   7.531   0.008 -0.0716 -1.7206  0.2860
    1MOL   H145  145   6.274   7.550   0.183  3.4695  3.3291  0.3176
    1MOL   H146  146   6.189   7.363   0.182 -0.9316  0.7401 -0.6352
    1MOL   H147  147   6.350   7.317   0.186 -1.1420 -0.8089  1.3739
    1MOL   H148  148   6.266   7.293   0.035 -0.7766  0.1352  0.3118
    1MOL   C149  149   6.340   0.072   7.343 -0.4088  0.5030 -0.1399
    1MOL   C150  150   6.190   0.035   7.372  0.6689 -0.2597  0.6930
    1MOL   C151  151   6.121   7.700   7.243 -0.6936  0.9874 -0.3404
    1MOL   C152  152   6.161   7.559   7.200 -0.1254 -0.3067 -0.6148
    1MOL   C153  153   6.089   7.515   7.076 -0.2143 -0.2131 -0.4301
    1MOL   C154  154   6.118   7.370   7.034 -0.3058  0.4043 -0.1971
    1MOL   C155  155   6.020   7.319   6.919 -0.6650  0.1607 -0.0805
    1MOL   H156  156   6.343   0.159   7.277 -1.0528 -0.3659 -1.3331
    1MOL   H157  157   6.386   0.000   7.275  2.2141  2.9354 -1.0139
    1MOL   H158  158   6.176   7.663   7.438 -1.4794  1.2190  2.2399
    1MOL   H159  159   6.013   7.700   7.259 -1.0583 -0.2677 -2.5826
    1MOL   H160  160   6.137   0.059   7.163 -0.8777  0.7786 -0.5679
    1MOL   H161  161   6.150   7.491   7.284  1.4900  0.7903  0.5085
    1MOL   H162  162   6.266   7.565   7.172 -0.3443 -0.2521 -1.4369
    1MOL   H163  163   6.109   7.590   7.000 -0.6878 -0.2587 -0.6057
    1MOL   H164  164   5.980   7.515   7.085 -0.3855  2.0966 -2.1086
    1MOL   H165  165   6.107   7.295   7.112  1.5944 -0.9187 -1.1682
    1MOL   H166  166   6.224   7.371   7.008  0.4373 -1.4930  2.5881
    1MOL   H167  167   5.931   7.266   6.953 -0.8582  0.1349 -0.6355
    1MOL   H168  168   6.063   7.233   6.868 -0.0031 -0.3104  1.2443
    1MOL   H169  169   6.003   7.393   6.841  2.2177  2.6107  1.4839
    1MOL   C170  170   6.111   0.156   7.424  0.6420 -0.4914  0.1034
    1MOL   C171  171   5.987   0.134   7.505  0.1730  0.3975 -0.3886
    1MOL   C172  172   6.026   0.099   7.654  0.3592 -0.4026  0.6522
    1MOL   C173  173   6.092   0.213   0.015  0.5313 -0.1656 -0.2150
    1MOL   C174  174   6.079   0.199   0.170  0.4219  1.0929  0.6153
    1MOL   C175  175   5.938   0.218   0.234 -0.3148  0.2375  0.1192
    1MOL   C176  176   5.901   0.365   0.253 -0.1330 -0.1759 -0.6887
    1MOL   H177  177   6.083   0.223   7.343 -0.1373  2.1739  2.4856
    1MOL   H178  178   6.172   0.214   7.493 -0.5664 -1.3803  1.9865
    1MOL   H179  179   5.941   0.041   7.472  0.7461 -0.1199  0.2502
    1MOL   H180  180   6.092   0.012   7.644 -1.9786 -1.9195 -2.3236
    1MOL   H181  181   5.939   0.074   0.000 -0.3065  0.7609  0.1767
    1MOL   H182  182   6.058   0.311   7.695 -1.3658 -1.0984 -1.0930
    1MOL   H183  183   6.196   0.206   7.696  0.1423 -1.2283 -1.2428
    1MOL   H184  184   6.150   0.267   0.217 -0.7838  1.4859  1.9137
    1MOL   H185  185   6.110   0.100   0.202 -1.6056  0.0502 -0.5323
    1MOL   H186  186   5.936   0.169   0.331  1.0696  0.3526  0.2107
    1MOL   H187  187   5.865   0.176   0.165  0.1316  1.4835 -1.1317
    1MOL   H188  188   5.883   0.420   0.161  0.5413 -1.2785 -1.4894
    1MOL   H189  189   5.985   0.409   0.307 -1.4929  1.9662 -0.2730
    1MOL   H190  190   5.813   0.383   0.316 -0.9382 -0.7282 -1.6373
    1MOL   C191  191   5.875   0.240   7.490 -0.1527  0.4655  0.8451
    1MOL   C192  192   5.736   0.225   7.555 -0.0367  0.2286  0.6771
    1MOL   C193  193   5.640   0.343   7.510 -0.2568 -0.0349 -0.4196
    1MOL   C194  194   5.659   0.479   7.575 -0.1931 -0.5935  0.4154
    1MOL   C195  195   5.622   0.484   0.011  0.3758  0.6295 -0.1401
    1MOL   C196  196   5.670   0.607   0.092 -0.3304  0.1183  0.0379
    1MOL   C197  197   5.603   0.615   0.231 -0.2209  0.3983  0.0822
    1MOL   H198  198   5.853   0.258   7.385  3.2123  1.0758  0.1886
    1MOL   H199  199   5.913   0.341   7.506  0.0368  0.5755 -0.2292
    1MOL   H200  200   5.752   0.246   7.661 -0.8128  3.0712  0.2930
    1MOL   H201  201   5.535   0.324   7.529  0.0314 -0.9265  0.3335
    1MOL   H202  202   5.646   0.345   7.401  0.2914 -0.5640 -0.4041
    1MOL   H203  203   5.599   0.555   7.525 -0.4038 -0.3881  0.9771
    1MOL   H204  204   5.765   0.508   7.576  0.0680 -1.5429  0.8779
    1MOL   H205  205   5.514   0.475   0.017  0.3247  0.6978 -0.8625
    1MOL   H206  206   5.669   0.401   0.063  0.5699  1.2718  0.7101
    1MOL   H207  207   5.649   0.704   0.048 -0.4490 -0.0352 -0.2500
    1MOL   H208  208   5.778   0.605   0.106  0.3350 -2.1515 -4.4814
    1MOL   H209  209   5.633   0.700   0.293 -0.3487  0.9743 -0.6389
    1MOL   H210  210   5.615   0.524   0.289  2.2960  0.7636  0.2180
    1MOL   H211  211   5.499   0.642   0.214 -0.3837  0.2995  0.9027
    1MOL   C212  212   5.670   0.082   7.528  0.1373 -0.2128  0.2405
    1MOL   C213  213   5.567   0.035   7.637 -0.0254 -0.0269 -0.1946
    1MOL   C214  214   5.646   0.014   0.058  0.4997  0.1948  0.6531
    1MOL   C215  215   5.567   7.638   0.156 -0.2082 -0.3743  0.2369
    1MOL   C216  216   5.572   7.492   0.109  0.2108  0.1361 -1.3593
    1MOL   C217  217   5.518   7.385   0.200  0.4029 -0.3320  0.5758
    1MOL   C218  218   5.383   7.325   0.154  0.2939  0.3107 -0.2498
    1MOL   H219  219   5.740   7.712   7.516 -0.6977 -0.8289 -0.3819
    1MOL   H220  220   5.613   0.103   7.437  0.1826 -1.7340 -0.1582
    1MOL   H221  221   5.535   7.648   7.609  0.9853 -0.6551  0.8706
    1MOL   H222  222   5.741   7.677   0.044  1.1362  0.8946  2.4336
    1MOL   H223  223   5.668   0.113   0.098  0.8880  1.3237 -2.2072
    1MOL   H224  224   5.469   7.682   0.175  0.2525  1.5005 -1.4476
    1MOL   H225  225   5.611   7.653   0.255 -0.2169 -1.0827  0.3476
    1MOL   H226  226   5.511   7.481   0.019 -2.3507 -1.2067  0.4736
    1MOL   H227  227   5.669   7.466   0.067  0.3302 -0.9315 -0.4450
    1MOL   H228  228   5.594   7.306   0.202 -1.0417 -1.7840 -0.4563
    1MOL   H229  229   5.500   7.424   0.300 -1.1800  0.0641  0.1458
    1MOL   H230  230   5.307   7.403   0.150  2.0644  2.0668  0.0056
    1MOL   H231  231   5.343   7.260   0.232  0.2656  0.7781  0.1257
    1MOL   H232  232   5.388   7.266   0.062 -0.7329  2.0929 -1.4718
    1MOL   C233  233   5.442   0.118   7.660  0.1884  0.0087 -0.3706
    1MOL   C234  234   5.353   0.144   7.534  0.2722 -0.7799  0.3438
    1MOL   C235  235   5.297   0.004   7.488 -0.2180  0.6983 -0.3932
    1MOL   C236  236   5.197   7.653   7.585  0.1714 -0.4915 -0.2263
    1MOL   C237  237   5.163   7.518   7.528 -0.0161 -0.1962  0.0364
    1MOL   C238  238   5.081   7.438   7.636 -0.5387 -0.3996  0.2181
    1MOL   C239  239   5.057   7.298   7.599  0.0110  0.1502 -0.4539
    1MOL   H240  240   5.481   0.210   7.704  2.6037 -0.5833 -1.1983
    1MOL   H241  241   5.384   0.079   0.030  0.0156  1.7969  0.3687
    1MOL   H242  242   5.410   0.180   7.448 -0.6257 -0.7473 -0.2360
    1MOL   H243  243   5.380   7.651   7.463 -0.3104  0.8648 -1.1515
    1MOL   H244  244   5.247   0.008   7.392 -0.8835 -0.2233 -0.0982
    1MOL   H245  245   5.107   0.000   7.591  0.1002 -0.5926 -0.2738
    1MOL   H246  246   5.240   7.643   7.685  0.4397  0.1932 -0.2669
    1MOL   H247  247   5.253   7.465   7.497  1.7520  2.2477  0.8097
    1MOL   H248  248   5.107   7.541   7.438 -0.3337  1.0390  0.5422
    1MOL   H249  249   5.122   7.450   0.023  0.3752  0.6856 -0.2713
    1MOL   H250  250   4.981   7.480   7.627 -0.9453 -1.3039  0.4780
    1MOL   H251  251   5.045   7.275   7.493 -0.1692 -1.4375 -0.0926
    1MOL   H252  252   5.143   7.241   7.634 -0.5327 -0.4349 -0.0829
    1MOL   H253  253   4.975   7.268   7.663  2.1487 -2.7860  1.0276
    1MOL   C254  254   5.254   0.260   7.560  0.0129 -0.4516  0.3326
    1MOL   C255  255   5.158   0.302   7.450 -0.4768  0.0721 -0.1115
    1MOL   C256  256   5.233   0.375   7.333  0.2612 -0.0685 -0.3991
    1MOL   C257  257   5.180   0.377   7.187  0.4000  0.2535 -0.0798
    1MOL   C258  258   5.175   0.240   7.118  0.5088 -0.2001 -0.7977
    1MOL   C259  259   5.316   0.181   7.093 -0.6554 -0.4469 -0.6535
    1MOL   C260  260   5.297   0.035   7.043  0.8679 -0.1275  0.2899
    1MOL   H261  261   5.298   0.353   7.596  1.1649 -0.5980 -0.6984
    1MOL   H262  262   5.189   0.231   7.643 -2.6869  1.2481 -1.1157
    1MOL   H263  263   5.115   0.215   7.400  0.0342  0.1848 -0.7646
    1MOL   H264  264   5.333   0.333   7.321  0.7371  0.7150  0.7577
    1MOL   H265  265   5.250   0.477   7.368 -0.2789  0.5723 -1.9836
    1MOL   H266  266   5.086   0.432   7.189 -0.4987 -1.2594  0.8689
    1MOL   H267  267   5.243   0.439   7.124  0.5705 -0.1194 -0.2788
    1MOL   H268  268   5.123   0.260   7.025  0.3300 -3.2164 -1.4083
    1MOL   H269  269   5.115   0.173   7.179 -0.2623  0.7179 -0.5322
    1MOL   H270  270   5.373   0.240   7.021 -1.2532 -2.1654 -2.5965
    1MOL   H271  271   5.379   0.180   7.182  0.4829 -1.3886 -1.4509
    1MOL   H272  272   5.236   7.686   7.109 -0.1029  0.1329 -0.3452
    1MOL   H273  273   5.244   0.049   6.949 -0.5996 -0.3862  1.0631
    1MOL   H274  274   5.394   7.703   7.021  1.4617  0.5583  1.4574
    1MOL   C275  275   5.042   0.378   7.501 -0.6215 -0.5334  0.1545
    1MOL   C276  276   4.922   0.289   7.542  0.1788  0.3473 -0.0536
    1MOL   C277  277   4.851   0.231   7.409 -0.3437 -0.4677  0.4139
    1MOL   C278  278   4.741   0.123   7.419 -0.5076  0.1643  0.4087
    1MOL   C279  279   4.784   7.689   7.450  1.7005  0.3716  0.5412
    1MOL   C280  280   4.688   7.585   7.390 -0.1951  0.6684 -0.2852
    1MOL   C281  281   4.546   7.596   7.448 -0.3247 -0.3391  0.6098
    1MOL   H282  282   5.000   0.444   7.425 -0.4799 -0.7384 -0.1064
    1MOL   H283  283   5.085   0.438   7.581 -0.1589 -0.2575 -0.2962
    1MOL   H284  284   4.965   0.198   7.585  0.4901  0.9736  0.9767
    1MOL   H285  285   4.797   0.316   7.368  2.4618  1.6646  1.0273
    1MOL   H286  286   4.922   0.215   7.328 -1.2912 -0.7084 -0.3788
    1MOL   H287  287   4.677   0.122   7.331  0.2586  0.4189 -0.1607
    1MOL   H288  288   4.665   0.174   7.478 -2.0304 -1.4663 -0.1122
    1MOL   H289  289   4.781   7.671   7.557  2.5208  2.2123  0.8794
    1MOL   H290  290   4.886   7.669   7.417  2.1247  0.7061  1.6447
    1MOL   H291  291   4.695   7.582   7.281  1.1984 -0.6343 -0.1746
    1MOL   H292  292   4.714   7.488   7.432 -2.5673  0.1251  0.0132
    1MOL   H293  293   4.496   7.690   7.424  2.2885  0.9413  0.0426
    1MOL   H294  294   4.549   7.590   7.557  1.1461  0.9075  0.6468
    1MOL   H295  295   4.473   7.523   7.412 -0.3944  0.7048 -1.4728
    1MOL   C296  296   4.820   0.349   7.643 -0.3553 -0.4296 -0.1560
    1MOL   C297  297   4.879   0.359   0.071  0.1587  1.0854 -0.2610
    1MOL   C298  298   4.915   0.220   0.133  0.0926  0.3725  0.3081
    1MOL   C299  299   4.811   0.110   0.111  0.5388 -0.1243  0.1035
    1MOL   C300  300   4.816   7.694   0.196  0.0752  0.3173  0.1800
    1MOL   C301  301   4.724   7.581   0.142  0.0059 -0.1069 -0.0994
    1MOL   C302  302   4.705   7.471   0.249 -0.0039 -1.1134  0.5249
    1MOL   H303  303   4.791   0.449   7.612 -0.3667 -0.0051  1.1801
    1MOL   H304  304   4.727   0.292   7.651  0.4862 -1.8499 -0.2410
    1MOL   H305  305   4.977   0.405   0.063  1.8655 -2.1334  1.4177
    1MOL   H306  306   5.012   0.191   0.094  0.5942  0.4534  1.4902
    1MOL   H307  307   4.946   0.227   0.237  2.2967  0.6454 -0.3386
    1MOL   H308  308   4.797   0.091   0.005  0.4647  0.9456 -0.0814
    1MOL   H309  309   4.716   0.156   0.136 -0.9606 -3.1196  0.0905
    1MOL   H310  310   4.777   0.002   0.296 -2.7493 -1.5269 -0.5004
    1MOL   H311  311   4.922   7.668   0.200  0.0941  0.3023 -0.3572
    1MOL   H312  312   4.629   7.621   0.106 -0.3724 -1.1079 -0.2327
    1MOL   H313  313   4.758   7.536   0.049 -0.6018  0.2144 -0.4751
    1MOL   H314  314   4.787   7.401   0.236 -1.0200 -2.3508  0.6902
    1MOL   H315  315   4.699   7.498   0.355 -2.5953 -0.8919  0.3654
    1MOL   H316  316   4.614   7.413   0.232 -0.4672 -0.9135  2.1720
    1MOL   C317  317   4.788   0.444   0.166  0.6129  0.0126 -0.8159
    1MOL   C318  318   4.855   0.514   0.287  0.4925 -0.0615 -0.1383
    1MOL   C319  319   4.942   0.641   0.249  0.5405  0.6435 -0.0313
    1MOL   C320  320   4.867   0.769   0.222  0.2910 -0.4776  0.0863
    1MOL   C321  321   4.945   0.886   0.154 -0.2232 -0.0489 -0.0597
    1MOL   C322  322   4.916   0.929   0.005  0.0932  0.5850 -0.2560
    1MOL   C323  323   4.775   0.976   7.697 -0.2353  0.1789  0.6307
    1MOL   H324  324   4.695   0.397   0.199  0.5855 -0.3145 -1.3474
    1MOL   H325  325   4.741   0.518   0.102 -0.7373  2.7503  3.1610
    1MOL   H326  326   4.926   0.444   0.331  0.0734  0.5019  1.4750
    1MOL   H327  327   5.006   0.611   0.165  2.0177  0.8247  1.0092
    1MOL   H328  328   5.009   0.662   0.332 -0.7913 -1.8537  1.7327
    1MOL   H329  329   4.812   0.812   0.305  0.1743 -0.7111  0.1307
    1MOL   H330  330   4.788   0.742   0.152 -0.6899  3.5296 -0.4781
    1MOL   H331  331   5.054   0.879   0.163 -0.3030  1.2739  2.3681
    1MOL   H332  332   4.934   0.975   0.216 -0.2640  1.3690 -2.0979
    1MOL   H333  333   4.934   0.837   7.663  2.2606  0.6272  0.3049
    1MOL   H334  334   4.984   1.009   7.691 -1.1481  1.6860 -0.1695
    1MOL   H335  335   4.697   0.901   0.001 -0.2840 -0.2812 -1.4449
    1MOL   H336  336   4.759   1.001   7.592  2.4320  0.9586  0.3805
    1MOL   H337  337   4.748   1.049   0.060 -1.7319 -0.7738  1.0310
    1MOL   C338  338   4.746   0.546   0.398 -0.4337 -0.1279 -0.0341
    1MOL   C339  339   4.698   0.428   0.484  0.6299 -0.2369  0.9754
    1MOL   C340  340   4.553   0.443   0.536  0.6698  0.0964  0.7201
    1MOL   C341  341   4.510   0.573   0.615  0.0447 -0.8197  0.4454
    1MOL   C342  342   4.373   0.572   0.682 -0.0280 -0.5326  0.6360
    1MOL   C343  343   4.252   0.528   0.598  0.0166 -0.8297  0.9546
    1MOL   C344  344   4.119   0.535   0.670 -0.1204 -0.6537  0.2164
    1MOL   H345  345   4.659   0.589   0.348  0.6072  3.7433  1.3623
    1MOL   H346  346   4.773   0.618   0.474 -1.5566 -1.7542  1.9613
    1MOL   H347  347   4.695   0.345   0.414  2.5420  1.9443 -1.8235
    1MOL   H348  348   4.490   0.432   0.448 -1.1225  0.8854  1.8721
    1MOL   H349  349   4.530   0.354   0.594 -1.1556 -1.1987 -1.8477
    1MOL   H350  350   4.519   0.659   0.548  0.0095  0.1883  1.7103
    1MOL   H351  351   4.587   0.586   0.691 -1.2921 -0.1472  1.7018
    1MOL   H352  352   4.377   0.510   0.772 -0.7469 -0.9918  0.3548
    1MOL   H353  353   4.362   0.677   0.711  0.2705 -0.2866 -0.1392
    1MOL   H354  354   4.250   0.586   0.505 -0.9031  1.2397  2.2303
    1MOL   H355  355   4.253   0.423   0.569 -1.6646 -0.4471 -0.6274
    1MOL   H356  356   4.104   0.639   0.700  0.4478 -0.0891 -1.4064
    1MOL   H357  357   4.091   0.468   0.750  0.1288  0.7863  1.5371
    1MOL   H358  358   4.043   0.520   0.593 -0.1242 -0.2809  0.1416
    1MOL   C359  359   4.790   0.393   0.606 -0.2826 -0.5461 -0.2151
    1MOL   C360  360   4.797   0.246   0.647 -0.0795  0.0597 -0.0625
    1MOL   C361  361   4.928   0.181   0.583  0.4285 -0.7898 -0.0512
    1MOL   C362  362   4.905   0.027   0.577 -0.6275 -0.3908  0.3151
    1MOL   C363  363   5.020   7.672   0.494 -0.1131  0.0242 -0.0222
    1MOL   C364  364   5.009   7.520   0.491 -0.3565  1.0520  0.0425
    1MOL   C365  365   5.142   7.446   0.441  0.1865  0.7322 -0.3036
    1MOL   H366  366   4.759   0.455   0.691 -0.6541  0.4804 -1.0812
    1MOL   H367  367   4.889   0.437   0.591 -0.6527 -0.1689 -1.5689
    1MOL   H368  368   4.716   0.207   0.586  2.4340  0.4430 -3.8840
    1MOL   H369  369   4.946   0.224   0.484  1.7720 -3.3545 -0.9708
    1MOL   H370  370   5.021   0.203   0.635  1.1135  0.0610 -1.5965
    1MOL   H371  371   4.901   7.711   0.681 -1.1601  0.2039  0.4721
    1MOL   H372  372   4.805   7.711   0.544 -0.2297 -2.1640  0.6541
    1MOL   H373  373   5.012   0.000   0.394 -2.7856 -1.8658 -0.6483
    1MOL   H374  374   5.116   7.695   0.542 -0.2298  0.9612 -0.2336
    1MOL   H375  375   4.987   7.474   0.588  0.0314 -3.3391 -1.8401
    1MOL   H376  376   4.925   7.491   0.430  1.5067 -1.5035 -1.3902
    1MOL   H377  377   5.139   7.346   0.484  0.5376  1.5007  1.5600
    1MOL   H378  378   5.130   7.427   0.334  4.3416  1.4455 -0.9862
    1MOL   H379  379   5.237   7.494   0.463  0.4494  0.5697 -1.0475
    1MOL   C380  380   4.794   0.212   0.799 -0.5551  0.1930 -0.7787
    1MOL   C381  381   4.652   0.205   0.856 -0.8759 -0.0069 -0.4427
    1MOL   C382  382   4.572   0.083   0.816  0.2171 -0.2269 -0.1948
    1MOL   C383  383   4.429   0.117   0.790  0.0730 -0.4275 -0.4611
    1MOL   C384  384   4.322   0.004   0.797 -0.3936 -0.1552  0.8100
    1MOL   C385  385   4.182   0.074   0.785 -0.6102  0.5183 -0.2656
    1MOL   C386  386   4.070   7.689   0.755 -0.3556 -0.2088  0.2841
    1MOL   H387  387   4.846   0.119   0.824 -1.0688 -0.2036 -1.1721
    1MOL   H388  388   4.848   0.287   0.856  0.8154 -1.2285 -0.1889
    1MOL   H389  389   4.605   0.292   0.810  2.9934  1.2455 -2.2577
    1MOL   H390  390   4.582   0.012   0.898  1.2690 -0.2785 -0.3660
    1MOL   H391  391   4.616   0.033   0.729  2.1345  0.5246  0.3401
    1MOL   H392  392   4.402   0.205   0.848 -2.1172 -0.2274 -1.7123
    1MOL   H393  393   4.419   0.150   0.687  2.5637  1.1849 -0.2058
    1MOL   H394  394   4.328   7.640   0.720  1.7630  0.0120  0.7790
    1MOL   H395  395   4.328   7.666   0.893 -1.0047 -0.2983  0.7752
    1MOL   H396  396   4.176   0.147   0.705 -0.7656 -0.1783 -0.8891
    1MOL   H397  397   4.157   0.132   0.875 -3.7880 -0.1214 -0.6638
    1MOL   H398  398   4.085   7.636   0.661 -0.9375 -0.8716  0.5580
    1MOL   H399  399   3.979   0.035   0.756  0.5973  1.2934  2.0943
    1MOL   H400  400   4.054   7.611   0.830 -2.3141  1.0175  1.1821
    1MOL   C401  401   4.649   0.232   1.006  0.1410 -1.2126 -0.8179
    1MOL   C402  402   4.733   0.137   1.096 -0.4020  0.6209 -0.6489
    1MOL   C403  403   4.707   0.167   1.248 -0.1533 -0.2247 -0.0548
    1MOL   C404  404   4.804   0.096   1.341  0.0521 -0.1827 -0.3188
    1MOL   C405  405   4.791   0.141   1.489  0.5009 -0.2617 -0.2692
    1MOL   C406  406   4.879   0.058   1.590  0.3844  0.0599 -0.5925
    1MOL   C407  407   5.034   0.090   1.587 -0.7482 -0.9484 -0.3887
    1MOL   H408  408   4.545   0.228   1.036  0.5983 -0.3437  0.9378
    1MOL   H409  409   4.677   0.336   1.025  0.2796 -1.4578  0.3868
    1MOL   H410  410   4.837   0.168   1.079  0.0050 -0.1047  0.4710
    1MOL   H411  411   4.608   0.134   1.279  0.1852 -0.2443  1.0184
    1MOL   H412  412   4.707   0.275   1.254  0.2267 -0.2176 -0.1636
    1MOL   H413  413   4.908   0.109   1.309 -0.2925 -1.1495 -1.9072
    1MOL   H414  414   4.793   7.701   1.338  0.7639 -0.2332 -1.8198
    1MOL   H415  415   4.805   0.248   1.505 -0.9837 -0.2495  1.0524
    1MOL   H416  416   4.688   0.130   1.522  0.2950  0.4932 -0.6606
    1MOL   H417  417   4.843   0.089   1.689 -3.2086 -1.7236 -1.2728
    1MOL   H418  418   4.866   7.664   1.596  1.9172 -0.0325  1.9957
    1MOL   H419  419   5.074   0.028   1.667 -0.7103  0.2594  0.5510
    1MOL   H420  420   5.052   0.193   1.617  1.9034 -1.6720  0.6028
    1MOL   H421  421   5.075   0.067   1.489  1.0870  1.5983 -0.2685
    1MOL   H422  422   4.715   0.031   1.081  0.5150  0.3825 -0.1361
    2MOL     C1  423   4.060   2.056   4.761  0.8215 -0.2202  0.0536
    2MOL     C2  424   3.973   2.115   4.876  0.1233 -0.6182  0.1963
    2MOL     C3  425   4.060   2.080   5.006  0.1659 -0.3997  0.2855
    2MOL     C4  426   4.135   2.206   5.059 -0.3510  0.4371  0.2582
    2MOL     C5  427   4.201   2.174   5.199 -0.3544  0.6389  0.2368
    2MOL     C6  428   4.269   2.298   5.246  0.2556  0.2876  0.1787
    2MOL     C7  429   4.357   2.265   5.363 -0.3527 -0.4613  0.5335
    2MOL     H8  430   4.024   1.954   4.744 -1.7901  0.3047  2.1115
    2MOL     H9  431   4.167   2.067   4.775  0.9312 -0.2450 -0.7130
    2MOL    H10  432   3.960   2.221   4.856 -0.4492 -1.1204 -2.4096
    2MOL    H11  433   4.004   2.041   5.091  0.2808  1.4272  1.2201
    2MOL    H12  434   4.132   2.002   4.982  1.2464  0.5238  0.4889
    2MOL    H13  435   4.210   2.243   4.989  0.4927 -0.7692  0.5148
    2MOL    H14  436   4.052   2.276   5.067 -0.0099  0.9298 -0.4585
    2MOL    H15  437   4.266   2.087   5.190 -0.5635  0.5509 -0.4449
    2MOL    H16  438   4.119   2.142   5.264 -0.2350 -1.0639 -0.4289
    2MOL    H17  439   4.196   2.369   5.284  2.2103  0.4082  3.9462
    2MOL    H18  440   4.324   2.343   5.163  0.5190 -0.3252  0.0135
    2MOL    H19  441   4.382   2.341   5.438 -0.6191 -0.2515  0.4114
    2MOL    H20  442   4.444   2.211   5.324  0.3008 -0.2843  1.7189
    2MOL    H21  443   4.304   2.192   5.424 -3.3702  0.6296 -0.6872
    2MOL    H22  444   4.032   2.111   4.670  3.1559  1.7001  0.4419
    2MOL    C23  445   3.829   2.057   4.870  0.4849  0.3671  0.1573
    2MOL    C24  446   3.719   2.148   4.919  0.4737  0.2100  0.3213
    2MOL    C25  447   3.714   2.280   4.838 -1.0525  0.3110 -0.0699
    2MOL    C26  448   3.736   2.263   4.691  0.2006 -0.0486 -0.3007
    2MOL    C27  449   3.686   2.392   4.613  0.0953  0.7331  0.0540
    2MOL    C28  450   3.794   2.462   4.525 -0.4960  0.3336  0.3734
    2MOL    C29  451   3.905   2.518   4.604 -0.4478 -0.5358 -0.0941
    2MOL    H30  452   3.799   2.024   4.770  0.3907  2.2794 -0.4550
    2MOL    H31  453   3.826   1.960   4.921  1.4647  0.9414  1.3024
    2MOL    H32  454   3.625   2.099   4.890 -0.1038  2.1401 -1.1796
    2MOL    H33  455   3.794   2.343   4.876  0.7023  0.2579 -3.5247
    2MOL    H34  456   3.615   2.322   4.859 -1.5979 -0.2982 -1.3672
    2MOL    H35  457   3.682   2.175   4.656 -0.0183 -0.5047  1.1137
    2MOL    H36  458   3.844   2.251   4.679 -0.1994 -1.0959 -3.2265
    2MOL    H37  459   3.639   2.468   4.675 -1.7632 -0.0093 -0.4021
    2MOL    H38  460   3.616   2.361   4.536  1.4951 -0.6400 -0.6985
    2MOL    H39  461   3.738   2.543   4.479 -1.4805  0.4018  1.6392
    2MOL    H40  462   3.831   2.389   4.453 -2.3764  0.9799 -1.2997
    2MOL    H41  463   3.872   2.596   4.673  2.9245  0.6774  0.2333
    2MOL    H42  464   3.954   2.447   4.671  0.6645 -0.6705 -1.0337
    2MOL    H43  465   3.983   2.564   4.544 -0.0062  0.6509  1.3646
    2MOL    C44  466   3.740   2.176   5.072  0.1334  0.5384 -0.2412
    2MOL    C45  467   3.619   2.239   5.145 -0.4494 -0.0978 -0.0884
    2MOL    C46  468   3.504   2.149   5.150  0.2322  0.2673  0.3431
    2MOL    C47  469   3.369   2.224   5.166  0.2910  1.1235 -0.2265
    2MOL    C48  470   3.250   2.129   5.142  0.1446 -0.5220 -0.1043
    2MOL    C49  471   3.122   2.215   5.160 -0.0498 -0.3304 -0.4325
    2MOL    C50  472   2.998   2.134   5.125  0.3875  0.3713  0.1491
    2MOL    H51  473   3.836   2.225   5.088  1.8709 -3.5005  2.4339
    2MOL    H52  474   3.750   2.077   5.115  2.3644  0.7422 -0.2584
    2MOL    H53  475   3.601   2.325   5.081 -1.6647  0.1603  0.5954
    2MOL    H54  476   3.509   2.059   5.211  0.1335 -0.9052 -1.3458
    2MOL    H55  477   3.497   2.100   5.053 -0.3454  2.7035 -0.8879
    2MOL    H56  478   3.350   2.227   5.273  1.0178 -1.4361  0.0145
    2MOL    H57  479   3.363   2.316   5.108 -2.4815  0.4737 -1.0485
    2MOL    H58  480   3.243   2.043   5.208 -0.8031  0.5013  1.1753
    2MOL    H59  481   3.247   2.094   5.039 -0.3456  1.2440 -0.7053
    2MOL    H60  482   3.136   2.313   5.114 -0.3740 -0.0109  0.1368
    2MOL    H61  483   3.119   2.239   5.266  0.3558  0.1761 -0.5324
    2MOL    H62  484   3.011   2.098   5.023  0.4425 -0.4574  0.4414
    2MOL    H63  485   2.897   2.176   5.126 -0.2422 -1.0841 -0.4297
    2MOL    H64  486   2.993   2.042   5.183  1.3892  0.5138  0.4546
    2MOL    C65  487   3.654   2.296   5.295 -0.5848  0.2443 -1.4047
    2MOL    C66  488   3.764   2.409   5.308  1.0165 -0.6616 -0.3274
    2MOL    C67  489   3.787   2.431   5.460  0.3357  0.6440  0.1341
    2MOL    C68  490   3.909   2.349   5.506  0.4007  0.0326  0.1726
    2MOL    C69  491   3.948   2.371   5.653  0.3855 -0.7277  0.7114
    2MOL    C70  492   3.863   2.295   5.768  0.5416 -0.0575 -0.4972
    2MOL    C71  493   3.900   2.346   5.907  0.0903 -0.6120  0.1689
    2MOL    H72  494   3.563   2.343   5.332  0.2294  0.9447 -0.2687
    2MOL    H73  495   3.678   2.210   5.358  0.2599  2.3378  1.1711
    2MOL    H74  496   3.849   2.359   5.263 -0.4971 -1.6235 -2.1723
    2MOL    H75  497   3.816   2.534   5.478  2.1176 -0.0487  1.4205
    2MOL    H76  498   3.700   2.407   5.522  1.1834 -2.0342  0.3479
    2MOL    H77  499   3.910   2.242   5.485  2.8970  0.2643 -1.0064
    2MOL    H78  500   3.997   2.362   5.443  0.1489 -0.6708 -0.3352
    2MOL    H79  501   4.051   2.340   5.670  1.7298  2.4651 -1.1363
    2MOL    H80  502   3.946   2.478   5.673 -0.0579 -0.4287 -0.9069
    2MOL    H81  503   3.870   2.186   5.766 -1.7682 -0.2509  0.4390
    2MOL    H82  504   3.760   2.323   5.746  0.0768 -0.6725  0.8582
    2MOL    H83  505   3.960   2.276   5.965 -0.2172 -1.4912 -0.5753
    2MOL    H84  506   3.959   2.438   5.903 -0.1836 -0.4239  0.4015
    2MOL    H85  507   3.810   2.366   5.966  0.9703 -0.7819  1.5742
    2MOL    C86  508   3.723   2.545   5.236  0.4555 -0.7654 -0.2608
    2MOL    C87  509   3.844   2.632   5.211 -0.3481 -0.4084 -0.9430
    2MOL    C88  510   3.914   2.575   5.082  0.0426  0.0422 -0.1396
    2MOL    C89  511   4.064   2.610   5.076  0.0444  0.0036  1.0188
    2MOL    C90  512   4.129   2.553   4.951  0.4837  0.4698 -0.0509
    2MOL    C91  513   4.278   2.570   4.956  0.9161 -0.4918  0.2539
    2MOL    C92  514   4.359   2.542   4.834  0.3832  0.1473  0.7668
    2MOL    H93  515   3.661   2.531   5.147  1.6152  2.4834 -1.6843
    2MOL    H94  516   3.652   2.592   5.304  1.0296 -2.0681  1.2672
    2MOL    H95  517   3.914   2.615   5.293 -0.0397  0.2912 -1.0565
    2MOL    H96  518   3.915   2.466   5.080  0.5704  0.0595 -2.2662
    2MOL    H97  519   3.855   2.618   5.001 -0.2833  1.4150  0.7981
    2MOL    H98  520   4.077   2.718   5.079  1.8816 -0.0938 -1.6393
    2MOL    H99  521   4.124   2.582   5.163  1.5922  0.6416  0.1759
    2MOL   H100  522   4.082   2.606   4.868  1.8994  0.8939 -0.5965
    2MOL   H101  523   4.099   2.449   4.942  0.0237  0.4944  1.0226
    2MOL   H102  524   4.289   2.672   4.991 -0.9355  0.3721 -1.5524
    2MOL   H103  525   4.334   2.510   5.027  1.3698 -2.0721 -1.3970
    2MOL   H104  526   4.370   2.435   4.815 -1.5430  0.2068 -0.8004
    2MOL   H105  527   4.454   2.590   4.854 -0.6607  2.9440 -0.7568
    2MOL   H106  528   4.320   2.591   4.745  0.9219  2.2407  1.6412
    2MOL   C107  529   3.809   2.781   5.204 -0.3545  0.5177  1.0678
    2MOL   C108  530   3.813   2.848   5.347  0.6952  0.1186 -0.3707
    2MOL   C109  531   3.956   2.897   5.396  0.3382  0.0802  0.0939
    2MOL   C110  532   4.014   3.004   5.313  0.2103  0.0310  1.0213
    2MOL   C111  533   4.152   3.023   5.357 -0.5626 -0.6339  1.0238
    2MOL   C112  534   4.225   3.137   5.286  0.2570  0.0561 -0.4832
    2MOL   C113  535   4.169   3.273   5.318  0.7407 -0.7944  0.2142
    2MOL   H114  536   3.708   2.771   5.166 -0.2416 -1.6905  1.2642
    2MOL   H115  537   3.869   2.836   5.131  0.4326  0.9695  2.0268
    2MOL   H116  538   3.785   2.785   5.431  0.3762  1.5083  0.5884
    2MOL   H117  539   4.020   2.809   5.387 -1.8231 -1.6550  1.0872
    2MOL   H118  540   3.952   2.914   5.503  1.8461  0.6599  0.0688
    2MOL   H119  541   4.013   2.975   5.208  0.8996  2.0255  0.4495
    2MOL   H120  542   3.952   3.094   5.320  1.1461  0.9390 -1.6867
    2MOL   H121  543   4.211   2.939   5.320  1.2436  1.2782 -0.5237
    2MOL   H122  544   4.166   3.031   5.465 -0.7760 -1.5664  1.1242
    2MOL   H123  545   4.329   3.145   5.317 -0.2651  1.6300  0.9620
    2MOL   H124  546   4.237   3.119   5.179 -0.3864 -1.7577 -0.2699
    2MOL   H125  547   4.143   3.285   5.423  2.1405 -0.7205  0.5666
    2MOL   H126  548   4.223   3.364   5.291 -0.1100 -0.5514 -0.7396
    2MOL   H127  549   4.071   3.275   5.269  1.2371 -0.2915 -0.7905
    2MOL   C128  550   3.726   2.982   5.356 -0.1308 -0.1922 -0.2616
    2MOL   C129  551   3.574   2.956   5.356 -0.4553  0.2849  0.3761
    2MOL   C130  552   3.489   3.059   5.277  0.5715  0.6665 -0.1727
    2MOL   C131  553   3.499   3.045   5.127 -0.1794 -0.1241 -0.1065
    2MOL   C132  554   3.457   3.169   5.062  0.5784  0.8869  0.3091
    2MOL   C133  555   3.449   3.155   4.900 -0.1815  0.1338  0.0530
    2MOL   C134  556   3.354   3.060   4.832  0.2257  0.2790  0.5059
    2MOL   H135  557   3.758   3.037   5.445 -1.6010  1.2878 -0.6168
    2MOL   H136  558   3.754   3.043   5.270 -0.9649  1.0505  0.3247
    2MOL   H137  559   3.551   2.858   5.316 -0.9484  0.5624 -0.0243
    2MOL   H138  560   3.526   3.160   5.296  1.3042  0.7286 -1.8031
    2MOL   H139  561   3.385   3.048   5.310 -0.4996  4.2854 -2.0295
    2MOL   H140  562   3.439   2.955   5.113 -1.7964  1.1311 -1.3387
    2MOL   H141  563   3.599   3.015   5.095 -0.1822 -0.4284  0.1639
    2MOL   H142  564   3.519   3.258   5.072 -0.6585  2.2612 -3.0886
    2MOL   H143  565   3.358   3.198   5.098 -0.2034  0.3679 -1.3572
    2MOL   H144  566   3.552   3.145   4.866 -0.6755 -3.3031 -0.5545
    2MOL   H145  567   3.427   3.251   4.853 -1.3341 -0.4919 -0.7119
    2MOL   H146  568   3.354   2.970   4.895 -1.4571  1.0035  1.5581
    2MOL   H147  569   3.383   3.038   4.729 -0.3911 -1.7651  0.7462
    2MOL   H148  570   3.258   3.111   4.835  0.1065  0.1543 -0.9566
    2MOL   C149  571   3.533   2.963   5.506  0.5059  0.1345 -0.0474
    2MOL   C150  572   3.402   2.886   5.541  0.3027  0.6349 -0.2956
    2MOL   C151  573   3.354   2.925   5.684 -0.0613 -0.3909 -0.3008
    2MOL   C152  574   3.272   3.049   5.683 -0.3307 -0.4263  0.0226
    2MOL   C153  575   3.248   3.095   5.825  0.3893  0.7592 -0.1632
    2MOL   C154  576   3.232   3.248   5.843  0.6889 -0.3392  0.2096
    2MOL   C155  577   3.242   3.285   5.991  0.0486  0.2842  0.4565
    2MOL   H156  578   3.614   2.929   5.570  0.5497  1.8982  0.8572
    2MOL   H157  579   3.526   3.066   5.540 -2.4969 -0.4992  1.3847
    2MOL   H158  580   3.324   2.904   5.467 -0.1273  0.1229  0.0360
    2MOL   H159  581   3.283   2.850   5.719 -0.3877 -0.7244 -1.6804
    2MOL   H160  582   3.437   2.931   5.756 -0.6799 -0.0188  0.3913
    2MOL   H161  583   3.176   3.030   5.635  0.0745  1.3073 -1.5000
    2MOL   H162  584   3.330   3.127   5.635 -1.5830  1.2296  1.1234
    2MOL   H163  585   3.338   3.069   5.882  1.0607  2.8553 -0.2140
    2MOL   H164  586   3.162   3.044   5.868 -0.2870  1.7198 -0.3681
    2MOL   H165  587   3.132   3.280   5.815 -0.3592 -2.1826  1.7049
    2MOL   H166  588   3.317   3.301   5.800 -0.9257  1.5440 -0.7399
    2MOL   H167  589   3.203   3.386   6.008 -0.8360 -0.2742  1.8454
    2MOL   H168  590   3.341   3.287   6.037 -0.3949  0.6057  1.4126
    2MOL   H169  591   3.174   3.219   6.044 -1.0639  0.9727 -0.0962
    2MOL   C170  592   3.443   2.740   5.536 -0.0073 -0.8228  0.4769
    2MOL   C171  593   3.329   2.629   5.523 -0.5168 -0.2334 -0.5298
    2MOL   C172  594   3.240   2.634   5.391  0.8453 -0.2649  0.1542
    2MOL   C173  595   3.319   2.651   5.269  0.0982  0.6411  0.1438
    2MOL   C174  596   3.249   2.617   5.140 -0.5765 -0.1012 -0.2336
    2MOL   C175  597   3.354   2.632   5.026  0.1060  0.2893 -0.2574
    2MOL   C176  598   3.330   2.529   4.911 -0.0192 -0.1264  0.0618
    2MOL   H177  599   3.509   2.715   5.619  1.9468  0.2702 -0.6882
    2MOL   H178  600   3.514   2.729   5.454  0.0219  0.0883  0.3719
    2MOL   H179  601   3.271   2.649   5.613  2.2852  1.6821  0.9294
    2MOL   H180  602   3.165   2.710   5.410 -1.4453 -1.8575 -2.1885
    2MOL   H181  603   3.170   2.551   5.382  1.0083 -0.8477  3.4597
    2MOL   H182  604   3.403   2.582   5.276 -0.6901 -0.3257  0.0450
    2MOL   H183  605   3.353   2.755   5.271  0.5150  0.4999  0.9618
    2MOL   H184  606   3.168   2.689   5.128  0.6339  1.7827  2.3637
    2MOL   H185  607   3.195   2.522   5.144 -1.7968  0.5305 -1.3758
    2MOL   H186  608   3.456   2.621   5.062  0.6992 -2.4108 -2.5654
    2MOL   H187  609   3.346   2.733   4.987  0.4442 -0.2399 -1.7462
    2MOL   H188  610   3.228   2.492   4.910 -0.3593  0.6971  1.8680
    2MOL   H189  611   3.406   2.451   4.911  1.5203  1.3298 -1.3201
    2MOL   H190  612   3.326   2.579   4.814 -0.3898 -0.0949  0.0914
    2MOL   C191  613   3.380   2.482   5.550  0.4791  0.7442 -0.3012
    2MOL   C192  614   3.270   2.363   5.559 -0.0567 -0.2144  0.1224
    2MOL   C193  615   3.350   2.237   5.576 -0.5665  0.3368  0.0688
    2MOL   C194  616   3.278   2.106   5.545 -0.1442 -0.8489  0.1992
    2MOL   C195  617   3.362   1.981   5.579  0.3178  0.2179 -0.6004
    2MOL   C196  618   3.394   1.968   5.727  0.3842 -0.2195  0.2028
    2MOL   C197  619   3.266   1.983   5.816  0.1800  0.4648 -0.2240
    2MOL   H198  620   3.436   2.485   5.643  0.0040 -0.9390  0.0419
    2MOL   H199  621   3.454   2.464   5.472  0.2940  0.5649 -0.4356
    2MOL   H200  622   3.233   2.346   5.457 -0.4961 -2.6002  0.6487
    2MOL   H201  623   3.396   2.224   5.674 -1.7231 -0.4423  0.5209
    2MOL   H202  624   3.436   2.246   5.510  1.7207 -1.1410  2.7354
    2MOL   H203  625   3.239   2.099   5.444 -1.9120 -0.7842  0.8715
    2MOL   H204  626   3.185   2.090   5.599 -0.5881  1.2163  0.1053
    2MOL   H205  627   3.321   1.885   5.549  2.1876 -0.8641  0.1970
    2MOL   H206  628   3.460   1.976   5.530  1.2517 -1.4994  1.3708
    2MOL   H207  629   3.469   2.041   5.757  1.7546 -0.1061 -3.2563
    2MOL   H208  630   3.448   1.875   5.750 -0.8061 -1.3011 -1.2961
    2MOL   H209  631   3.171   1.942   5.782 -0.8831  2.0767  0.7417
    2MOL   H210  632   3.249   2.089   5.835 -1.2159  0.3039 -0.5286
    2MOL   H211  633   3.285   1.932   5.911 -1.9276 -1.1866 -0.6559
    2MOL   C212  634   3.163   2.378   5.673  0.1458  0.1856 -0.2922
    2MOL   C213  635   3.032   2.459   5.638 -0.4542 -0.4242  0.4249
    2MOL   C214  636   2.950   2.391   5.520  0.4708 -0.0152 -0.3864
    2MOL   C215  637   2.861   2.272   5.561 -0.3696  0.5051  1.3352
    2MOL   C216  638   2.787   2.213   5.438 -0.1597 -0.2189 -0.0892
    2MOL   C217  639   2.709   2.077   5.456 -0.2299 -0.4087  0.2296
    2MOL   C218  640   2.589   2.078   5.550 -0.0610 -0.4568 -0.2175
    2MOL   H219  641   3.203   2.430   5.761  0.1374 -1.0255  0.4288
    2MOL   H220  642   3.144   2.281   5.718  2.9380 -0.1467  0.3276
    2MOL   H221  643   3.055   2.555   5.593 -0.4720 -1.0018 -0.8665
    2MOL   H222  644   2.886   2.473   5.490  0.3082 -0.5083 -1.3957
    2MOL   H223  645   3.015   2.367   5.436  0.3654  0.5331 -0.6283
    2MOL   H224  646   2.792   2.299   5.642 -3.7816 -0.0715 -1.2694
    2MOL   H225  647   2.924   2.199   5.611  0.8627 -0.5687 -1.7064
    2MOL   H226  648   2.722   2.291   5.400  1.7752  1.2980 -0.3552
    2MOL   H227  649   2.858   2.199   5.356  1.0915 -1.9229  1.2214
    2MOL   H228  650   2.680   2.036   5.359 -0.3238 -3.3760  1.4407
    2MOL   H229  651   2.782   2.008   5.499  2.2635  1.1002 -1.4473
    2MOL   H230  652   2.614   2.121   5.647  0.9638 -0.5692 -0.4214
    2MOL   H231  653   2.569   1.973   5.567  0.7433 -0.2031  2.4442
    2MOL   H232  654   2.502   2.120   5.500  0.7263  0.9082 -0.4809
    2MOL   C233  655   2.944   2.491   5.759  0.5864  0.0163 -0.1551
    2MOL   C234  656   3.006   2.597   5.854  0.2357  0.2103  0.0153
    2MOL   C235  657   2.970   2.735   5.798  0.1039  0.1166 -0.6241
    2MOL   C236  658   2.849   2.806   5.871  0.0377  0.6101  0.8561
    2MOL   C237  659   2.816   2.930   5.796  0.0448 -0.2882  0.1287
    2MOL   C238  660   2.742   3.037   5.874  0.1028  0.2908 -0.6194
    2MOL   C239  661   2.599   2.993   5.889  0.8292  0.8029 -0.0106
    2MOL   H240  662   2.934   2.392   5.805 -1.5963 -1.1078 -2.8932
    2MOL   H241  663   2.845   2.519   5.721  0.2930  1.4510  1.5978
    2MOL   H242  664   3.114   2.591   5.842  0.7143  3.4232  2.0653
    2MOL   H243  665   2.964   2.741   5.689  0.3501  0.7602 -0.6025
    2MOL   H244  666   3.042   2.813   5.819 -1.2167  0.7822  1.6357
    2MOL   H245  667   2.860   2.832   5.976  0.8664  1.9600  0.4533
    2MOL   H246  668   2.765   2.738   5.869  1.1921 -0.8454  1.3369
    2MOL   H247  669   2.755   2.904   5.709  1.1789  0.2749 -0.8396
    2MOL   H248  670   2.913   2.972   5.773  0.6954 -1.4113  0.7844
    2MOL   H249  671   2.783   3.047   5.974  0.0082 -2.1747 -0.3096
    2MOL   H250  672   2.750   3.128   5.813  0.6722  0.3660 -0.4304
    2MOL   H251  673   2.540   3.072   5.934  0.6814  0.2755  0.7202
    2MOL   H252  674   2.545   2.976   5.796 -0.2573 -0.4088  0.8206
    2MOL   H253  675   2.586   2.910   5.959  1.6682 -0.3105 -1.1315
    2MOL   C254  676   2.975   2.562   5.995  0.3660  0.2670  0.1513
    2MOL   C255  677   3.036   2.433   6.054  0.0429 -0.2020 -0.2508
    2MOL   C256  678   2.934   2.343   6.120  0.1981 -1.1024 -0.1292
    2MOL   C257  679   2.856   2.255   6.017  0.5263 -0.7822 -0.3371
    2MOL   C258  680   2.736   2.172   6.070  0.0154  0.1664 -0.1450
    2MOL   C259  681   2.675   2.085   5.957 -0.4440  0.3486 -0.1241
    2MOL   C260  682   2.553   2.001   6.003  0.1056  0.3586  0.1578
    2MOL   H261  683   2.867   2.549   6.003  0.0260  2.6076 -0.1772
    2MOL   H262  684   3.004   2.650   6.052  3.3520 -0.5148 -0.0751
    2MOL   H263  685   3.080   2.376   5.973  0.0484 -0.2227 -0.2328
    2MOL   H264  686   2.870   2.404   6.185  1.1747 -2.3067  2.0327
    2MOL   H265  687   2.987   2.276   6.187  1.2639 -0.2691 -0.1325
    2MOL   H266  688   2.806   2.327   5.953 -0.7717  1.2090  2.8089
    2MOL   H267  689   2.921   2.195   5.953  0.8348 -1.6367  0.7588
    2MOL   H268  690   2.658   2.229   6.122 -0.1258  0.3916 -0.5994
    2MOL   H269  691   2.774   2.109   6.150 -0.3128  1.1849  0.8357
    2MOL   H270  692   2.638   2.142   5.871 -1.1821  0.2700  0.1401
    2MOL   H271  693   2.756   2.016   5.932  0.6023  0.3432  3.1148
    2MOL   H272  694   2.462   2.057   6.018 -0.3168  0.6414 -3.0665
    2MOL   H273  695   2.548   1.918   5.932 -0.4904  0.9055 -0.4442
    2MOL   H274  696   2.574   1.950   6.097 -2.3038 -0.8914  0.0586
    2MOL   C275  697   3.152   2.466   6.151  0.5688  0.0414  0.3161
    2MOL   C276  698   3.293   2.492   6.087 -0.7734  0.4346 -0.2233
    2MOL   C277  699   3.358   2.354   6.063 -0.1913  0.4770 -0.6799
    2MOL   C278  700   3.488   2.352   5.985 -0.6507  0.5735  0.3394
    2MOL   C279  701   3.557   2.218   5.988  0.9255 -0.0609 -0.0148
    2MOL   C280  702   3.616   2.179   6.124 -0.4083  0.7166  0.7906
    2MOL   C281  703   3.713   2.060   6.096  0.3551  0.7908 -0.3539
    2MOL   H282  704   3.168   2.383   6.220 -1.3544 -1.0904 -0.5449
    2MOL   H283  705   3.111   2.543   6.216 -0.7298  0.2916 -0.7676
    2MOL   H284  706   3.282   2.546   5.993 -0.4287  0.5545 -0.1992
    2MOL   H285  707   3.362   2.306   6.161 -1.7824  0.6312 -0.5269
    2MOL   H286  708   3.286   2.292   6.011  0.8054 -1.3217  0.0586
    2MOL   H287  709   3.554   2.433   6.016  1.2799 -1.0987  0.6808
    2MOL   H288  710   3.463   2.369   5.880 -0.4325  1.3110  0.4034
    2MOL   H289  711   3.630   2.217   5.907  0.0113 -1.8246 -0.8315
    2MOL   H290  712   3.482   2.140   5.977 -1.2513  1.7054  1.7388
    2MOL   H291  713   3.667   2.265   6.168 -1.1484  1.4883  0.1555
    2MOL   H292  714   3.532   2.151   6.188 -1.1992 -3.6818 -2.0214
    2MOL   H293  715   3.762   2.036   6.191  0.6500  0.7027 -0.5291
    2MOL   H294  716   3.795   2.081   6.027  0.0741  0.3401 -0.8209
    2MOL   H295  717   3.660   1.969   6.068  0.8155  0.4049  0.0158
    2MOL   C296  718   3.380   2.567   6.191  1.1392 -0.3452  0.5800
    2MOL   C297  719   3.381   2.721   6.167  0.1181  0.4557  0.6527
    2MOL   C298  720   3.447   2.763   6.029  0.0749 -0.6504 -0.0296
    2MOL   C299  721   3.599   2.761   6.015  1.1242 -0.2361  0.1317
    2MOL   C300  722   3.666   2.784   5.877 -0.4608  0.4034  0.3627
    2MOL   C301  723   3.820   2.796   5.891 -0.2820  0.7946  0.3830
    2MOL   C302  724   3.897   2.826   5.760  0.3962  0.0166 -0.0557
    2MOL   H303  725   3.361   2.542   6.296  0.9441  2.2312  1.1951
    2MOL   H304  726   3.483   2.532   6.180  0.6545 -1.4629 -0.5931
    2MOL   H305  727   3.278   2.755   6.165  0.3261  1.1023  0.3987
    2MOL   H306  728   3.419   2.693   5.950  0.3750  0.5837 -1.2491
    2MOL   H307  729   3.420   2.862   5.994  0.1567 -0.1106  1.3901
    2MOL   H308  730   3.642   2.670   6.058  0.4317 -1.1505 -1.0910
    2MOL   H309  731   3.642   2.836   6.081 -0.1739 -0.0277  0.7702
    2MOL   H310  732   3.631   2.859   5.806  0.1348  0.2091 -0.1414
    2MOL   H311  733   3.658   2.692   5.818  0.6520  0.2035  0.5021
    2MOL   H312  734   3.848   2.877   5.958  2.7908 -0.0326  0.1815
    2MOL   H313  735   3.870   2.706   5.927  0.4205 -1.0906 -4.7959
    2MOL   H314  736   3.883   2.736   5.700  0.7492  0.1328 -0.3161
    2MOL   H315  737   3.854   2.909   5.704 -0.6223 -0.4239  0.0644
    2MOL   H316  738   4.002   2.852   5.774 -0.1700  2.5644 -0.1898
    2MOL   C317  739   3.455   2.797   6.278  0.1852 -0.1044 -0.9347
    2MOL   C318  740   3.432   2.949   6.285 -0.3213 -0.0967  0.4943
    2MOL   C319  741   3.295   3.013   6.256  0.7014  0.6272  0.2355
    2MOL   C320  742   3.176   2.959   6.337  0.0644 -0.6406 -0.8057
    2MOL   C321  743   3.031   2.962   6.278 -0.1763 -0.3816 -0.1613
    2MOL   C322  744   2.929   2.867   6.344  0.3342 -0.2344  0.7395
    2MOL   C323  745   2.785   2.911   6.311  0.2083  0.1125  0.1106
    2MOL   H324  746   3.560   2.769   6.294 -0.9017 -3.5627  0.4947
    2MOL   H325  747   3.404   2.763   6.367  0.9145  0.0527 -0.4473
    2MOL   H326  748   3.484   2.994   6.200  0.2624  0.3481  1.0815
    2MOL   H327  749   3.274   2.992   6.151 -2.8689  0.0962  0.9662
    2MOL   H328  750   3.298   3.121   6.266 -0.4444  0.5884  1.1277
    2MOL   H329  751   3.167   3.021   6.427 -1.8304 -2.8315  0.5646
    2MOL   H330  752   3.203   2.860   6.372 -2.6239 -0.8212  0.9563
    2MOL   H331  753   3.039   2.939   6.172  2.4163 -0.8684  0.1203
    2MOL   H332  754   2.998   3.065   6.293  0.9006  0.0934 -1.0261
    2MOL   H333  755   2.943   2.855   6.451 -0.6441  1.2427  1.0491
    2MOL   H334  756   2.950   2.766   6.309 -0.1762 -0.7449  1.8771
    2MOL   H335  757   2.704   2.853   6.354  0.4514  0.2047  0.6991
    2MOL   H336  758   2.768   2.902   6.204 -1.4535  1.4921  0.2535
    2MOL   H337  759   2.762   3.012   6.345 -1.2083 -0.1415 -0.0740
    2MOL   C338  760   3.489   3.022   6.408 -0.2348 -0.2441  0.0636
    2MOL   C339  761   3.637   2.999   6.446 -0.6662 -0.1112 -0.7485
    2MOL   C340  762   3.677   3.074   6.580  0.2259  1.3160  0.0694
    2MOL   C341  763   3.581   3.037   6.701 -0.0921  0.0494 -0.1520
    2MOL   C342  764   3.632   3.101   6.830 -0.3561 -0.4809  0.0983
    2MOL   C343  765   3.553   3.058   6.954 -0.4412  0.3143 -0.0799
    2MOL   C344  766   3.538   2.910   6.982  0.0447  0.4578  0.4043
    2MOL   H345  767   3.426   2.985   6.489  0.0464  2.0353  1.3734
    2MOL   H346  768   3.472   3.129   6.392  1.4853 -0.1415 -1.3062
    2MOL   H347  769   3.645   2.891   6.458  0.4643 -0.0532 -0.9701
    2MOL   H348  770   3.779   3.062   6.615 -0.6305 -0.2819  2.1613
    2MOL   H349  771   3.673   3.182   6.568 -0.0066  1.2987 -0.0210
    2MOL   H350  772   3.583   2.930   6.721  0.1921  0.0641 -0.0964
    2MOL   H351  773   3.478   3.073   6.697  0.1424  0.6053 -1.3470
    2MOL   H352  774   3.739   3.078   6.839 -0.2294 -0.7087 -1.8299
    2MOL   H353  775   3.628   3.209   6.816 -0.5756 -0.8007 -2.4224
    2MOL   H354  776   3.598   3.102   7.043  2.1132 -0.2219 -1.0826
    2MOL   H355  777   3.451   3.097   6.944 -0.9715 -1.0734 -0.2377
    2MOL   H356  778   3.634   2.858   6.980  0.4709  1.2895 -2.1386
    2MOL   H357  779   3.468   2.866   6.912  0.5244 -0.6919  0.6399
    2MOL   H358  780   3.476   2.898   7.071  0.2748  0.6263  0.5879
    2MOL   C359  781   3.730   3.045   6.328 -0.1995 -0.4388 -0.3098
    2MOL   C360  782   3.875   3.018   6.353  0.3096  0.2668  0.1170
    2MOL   C361  783   3.908   2.870   6.388 -0.0240 -0.3475 -0.0526
    2MOL   C362  784   3.869   2.763   6.283 -0.0284  0.2888 -0.5442
    2MOL   C363  785   3.893   2.621   6.337 -0.0878  0.9076 -0.3642
    2MOL   C364  786   3.868   2.512   6.239 -0.0465  0.4315 -0.1947
    2MOL   C365  787   3.929   2.378   6.283  0.1887  0.0987  0.4619
    2MOL   H366  788   3.717   3.152   6.313 -0.5502 -0.6635 -1.6433
    2MOL   H367  789   3.692   3.005   6.234  1.1363 -1.1894 -0.5527
    2MOL   H368  790   3.899   3.082   6.438 -0.8597 -0.6237  1.1272
    2MOL   H369  791   4.011   2.857   6.421  0.5422 -0.8613 -1.9291
    2MOL   H370  792   3.843   2.848   6.472 -0.9508  0.1498 -0.6354
    2MOL   H371  793   3.767   2.782   6.248  0.3920  1.3399 -1.2331
    2MOL   H372  794   3.939   2.768   6.199  0.7024 -2.4206 -0.1226
    2MOL   H373  795   4.000   2.617   6.357 -0.4550  1.0215  1.7790
    2MOL   H374  796   3.845   2.618   6.435 -0.0626  3.2335 -0.2715
    2MOL   H375  797   3.760   2.503   6.223 -0.1847  1.0524  0.3889
    2MOL   H376  798   3.908   2.533   6.139 -1.2375  0.3734 -0.6953
    2MOL   H377  799   3.902   2.355   6.386 -2.1200  0.8724  0.0564
    2MOL   H378  800   3.898   2.296   6.217  1.6987  0.5571 -0.8424
    2MOL   H379  801   4.038   2.377   6.284  0.2747  0.6340 -2.7240
    2MOL   C380  802   3.971   3.067   6.237 -0.4695  0.7002  0.0649
    2MOL   C381  803   4.119   3.073   6.272  0.0901  0.3356 -0.1319
    2MOL   C382  804   4.198   3.143   6.159  0.0190 -0.0508 -0.1295
    2MOL   C383  805   4.159   3.104   6.020  0.2491 -0.1574 -0.2440
    2MOL   C384  806   4.263   3.156   5.921 -0.3261 -0.2268  0.3585
    2MOL   C385  807   4.257   3.075   5.789 -0.8056  0.1689  0.0075
    2MOL   C386  808   4.359   3.132   5.683 -0.2611 -0.3290 -0.0012
    2MOL   H387  809   3.954   3.000   6.153 -1.1276  0.2592  0.5482
    2MOL   H388  810   3.933   3.167   6.213 -0.4572  0.2367 -1.9926
    2MOL   H389  811   4.153   2.972   6.291  0.5590  0.2408 -1.3746
    2MOL   H390  812   4.303   3.117   6.174  0.0609  0.1681 -0.0403
    2MOL   H391  813   4.197   3.251   6.172 -0.2904 -0.2627  1.7737
    2MOL   H392  814   4.161   2.995   6.026  1.2326 -0.2203 -1.4409
    2MOL   H393  815   4.061   3.145   5.995  0.8943  2.2156  1.0437
    2MOL   H394  816   4.248   3.262   5.897  0.9021 -0.4466 -1.4893
    2MOL   H395  817   4.366   3.160   5.955  0.3980  0.1037 -1.7649
    2MOL   H396  818   4.159   3.094   5.746 -0.3731 -1.2076 -1.6315
    2MOL   H397  819   4.254   2.967   5.803 -0.7156 -0.2512 -2.8391
    2MOL   H398  820   4.465   3.130   5.707 -0.6968 -2.1324  2.0448
    2MOL   H399  821   4.321   3.228   5.648  1.1171 -0.0398 -0.7036
    2MOL   H400  822   4.350   3.066   5.597  0.6008 -1.6229  0.8752
    2MOL   C401  823   4.149   3.144   6.404  0.1506 -1.1320  0.2910
    2MOL   C402  824   4.295   3.147   6.448 -0.1266  0.9307  0.5796
    2MOL   C403  825   4.326   3.189   6.592 -0.2324 -0.5881  0.1325
    2MOL   C404  826   4.255   3.117   6.700  0.5885 -0.1272  0.8739
    2MOL   C405  827   4.302   3.155   6.841 -0.6179 -0.1287  0.5313
    2MOL   C406  828   4.231   3.065   6.940 -0.1475 -0.2362  0.0671
    2MOL   C407  829   4.099   3.131   6.995 -0.1019  0.1789 -0.4438
    2MOL   H408  830   4.098   3.098   6.489  1.7904 -2.3249  0.6744
    2MOL   H409  831   4.107   3.244   6.405 -1.1997 -1.6322 -1.7063
    2MOL   H410  832   4.357   3.202   6.378  0.6508  0.1998  0.6906
    2MOL   H411  833   4.308   3.296   6.586  0.1924 -0.5033  0.3944
    2MOL   H412  834   4.429   3.183   6.626 -0.1401 -0.9252 -0.2098
    2MOL   H413  835   4.248   3.009   6.696 -0.5632 -0.0029 -1.2558
    2MOL   H414  836   4.149   3.142   6.698  1.1166  2.1607 -0.5313
    2MOL   H415  837   4.410   3.144   6.842 -0.6321 -0.6879 -1.5951
    2MOL   H416  838   4.292   3.261   6.864  0.1438 -0.2442  1.4345
    2MOL   H417  839   4.207   2.967   6.900 -2.7262 -0.3410  1.7367
    2MOL   H418  840   4.300   3.046   7.022  0.1434  0.3526 -0.0367
    2MOL   H419  841   4.038   3.172   6.914 -0.4835  0.2492 -0.1256
    2MOL   H420  842   4.119   3.218   7.057  4.6282  0.3512 -2.0034
    2MOL   H421  843   4.043   3.057   7.052  2.3330 -1.6350 -0.3245
    2MOL   H422  844   4.325   3.042   6.441  0.1402  1.1075 -1.4950
    3MOL     C1  845   3.549   5.068   6.529 -0.2014 -0.1876  0.0650
    3MOL     C2  846   3.585   5.190   6.624 -0.1283 -0.2886 -0.0280
    3MOL     C3  847   3.736   5.212   6.640 -0.2159 -0.2844 -0.5694
    3MOL     C4  848   3.782   5.325   6.737  0.7835 -1.1315 -0.0891
    3MOL     C5  849   3.907   5.410   6.691 -0.3961  0.1588 -0.2083
    3MOL     C6  850   3.979   5.488   6.807 -0.5456 -0.9847  0.3992
    3MOL     C7  851   3.907   5.608   6.879 -0.3102 -0.7834  0.7718
    3MOL     H8  852   3.442   5.080   6.507  0.7515  3.1463 -3.2859
    3MOL     H9  853   3.564   4.967   6.568 -2.6831 -0.6292  0.0019
    3MOL    H10  854   3.550   5.276   6.567  0.6859  0.4617  0.5882
    3MOL    H11  855   3.784   5.115   6.655 -1.4734 -0.6187  1.3591
    3MOL    H12  856   3.777   5.233   6.541 -0.6878 -2.0939 -1.1610
    3MOL    H13  857   3.697   5.391   6.751  1.3598 -0.4069  0.0203
    3MOL    H14  858   3.785   5.285   6.839  2.1713 -0.4127  0.1603
    3MOL    H15  859   3.880   5.475   6.607  3.9048 -0.7370 -2.4050
    3MOL    H16  860   3.986   5.347   6.650 -0.0599  0.2718  0.2606
    3MOL    H17  861   4.076   5.526   6.775 -0.8740  1.0592  1.7442
    3MOL    H18  862   4.009   5.409   6.876  0.6604 -0.2566  0.7188
    3MOL    H19  863   3.823   5.574   6.940 -0.0677 -1.2935  0.8270
    3MOL    H20  864   3.863   5.672   6.803 -0.0765 -1.1266  0.3434
    3MOL    H21  865   3.974   5.668   6.941 -1.4642  1.5856 -0.2328
    3MOL    H22  866   3.605   5.085   6.437 -0.8979  0.6518 -0.2163
    3MOL    C23  867   3.517   5.161   6.756 -0.7579  0.0514  0.4467
    3MOL    C24  868   3.363   5.148   6.761 -0.4287  0.4697  0.1395
    3MOL    C25  869   3.287   5.263   6.688 -0.2100  0.1627 -0.5438
    3MOL    C26  870   3.313   5.401   6.750 -0.0497  0.4782  0.6779
    3MOL    C27  871   3.220   5.495   6.681  0.6108 -0.2140 -0.2263
    3MOL    C28  872   3.207   5.622   6.759 -0.4146  0.2478 -0.1931
    3MOL    C29  873   3.109   5.718   6.690 -0.4392 -0.8881  0.0960
    3MOL    H30  874   3.575   5.075   6.789  1.6945  0.8513 -1.6490
    3MOL    H31  875   3.556   5.236   6.825  1.4924  1.2060 -1.9989
    3MOL    H32  876   3.331   5.060   6.705 -0.7627  0.4857  0.3019
    3MOL    H33  877   3.185   5.232   6.665 -0.6178  0.4952  0.7701
    3MOL    H34  878   3.321   5.269   6.585  0.8119  1.0027 -0.1696
    3MOL    H35  879   3.415   5.439   6.760 -0.2209  1.3477 -0.6887
    3MOL    H36  880   3.273   5.397   6.851  0.3820  2.0015  0.9252
    3MOL    H37  881   3.124   5.444   6.677 -0.6093  2.0965 -0.9141
    3MOL    H38  882   3.255   5.514   6.580  1.3158  1.2660  0.2749
    3MOL    H39  883   3.298   5.678   6.779 -1.2090  0.6686  2.4204
    3MOL    H40  884   3.157   5.602   6.854 -0.3848 -1.5195 -0.5390
    3MOL    H41  885   3.141   5.820   6.711 -1.5592 -0.3365 -0.8264
    3MOL    H42  886   3.112   5.726   6.581 -2.1095  0.6366  0.1438
    3MOL    H43  887   3.009   5.709   6.732  0.1937  0.4736  1.9556
    3MOL    C44  888   3.312   5.125   6.908  0.4204  0.1462  0.1670
    3MOL    C45  889   3.327   4.977   6.962  0.4732 -0.0177  0.3290
    3MOL    C46  890   3.296   4.972   7.112  0.7532 -1.1850 -0.6713
    3MOL    C47  891   3.396   5.039   7.204 -0.7738  0.2743  0.2496
    3MOL    C48  892   3.338   5.079   7.348 -0.0684 -0.0612 -0.0288
    3MOL    C49  893   3.440   5.131   7.451  0.0388 -0.0001  0.3669
    3MOL    C50  894   3.356   5.190   7.567  0.0967  0.5469  0.2626
    3MOL    H51  895   3.204   5.138   6.912 -0.1484 -3.6126 -0.7637
    3MOL    H52  896   3.359   5.196   6.975  0.7869 -0.7158  0.8386
    3MOL    H53  897   3.430   4.945   6.946  0.0649 -2.3726  2.1140
    3MOL    H54  898   3.297   4.870   7.150 -1.0092 -0.4856  1.3899
    3MOL    H55  899   3.194   5.003   7.136  1.1955 -0.5209  0.3753
    3MOL    H56  900   3.488   4.982   7.219 -0.6742  0.2340 -0.5119
    3MOL    H57  901   3.428   5.133   7.157 -1.7746 -0.3254 -1.6564
    3MOL    H58  902   3.278   4.997   7.387  2.3552 -1.2721  1.2820
    3MOL    H59  903   3.275   5.164   7.323  1.3859  0.8816 -0.5941
    3MOL    H60  904   3.503   5.204   7.401 -0.3207 -0.9733 -1.5119
    3MOL    H61  905   3.503   5.048   7.483 -2.4810 -2.8276 -1.7300
    3MOL    H62  906   3.422   5.243   7.635  0.0298  0.3670  0.4654
    3MOL    H63  907   3.296   5.113   7.615  1.2767 -0.0660  0.7899
    3MOL    H64  908   3.290   5.268   7.530  0.3186  1.3706  1.5903
    3MOL    C65  909   3.241   4.876   6.884  0.3137 -0.4394  0.2493
    3MOL    C66  910   3.307   4.784   6.778  0.2516  0.1568 -0.7893
    3MOL    C67  911   3.204   4.747   6.673 -0.2645  0.2555  0.2042
    3MOL    C68  912   3.200   4.852   6.559  0.1756  0.2676 -0.1622
    3MOL    C69  913   3.117   4.808   6.439  0.3994 -0.4132  0.5756
    3MOL    C70  914   3.096   4.917   6.328 -0.2142 -0.1025 -0.3363
    3MOL    C71  915   3.026   4.853   6.202 -0.1859 -0.7546  0.3054
    3MOL    H72  916   3.192   4.808   6.954  0.0410 -2.1045 -1.5031
    3MOL    H73  917   3.155   4.926   6.840  0.5194 -0.2885  0.0195
    3MOL    H74  918   3.385   4.844   6.732 -0.8834  2.4701  0.2603
    3MOL    H75  919   3.229   4.654   6.622  0.1368  0.0393  0.7808
    3MOL    H76  920   3.109   4.729   6.724 -1.1545 -0.7918 -1.7719
    3MOL    H77  921   3.161   4.945   6.600  0.1940  0.4098 -0.4662
    3MOL    H78  922   3.302   4.873   6.527  0.6930 -2.7282 -0.5790
    3MOL    H79  923   3.172   4.725   6.394 -0.1852  0.4292 -1.7158
    3MOL    H80  924   3.019   4.776   6.474 -0.2787  0.9378 -0.0849
    3MOL    H81  925   3.192   4.958   6.296 -0.8347  0.6226 -1.2762
    3MOL    H82  926   3.030   4.999   6.356 -0.2439 -0.6866  1.3404
    3MOL    H83  927   3.019   4.926   6.121  2.4159 -0.1561  0.5619
    3MOL    H84  928   3.084   4.772   6.157 -1.3184 -1.8707  0.8371
    3MOL    H85  929   2.927   4.819   6.230 -0.8443  1.2497  0.5055
    3MOL    C86  930   3.366   4.653   6.841  0.1476 -0.8652  0.5239
    3MOL    C87  931   3.492   4.659   6.927 -0.5065 -0.0583 -0.0209
    3MOL    C88  932   3.510   4.530   7.016  0.1567  0.3412  0.8359
    3MOL    C89  933   3.416   4.516   7.136  0.6387 -0.0466  0.4611
    3MOL    C90  934   3.445   4.401   7.233 -0.5934 -0.3459 -0.1097
    3MOL    C91  935   3.372   4.426   7.362  0.1415  0.0452 -0.0253
    3MOL    C92  936   3.408   4.322   7.469 -0.3964  0.0425  0.0643
    3MOL    H93  937   3.283   4.610   6.897 -2.6443  2.3859 -0.9707
    3MOL    H94  938   3.392   4.590   6.756 -0.4310  0.9111 -1.0008
    3MOL    H95  939   3.491   4.741   6.999 -0.0717 -0.2498  0.2078
    3MOL    H96  940   3.506   4.450   6.942  0.9061  2.6182 -1.7540
    3MOL    H97  941   3.611   4.531   7.059  0.6671  0.6349 -0.3599
    3MOL    H98  942   3.424   4.611   7.188  2.0249  0.4647 -0.6512
    3MOL    H99  943   3.315   4.503   7.098  0.0909  1.7237  1.2715
    3MOL   H100  944   3.551   4.420   7.248 -0.4105 -1.0988 -0.4122
    3MOL   H101  945   3.430   4.298   7.199  0.0044  0.2776 -2.3423
    3MOL   H102  946   3.388   4.523   7.408 -1.6029  0.2941  0.0651
    3MOL   H103  947   3.264   4.427   7.348  0.2395  1.3949 -0.7441
    3MOL   H104  948   3.385   4.217   7.449  2.0871 -0.6391  0.6017
    3MOL   H105  949   3.376   4.339   7.571 -0.5949  0.7419 -0.1107
    3MOL   H106  950   3.516   4.311   7.470 -0.3431 -0.0117 -2.2225
    3MOL   C107  951   3.612   4.682   6.835  0.4250  0.2251  0.8506
    3MOL   C108  952   3.740   4.729   6.911 -0.6292  0.6184 -0.3459
    3MOL   C109  953   3.864   4.704   6.824 -0.7313 -0.2394 -0.0532
    3MOL   C110  954   3.871   4.748   6.681 -0.3156 -0.1249  0.7448
    3MOL   C111  955   4.016   4.756   6.622 -0.4469 -0.4547 -0.7230
    3MOL   C112  956   4.020   4.859   6.506 -0.0525 -0.0841  0.0986
    3MOL   C113  957   4.135   4.839   6.404 -0.2796 -0.4425  0.2045
    3MOL   H114  958   3.587   4.756   6.759 -0.1465  2.3019  2.9996
    3MOL   H115  959   3.626   4.596   6.770 -1.2086  0.8328 -0.3522
    3MOL   H116  960   3.761   4.670   7.000 -0.2365  1.2244 -0.0360
    3MOL   H117  961   3.883   4.597   6.820 -0.2404 -0.1747  0.5070
    3MOL   H118  962   3.945   4.751   6.880  0.9094 -2.1683 -0.6967
    3MOL   H119  963   3.800   4.698   6.615  1.7874 -1.4739 -0.5211
    3MOL   H120  964   3.829   4.849   6.684  0.7270  0.2979  1.7656
    3MOL   H121  965   4.040   4.654   6.594 -1.8521 -0.6300 -1.3509
    3MOL   H122  966   4.085   4.796   6.697 -0.1577  3.9323 -3.1752
    3MOL   H123  967   3.928   4.858   6.448 -1.1660  1.6961  1.7464
    3MOL   H124  968   4.022   4.954   6.560 -0.5838  0.6147 -1.0823
    3MOL   H125  969   4.224   4.891   6.438 -1.0936 -0.5123  2.5110
    3MOL   H126  970   4.157   4.735   6.382 -0.6059 -0.7330  1.2653
    3MOL   H127  971   4.108   4.890   6.311  1.2573  2.2642  1.1829
    3MOL   C128  972   3.726   4.874   6.956  0.1427  0.0774 -0.3573
    3MOL   C129  973   3.832   4.933   7.059  0.6049  0.0122 -0.0096
    3MOL   C130  974   3.851   4.841   7.182 -0.2809  1.2403 -0.1584
    3MOL   C131  975   3.736   4.823   7.279 -0.3545  0.0368 -0.2386
    3MOL   C132  976   3.774   4.730   7.398  0.2440 -0.0085  0.3845
    3MOL   C133  977   3.867   4.794   7.502 -0.2771  0.1741  0.2618
    3MOL   C134  978   3.857   4.733   7.640  0.6205 -0.2261 -0.2772
    3MOL   H135  979   3.727   4.932   6.864  1.7275 -2.3851 -1.9699
    3MOL   H136  980   3.625   4.884   6.994 -0.3136  0.6815 -1.7029
    3MOL   H137  981   3.928   4.947   7.009  0.5662  0.8875  0.1596
    3MOL   H138  982   3.945   4.871   7.228  0.2081  2.2027 -1.7441
    3MOL   H139  983   3.871   4.737   7.154  0.2257  1.2113  0.3137
    3MOL   H140  984   3.646   4.784   7.231  0.1486 -1.0401 -0.3228
    3MOL   H141  985   3.695   4.916   7.318 -1.7505 -0.1554 -1.1923
    3MOL   H142  986   3.824   4.640   7.362  2.1273  0.9922  0.4179
    3MOL   H143  987   3.676   4.707   7.439 -1.3136  0.6639 -2.7727
    3MOL   H144  988   3.823   4.892   7.518 -0.8537  0.0045 -0.2462
    3MOL   H145  989   3.972   4.789   7.470 -0.1914 -0.2003  0.5895
    3MOL   H146  990   3.919   4.643   7.648  0.1783 -0.5703 -0.6549
    3MOL   H147  991   3.755   4.717   7.675  0.8928 -0.5534  0.3771
    3MOL   H148  992   3.899   4.803   7.712 -0.9089  0.8598 -0.4255
    3MOL   C149  993   3.783   5.078   7.095  0.4454 -0.2502 -0.2673
    3MOL   C150  994   3.870   5.154   7.196 -0.2023  0.2713  0.1506
    3MOL   C151  995   3.783   5.266   7.260  0.4912 -0.6802 -0.0028
    3MOL   C152  996   3.738   5.385   7.177 -0.1192 -0.1887  0.1461
    3MOL   C153  997   3.619   5.470   7.224 -0.2366  0.2974 -0.5940
    3MOL   C154  998   3.578   5.587   7.135 -0.0400  0.0237  0.7761
    3MOL   C155  999   3.511   5.531   7.005  0.3075  0.2429  0.1871
    3MOL   H156 1000   3.774   5.146   7.011  1.3082  0.9046  0.5764
    3MOL   H157 1001   3.684   5.067   7.141 -0.5242  0.5241 -2.1167
    3MOL   H158 1002   3.901   5.082   7.272  1.4005  1.6446  0.8305
    3MOL   H159 1003   3.693   5.217   7.296  1.4044 -1.0310  1.9029
    3MOL   H160 1004   3.831   5.320   7.342  1.9779 -1.0575 -0.6176
    3MOL   H161 1005   3.697   5.352   7.081 -4.4038  1.4549  1.3385
    3MOL   H162 1006   3.825   5.449   7.157  0.9266 -0.9514  2.1456
    3MOL   H163 1007   3.634   5.501   7.327 -0.5548  1.3546 -0.8552
    3MOL   H164 1008   3.533   5.411   7.255  0.9829 -0.8499  0.6581
    3MOL   H165 1009   3.665   5.646   7.107  0.9197 -1.0339  1.4524
    3MOL   H166 1010   3.507   5.659   7.175  2.3261  1.5310  2.3910
    3MOL   H167 1011   3.474   5.614   6.944  0.9004  0.9024  0.7190
    3MOL   H168 1012   3.419   5.477   7.028 -0.3514  0.2492 -2.3147
    3MOL   H169 1013   3.577   5.468   6.945  0.4592  1.2049 -0.6588
    3MOL   C170 1014   4.008   5.201   7.142  0.0633  0.5232  0.6588
    3MOL   C171 1015   4.100   5.270   7.254  0.0188 -0.6655 -0.8199
    3MOL   C172 1016   4.139   5.171   7.368 -0.3741 -0.4374 -0.3009
    3MOL   C173 1017   4.214   5.041   7.318  0.3784  0.2362 -0.0110
    3MOL   C174 1018   4.254   4.944   7.436 -0.4935 -0.1705  1.1137
    3MOL   C175 1019   4.340   4.822   7.402  0.1676  0.1702  0.4045
    3MOL   C176 1020   4.261   4.712   7.329  0.5698  0.2509 -0.2942
    3MOL   H177 1021   3.978   5.276   7.069  2.5956  1.1335  0.1788
    3MOL   H178 1022   4.052   5.122   7.081  0.9004  2.0718 -0.7749
    3MOL   H179 1023   4.042   5.353   7.293 -0.1813 -0.8087 -0.8125
    3MOL   H180 1024   4.053   5.138   7.427  0.4062 -0.6405  0.7474
    3MOL   H181 1025   4.208   5.217   7.439  0.1105 -0.8784 -0.4910
    3MOL   H182 1026   4.305   5.074   7.268  0.2638  0.4369 -0.0849
    3MOL   H183 1027   4.160   4.988   7.240  0.6061 -0.3309  0.2161
    3MOL   H184 1028   4.168   4.911   7.495  0.3200 -0.6196  2.0601
    3MOL   H185 1029   4.315   4.998   7.509  0.9172 -0.5669  0.2487
    3MOL   H186 1030   4.376   4.775   7.493 -0.8244 -0.5163  0.4510
    3MOL   H187 1031   4.426   4.853   7.343  1.2899 -0.8859  1.4656
    3MOL   H188 1032   4.325   4.627   7.306 -1.4123 -1.4468  0.3545
    3MOL   H189 1033   4.220   4.741   7.232 -1.3292 -0.1902  0.3522
    3MOL   H190 1034   4.183   4.676   7.396  1.7441 -0.7983  0.5284
    3MOL   C191 1035   4.225   5.336   7.197  0.3118 -0.2866 -0.0642
    3MOL   C192 1036   4.217   5.472   7.123  0.6828 -0.0985 -0.4518
    3MOL   C193 1037   4.153   5.586   7.209  0.0918  0.1278  0.8284
    3MOL   C194 1038   4.219   5.614   7.343 -0.4317  1.2486  0.0124
    3MOL   C195 1039   4.169   5.746   7.402 -0.3525 -1.1618 -0.4960
    3MOL   C196 1040   4.256   5.799   7.507 -0.4144  0.9028  0.3529
    3MOL   C197 1041   4.195   5.915   7.589  0.5219  0.4895 -0.7096
    3MOL   H198 1042   4.272   5.263   7.132  1.1757  1.2679 -1.2204
    3MOL   H199 1043   4.295   5.353   7.280 -0.1134 -2.9217  0.8730
    3MOL   H200 1044   4.144   5.446   7.047 -1.0017 -0.9585  1.4319
    3MOL   H201 1045   4.047   5.562   7.214 -0.3068  0.8542 -2.6778
    3MOL   H202 1046   4.174   5.675   7.149  0.3731  0.2162  1.0531
    3MOL   H203 1047   4.327   5.627   7.337 -0.2317 -0.4024 -0.1796
    3MOL   H204 1048   4.206   5.536   7.417  0.5643  2.8577  1.9479
    3MOL   H205 1049   4.189   5.829   7.334  0.2259  0.6170  1.7741
    3MOL   H206 1050   4.062   5.743   7.426 -0.1353 -0.4721  0.5812
    3MOL   H207 1051   4.352   5.833   7.467  0.4294 -1.6406  0.1258
    3MOL   H208 1052   4.282   5.718   7.575  0.4277  0.8320 -0.0410
    3MOL   H209 1053   4.110   5.886   7.650  0.1190 -1.2612 -2.0450
    3MOL   H210 1054   4.147   5.986   7.521 -3.4618  0.2703  1.7231
    3MOL   H211 1055   4.276   5.958   7.647  0.6966  0.9524 -1.2820
    3MOL   C212 1056   4.356   5.505   7.058  0.0894 -0.2179  0.6036
    3MOL   C213 1057   4.415   5.406   6.954  0.2180 -0.0693 -0.7811
    3MOL   C214 1058   4.322   5.337   6.852  0.7569  0.7482  0.2770
    3MOL   C215 1059   4.365   5.196   6.819  0.5949  0.1677 -0.3038
    3MOL   C216 1060   4.344   5.094   6.931 -0.8430 -0.5881 -0.4269
    3MOL   C217 1061   4.380   4.950   6.888 -0.2381 -0.6259 -0.0729
    3MOL   C218 1062   4.424   4.859   7.001 -0.0439  0.5505  0.0414
    3MOL   H219 1063   4.431   5.503   7.136 -0.9948  2.2407  1.7540
    3MOL   H220 1064   4.357   5.606   7.016  1.1183 -0.1792  0.7157
    3MOL   H221 1065   4.464   5.327   7.012  1.9121  2.1681  0.9128
    3MOL   H222 1066   4.222   5.334   6.894  0.7352  1.5777  0.2859
    3MOL   H223 1067   4.313   5.399   6.763  0.5981  1.9632  1.1352
    3MOL   H224 1068   4.468   5.203   6.783 -0.1411  1.4328 -2.2803
    3MOL   H225 1069   4.316   5.170   6.725  0.4754  1.0182 -0.4813
    3MOL   H226 1070   4.416   5.116   7.011 -1.7974  3.9440 -0.6967
    3MOL   H227 1071   4.243   5.100   6.971 -0.7173  0.5086 -0.2641
    3MOL   H228 1072   4.294   4.917   6.830  0.3670  1.5412 -2.2821
    3MOL   H229 1073   4.462   4.952   6.816 -0.3750  3.0264 -0.2092
    3MOL   H230 1074   4.441   4.759   6.960  1.0940  0.2078  1.3158
    3MOL   H231 1075   4.334   4.853   7.062 -0.4298 -0.6459 -0.6300
    3MOL   H232 1076   4.507   4.892   7.063 -1.0485  1.6984  0.7921
    3MOL   C233 1077   4.525   5.473   6.878  0.3209  0.4388 -0.3203
    3MOL   C234 1078   4.666   5.484   6.948 -0.3731 -0.1391  0.2471
    3MOL   C235 1079   4.762   5.361   6.927  0.0298 -0.2148  0.3531
    3MOL   C236 1080   4.717   5.225   6.983  0.2429 -0.3735  0.7296
    3MOL   C237 1081   4.834   5.130   6.986  0.7223 -0.0069  0.4455
    3MOL   C238 1082   4.784   4.991   7.050  0.2100  0.4422 -0.1892
    3MOL   C239 1083   4.896   4.916   7.131 -0.1243 -0.1333  0.0593
    3MOL   H240 1084   4.479   5.565   6.842  0.2074  0.1562 -0.9079
    3MOL   H241 1085   4.544   5.413   6.789 -0.7300  1.0499 -0.9658
    3MOL   H242 1086   4.643   5.498   7.054 -1.5622  0.7786 -0.1304
    3MOL   H243 1087   4.850   5.393   6.983 -0.4744  0.9069  0.5338
    3MOL   H244 1088   4.796   5.357   6.824  0.4593 -0.0523  0.4852
    3MOL   H245 1089   4.649   5.177   6.913 -0.2311  3.6199 -1.7412
    3MOL   H246 1090   4.670   5.239   7.080 -1.9765 -0.3910 -0.3023
    3MOL   H247 1091   4.914   5.179   7.040  1.5613  1.4885 -2.1018
    3MOL   H248 1092   4.865   5.104   6.885  1.1126 -1.8059  0.9967
    3MOL   H249 1093   4.704   5.019   7.118 -0.8549 -0.5354 -1.0297
    3MOL   H250 1094   4.751   4.927   6.969  1.2793  0.1764 -0.4296
    3MOL   H251 1095   4.878   4.815   7.167  1.2094 -0.0300  1.0609
    3MOL   H252 1096   4.993   4.922   7.080  1.1992 -2.1869  2.2738
    3MOL   H253 1097   4.917   4.963   7.227  1.6174 -1.7728  0.5055
    3MOL   C254 1098   4.728   5.613   6.890 -0.0651  0.3689 -0.3890
    3MOL   C255 1099   4.727   5.745   6.978 -0.1801  0.3459  0.2975
    3MOL   C256 1100   4.644   5.867   6.925  0.0802 -0.6197  0.2074
    3MOL   C257 1101   4.604   5.985   7.016  0.3130  0.4925 -0.1965
    3MOL   C258 1102   4.473   5.952   7.097 -0.0143  0.3545 -0.5902
    3MOL   C259 1103   4.442   6.063   7.195 -0.6327 -0.5147 -0.8753
    3MOL   C260 1104   4.408   6.192   7.120  0.3616 -0.3597 -0.4650
    3MOL   H261 1105   4.696   5.628   6.787 -3.0683 -0.8652  0.3198
    3MOL   H262 1106   4.831   5.587   6.867  0.7118  1.8423  1.2733
    3MOL   H263 1107   4.684   5.704   7.069 -1.3476 -0.1286 -0.4510
    3MOL   H264 1108   4.545   5.840   6.890 -0.0148 -2.2249  1.6560
    3MOL   H265 1109   4.692   5.909   6.836 -0.7485  0.8135  0.4148
    3MOL   H266 1110   4.675   6.001   7.098  0.6516  0.5268 -0.4965
    3MOL   H267 1111   4.602   6.075   6.954  2.4819  0.9232  0.2900
    3MOL   H268 1112   4.482   5.864   7.160 -0.6887  1.1678  0.6482
    3MOL   H269 1113   4.386   5.936   7.032  0.5630  1.1179 -1.5712
    3MOL   H270 1114   4.358   6.039   7.261  0.1821 -1.0071 -0.0116
    3MOL   H271 1115   4.526   6.085   7.261 -0.0803 -0.1023 -1.7077
    3MOL   H272 1116   4.328   6.184   7.046  0.8885 -1.1488 -0.9581
    3MOL   H273 1117   4.378   6.268   7.192  0.8951  0.3598 -0.9850
    3MOL   H274 1118   4.496   6.229   7.066  0.0426 -0.9960 -1.4405
    3MOL   C275 1119   4.865   5.793   7.007  0.1068 -0.3592 -0.2681
    3MOL   C276 1120   4.939   5.735   7.129  0.2151 -0.3810  0.1253
    3MOL   C277 1121   4.877   5.784   7.270 -0.0877 -0.6873  0.1168
    3MOL   C278 1122   4.769   5.695   7.329  0.2205 -0.3592  0.5864
    3MOL   C279 1123   4.741   5.727   7.477 -1.0553  0.1522  0.2077
    3MOL   C280 1124   4.628   5.638   7.533  0.0914  0.0096 -0.1045
    3MOL   C281 1125   4.636   5.651   7.683  0.4936 -0.9892  0.3371
    3MOL   H282 1126   4.876   5.901   7.012 -0.9024 -0.2117 -1.0490
    3MOL   H283 1127   4.923   5.759   6.921  0.0527  1.4517 -1.0450
    3MOL   H284 1128   4.914   5.629   7.136 -1.0257 -0.0803  0.3683
    3MOL   H285 1129   4.948   5.804   7.350 -1.9138 -0.6168  1.7444
    3MOL   H286 1130   4.828   5.879   7.248 -0.6627 -1.3721 -1.6782
    3MOL   H287 1131   4.809   5.595   7.316  2.7625  0.8378 -1.1776
    3MOL   H288 1132   4.674   5.705   7.277 -0.3955  0.3204  1.8062
    3MOL   H289 1133   4.711   5.831   7.485  0.3115  0.6304 -0.7423
    3MOL   H290 1134   4.835   5.721   7.531 -0.6756 -0.3109 -0.4848
    3MOL   H291 1135   4.534   5.669   7.490 -0.2806  0.3115  0.9168
    3MOL   H292 1136   4.626   5.534   7.500  1.9913  0.2504 -1.0806
    3MOL   H293 1137   4.719   5.591   0.007  0.2107 -1.4052  0.2929
    3MOL   H294 1138   4.546   5.604   0.010 -1.0681  1.9008  0.3826
    3MOL   H295 1139   4.641   5.754   0.005 -2.5650 -1.1850  1.5067
    3MOL   C296 1140   5.091   5.743   7.121 -0.2951  0.4365 -0.1131
    3MOL   C297 1141   5.153   5.642   7.219 -0.5531 -0.1450 -0.5597
    3MOL   C298 1142   5.281   5.698   7.287  0.3616  0.1450 -0.0739
    3MOL   C299 1143   5.266   5.834   7.361  0.0287  0.2257  0.2383
    3MOL   C300 1144   5.372   5.861   7.463  0.7932 -0.1638  0.4704
    3MOL   C301 1145   5.357   6.001   7.523  0.0612 -0.2169  0.1697
    3MOL   C302 1146   5.449   6.028   7.639  0.1943  0.3324  0.2280
    3MOL   H303 1147   5.129   5.719   7.022 -2.1806  2.0787 -1.2699
    3MOL   H304 1148   5.120   5.848   7.131  1.4093 -0.1020  0.9278
    3MOL   H305 1149   5.080   5.634   7.299  0.5730  0.6648  0.5620
    3MOL   H306 1150   5.307   5.631   7.370 -0.5675  0.6948  0.6740
    3MOL   H307 1151   5.369   5.708   7.224  0.6110 -0.3920  0.1820
    3MOL   H308 1152   5.165   5.840   7.400  0.3642  1.0907  1.0081
    3MOL   H309 1153   5.265   5.915   7.287  0.1776  0.9028  0.9628
    3MOL   H310 1154   5.471   5.846   7.420  0.6829 -2.9508  1.0902
    3MOL   H311 1155   5.346   5.794   7.544 -0.5757 -1.6655 -1.1533
    3MOL   H312 1156   5.368   6.080   7.448  0.5670 -0.4791 -0.0320
    3MOL   H313 1157   5.255   6.014   7.559 -0.1225 -0.4984 -0.2477
    3MOL   H314 1158   5.416   5.946   7.703 -0.2530  1.9011  2.0672
    3MOL   H315 1159   5.555   6.034   7.614  0.2531 -0.0900  0.3646
    3MOL   H316 1160   5.419   6.119   7.691  3.7176  1.7076 -0.0552
    3MOL   C317 1161   5.174   5.500   7.154 -0.6435 -0.2413  0.3864
    3MOL   C318 1162   5.205   5.382   7.251  0.3257  0.2532  0.4628
    3MOL   C319 1163   5.096   5.366   7.359  0.2667 -0.1478 -0.0341
    3MOL   C320 1164   4.950   5.320   7.306 -0.0044  0.6499 -0.2290
    3MOL   C321 1165   4.860   5.285   7.420  0.2783  0.4509 -0.2369
    3MOL   C322 1166   4.726   5.229   7.362  0.2401 -0.5384 -0.2637
    3MOL   C323 1167   4.623   5.188   7.467  0.5766 -0.0650 -0.1771
    3MOL   H324 1168   5.262   5.507   7.089 -0.4830  1.8956  0.8015
    3MOL   H325 1169   5.084   5.474   7.098 -0.8817  2.8801 -0.8240
    3MOL   H326 1170   5.293   5.415   7.306  1.3050 -0.3859 -0.6884
    3MOL   H327 1171   5.088   5.457   7.418 -1.5721 -1.4035  1.7213
    3MOL   H328 1172   5.121   5.298   7.439  0.3019 -1.8822 -1.4849
    3MOL   H329 1173   4.976   5.226   7.257  1.3999  0.4771  0.8146
    3MOL   H330 1174   4.901   5.386   7.235 -1.8255  1.2124  1.5037
    3MOL   H331 1175   4.828   5.366   7.485  0.5074  1.2151 -1.0718
    3MOL   H332 1176   4.915   5.217   7.485  1.0259  0.3770 -0.9400
    3MOL   H333 1177   4.742   5.149   7.289  0.1945  0.1704 -1.0455
    3MOL   H334 1178   4.676   5.310   7.310  0.5977  0.7256  1.3243
    3MOL   H335 1179   4.526   5.164   7.424  0.1485 -0.5907  1.0597
    3MOL   H336 1180   4.600   5.262   7.544 -1.6974 -0.5934 -0.3084
    3MOL   H337 1181   4.665   5.104   7.521 -1.2084  0.3028  1.8869
    3MOL   C338 1182   5.257   5.250   7.182 -0.1130 -0.4349 -0.1643
    3MOL   C339 1183   5.393   5.256   7.109  0.6646  0.3554 -0.0968
    3MOL   C340 1184   5.400   5.168   6.979 -0.0976 -0.6143 -0.2707
    3MOL   C341 1185   5.297   5.212   6.869  0.8642 -0.3188 -0.1776
    3MOL   C342 1186   5.365   5.226   6.735  0.4667  0.2444  0.0973
    3MOL   C343 1187   5.280   5.283   6.621  0.2189  0.1646 -0.4888
    3MOL   C344 1188   5.354   5.285   6.492 -0.1337  0.2572 -0.5350
    3MOL   H345 1189   5.169   5.226   7.121  0.1908 -1.2778 -0.2807
    3MOL   H346 1190   5.260   5.165   7.250  0.0937 -0.1039  0.2395
    3MOL   H347 1191   5.401   5.363   7.087 -0.4052  0.7912  1.5215
    3MOL   H348 1192   5.506   5.166   6.957  0.2694  0.6462  1.3066
    3MOL   H349 1193   5.373   5.066   7.007 -1.3882  0.5075  2.8070
    3MOL   H350 1194   5.238   5.300   6.891 -2.1218 -2.3973  0.4485
    3MOL   H351 1195   5.224   5.131   6.865  0.2902  0.2369 -0.9210
    3MOL   H352 1196   5.449   5.294   6.749  0.2296  0.5447  0.0734
    3MOL   H353 1197   5.399   5.125   6.716 -0.5772 -0.5625  2.3294
    3MOL   H354 1198   5.198   5.212   6.611 -0.4897  0.5414  2.2985
    3MOL   H355 1199   5.236   5.377   6.652  0.5470 -0.3609  1.6667
    3MOL   H356 1200   5.289   5.340   6.424 -1.1395  2.1663  1.8714
    3MOL   H357 1201   5.382   5.187   6.455 -0.9318 -1.0299  2.1898
    3MOL   H358 1202   5.442   5.349   6.493 -0.7545  1.1282 -0.3764
    3MOL   C359 1203   5.512   5.219   7.203 -0.3315 -0.1649  0.0591
    3MOL   C360 1204   5.647   5.288   7.186  0.0981  0.6235  0.8355
    3MOL   C361 1205   5.653   5.433   7.247  0.1057 -0.8350  0.0635
    3MOL   C362 1206   5.766   5.518   7.176  0.3182 -0.0709 -0.2280
    3MOL   C363 1207   5.793   5.658   7.244 -0.4117  0.9751  0.2638
    3MOL   C364 1208   5.674   5.743   7.244  0.2359  0.1052  0.1757
    3MOL   C365 1209   5.701   5.877   7.312 -1.2784  0.1743 -0.1681
    3MOL   H366 1210   5.536   5.114   7.191 -0.0899 -0.1495  0.4112
    3MOL   H367 1211   5.489   5.241   7.307  1.3545 -1.4969  0.7275
    3MOL   H368 1212   5.673   5.285   7.080  1.1213 -1.1072  1.1142
    3MOL   H369 1213   5.557   5.476   7.220  0.3326 -1.0121 -1.0409
    3MOL   H370 1214   5.651   5.436   7.356 -1.8894  0.4219  0.0193
    3MOL   H371 1215   5.857   5.458   7.181  0.4159  0.0142 -0.9070
    3MOL   H372 1216   5.745   5.538   7.071 -0.9057 -1.0104 -0.1744
    3MOL   H373 1217   5.804   5.638   7.350  1.9680 -0.0995 -0.1431
    3MOL   H374 1218   5.875   5.715   7.199 -0.6877 -0.7271 -2.5572
    3MOL   H375 1219   5.647   5.760   7.140  0.7409 -0.9495 -0.1342
    3MOL   H376 1220   5.587   5.690   7.281  1.8227 -2.3884  0.4697
    3MOL   H377 1221   5.615   5.943   7.299  0.9447  3.0263 -1.0148
    3MOL   H378 1222   5.717   5.866   7.420 -1.1896 -0.4614 -0.2458
    3MOL   H379 1223   5.781   5.941   7.275 -0.8060  0.7938  1.8355
    3MOL   C380 1224   5.764   5.206   7.258 -0.3900 -0.4513 -0.4768
    3MOL   C381 1225   5.808   5.069   7.211 -0.2190 -0.6854 -0.3854
    3MOL   C382 1226   5.830   5.064   7.060  0.2777  0.7774 -0.3734
    3MOL   C383 1227   5.944   5.151   7.000 -0.2242  0.8900 -0.3916
    3MOL   C384 1228   5.947   5.136   6.847  0.2772 -0.2006 -0.2380
    3MOL   C385 1229   5.826   5.167   6.760 -0.7077 -0.6915  0.1981
    3MOL   C386 1230   5.794   5.316   6.766 -0.2054 -0.1046 -0.3248
    3MOL   H387 1231   5.850   5.269   7.281 -1.3855  1.0070 -0.6560
    3MOL   H388 1232   5.729   5.186   7.359  2.5876 -1.0983  0.4667
    3MOL   H389 1233   5.726   5.000   7.230 -0.5190 -0.2727 -0.1826
    3MOL   H390 1234   5.739   5.085   7.004 -0.5818  0.5147  0.8826
    3MOL   H391 1235   5.857   4.960   7.043 -1.8795  0.4784 -2.2873
    3MOL   H392 1236   5.921   5.256   7.019  1.2771  1.5379 -1.9531
    3MOL   H393 1237   6.036   5.136   7.056 -0.6059 -0.2678 -0.0704
    3MOL   H394 1238   6.036   5.186   6.806  0.1481  1.2364  1.1683
    3MOL   H395 1239   5.959   5.030   6.824 -2.5059 -0.7328  0.6781
    3MOL   H396 1240   5.744   5.102   6.790 -0.9516  0.2787  1.7542
    3MOL   H397 1241   5.833   5.150   6.653  0.7166  0.9293  0.0075
    3MOL   H398 1242   5.693   5.324   6.724 -0.4239 -0.0671  0.2009
    3MOL   H399 1243   5.868   5.380   6.718 -0.2442  2.7605  3.2048
    3MOL   H400 1244   5.796   5.354   6.868  1.4316 -0.2894 -0.2805
    3MOL   C401 1245   5.926   5.011   7.295  0.3977 -0.3656  0.4173
    3MOL   C402 1246   5.902   4.983   7.441  0.8859  0.3274  0.0936
    3MOL   C403 1247   6.014   4.891   7.497  0.7152 -0.3030  1.5085
    3MOL   C404 1248   5.999   4.861   7.653 -0.6684 -0.0312 -0.1116
    3MOL   C405 1249   6.085   4.733   7.681 -0.2202 -0.4260  0.2962
    3MOL   C406 1250   6.107   4.709   0.116 -0.1982 -1.0707  0.2626
    3MOL   C407 1251   6.198   4.593   0.159  0.0536 -0.4596  0.4798
    3MOL   H408 1252   6.016   5.071   7.283 -0.2162  0.2249 -1.4970
    3MOL   H409 1253   5.953   4.915   7.251  0.0211 -0.8997  1.3570
    3MOL   H410 1254   5.807   4.929   7.445  1.2386 -0.2189  1.2961
    3MOL   H411 1255   6.111   4.921   7.458 -0.4064  0.8373 -0.4736
    3MOL   H412 1256   6.006   4.797   7.441 -2.8310  0.7640  0.0747
    3MOL   H413 1257   5.893   4.852   7.672 -0.6237 -0.0819  0.1132
    3MOL   H414 1258   6.055   4.942   7.701  0.6064 -0.3481 -1.0188
    3MOL   H415 1259   6.049   4.640   7.637 -0.5012 -0.4592  0.5936
    3MOL   H416 1260   6.181   4.740   7.631  0.4235 -1.6379  1.3406
    3MOL   H417 1261   6.151   4.796   0.164 -0.0212 -1.9858  1.8011
    3MOL   H418 1262   6.008   4.685   0.156 -0.5956  0.6118  0.3032
    3MOL   H419 1263   6.189   4.583   0.267 -0.9721 -0.0999  0.4273
    3MOL   H420 1264   6.303   4.613   0.137  0.6441  0.2599  3.6302
    3MOL   H421 1265   6.158   4.498   0.125  0.1849  0.2995 -1.9276
    3MOL   H422 1266   5.878   5.069   7.503  1.2796  0.2569  0.3489
    4MOL     C1 1267   3.996   1.099   0.039  0.1968  0.4678 -0.4384
    4MOL     C2 1268   4.108   1.064   0.128 -0.0032  0.1199  0.4463
    4MOL     C3 1269   4.081   0.933   0.207 -0.0487  0.3013  0.2218
    4MOL     C4 1270   3.955   0.925   0.290 -0.6616 -0.3231 -0.2783
    4MOL     C5 1271   3.925   0.789   0.353 -0.5750  0.1201 -0.1672
    4MOL     C6 1272   3.787   0.788   0.426  0.1065  0.5410  0.4385
    4MOL     C7 1273   3.774   0.648   0.495  1.2533  0.3186 -0.3201
    4MOL     H8 1274   3.961   1.011   7.698 -0.6688  0.6122 -0.1294
    4MOL     H9 1275   4.015   1.177   7.679  2.8114  0.2307 -0.0651
    4MOL    H10 1276   4.193   1.037   0.064 -0.3987  1.2261 -0.5637
    4MOL    H11 1277   4.076   0.854   0.133 -1.9897 -0.3067  0.9787
    4MOL    H12 1278   4.167   0.913   0.271  1.1800 -1.5642 -1.9472
    4MOL    H13 1279   3.971   0.995   0.372 -1.5832 -0.4166 -0.0091
    4MOL    H14 1280   3.872   0.967   0.233 -0.2603  0.8714  0.0072
    4MOL    H15 1281   4.004   0.767   0.425 -0.0984 -0.0697 -0.7446
    4MOL    H16 1282   3.937   0.706   0.284 -0.8071  0.4302 -0.5897
    4MOL    H17 1283   3.710   0.796   0.350  1.4248  0.6260 -0.9100
    4MOL    H18 1284   3.781   0.856   0.511  2.7125 -0.0293  1.1313
    4MOL    H19 1285   3.784   0.563   0.427 -0.1977  0.4584 -0.7158
    4MOL    H20 1286   3.675   0.646   0.539  0.4724  1.4093 -1.9513
    4MOL    H21 1287   3.845   0.623   0.573  0.6494 -0.4742 -0.0268
    4MOL    H22 1288   3.910   1.122   0.102 -1.0676 -0.2000 -1.9090
    4MOL    C23 1289   4.158   1.175   0.223  0.1793  0.3341 -0.0006
    4MOL    C24 1290   4.237   1.287   0.153 -0.2392 -0.6682  0.7085
    4MOL    C25 1291   4.370   1.236   0.096  0.1495  0.9805 -0.8255
    4MOL    C26 1292   4.393   1.271   7.657  0.0533  0.9707 -0.1171
    4MOL    C27 1293   4.514   1.198   7.603  0.0110  0.8136  0.9536
    4MOL    C28 1294   4.557   1.251   7.458  0.7156  0.1278 -0.0861
    4MOL    C29 1295   4.697   1.205   7.421 -0.5432  0.7823  0.0232
    4MOL    H30 1296   4.079   1.207   0.290  2.9187  1.8350  2.6730
    4MOL    H31 1297   4.224   1.129   0.297 -0.7345 -1.8943 -0.5426
    4MOL    H32 1298   4.186   1.321   0.063  0.3650 -2.3251 -0.2961
    4MOL    H33 1299   4.382   1.128   0.101 -0.1091  0.9477 -0.9365
    4MOL    H34 1300   4.454   1.278   0.152  1.3820 -2.4209  0.0200
    4MOL    H35 1301   4.413   1.378   7.657  1.1069  0.7795 -0.6021
    4MOL    H36 1302   4.305   1.253   7.595 -0.9916 -0.3948  1.7037
    4MOL    H37 1303   4.489   1.092   7.598  0.6716  0.6099  1.9373
    4MOL    H38 1304   4.582   1.220   7.685  0.4852  0.7002  0.5963
    4MOL    H39 1305   4.553   1.359   7.459 -0.8509  0.0690  0.3567
    4MOL    H40 1306   4.485   1.226   7.380  1.0995 -0.4729 -0.2522
    4MOL    H41 1307   4.698   1.098   7.401  3.9646  0.6888  0.3348
    4MOL    H42 1308   4.731   1.254   7.329 -1.3643 -0.3023 -0.8771
    4MOL    H43 1309   4.771   1.229   7.497  2.8800 -1.5624 -2.4151
    4MOL    C44 1310   4.258   1.400   0.253  0.4985 -0.3503  1.0640
    4MOL    C45 1311   4.332   1.529   0.209 -0.5679 -1.0053  0.4141
    4MOL    C46 1312   4.251   1.602   0.103  0.3765  0.7436  0.6798
    4MOL    C47 1313   4.332   1.716   0.047  0.0499  0.3220  0.6009
    4MOL    C48 1314   4.258   1.785   7.642  1.0543 -0.5778 -0.0298
    4MOL    C49 1315   4.321   1.910   7.586 -0.6107 -0.3562 -0.0119
    4MOL    C50 1316   4.305   2.038   7.672 -1.1808 -0.0915 -0.0148
    4MOL    H51 1317   4.312   1.347   0.331 -0.4319 -2.4839  0.2769
    4MOL    H52 1318   4.165   1.439   0.295 -0.6838 -1.5032 -0.4217
    4MOL    H53 1319   4.432   1.503   0.172 -0.9740 -1.3476 -0.4577
    4MOL    H54 1320   4.159   1.642   0.145  0.7337  0.8005  1.4143
    4MOL    H55 1321   4.211   1.538   0.024 -0.0338  0.3795  1.1755
    4MOL    H56 1322   4.356   1.790   0.123  0.1290  0.2093  0.6852
    4MOL    H57 1323   4.432   1.685   0.019  0.0072  0.9409 -0.2509
    4MOL    H58 1324   4.154   1.810   7.663  0.6104 -1.2696 -1.3588
    4MOL    H59 1325   4.243   1.712   7.562 -2.1593 -0.1102  0.0745
    4MOL    H60 1326   4.282   1.928   7.486 -0.6433 -1.1468 -0.1378
    4MOL    H61 1327   4.429   1.901   7.576 -0.2865  0.7874  2.0479
    4MOL    H62 1328   4.354   2.032   0.056  1.5909  0.4580 -1.3190
    4MOL    H63 1329   4.199   2.060   7.687 -1.0923 -0.0344  0.5315
    4MOL    H64 1330   4.334   2.128   7.618  1.2469  0.1377  1.5793
    4MOL    C65 1331   4.350   1.620   0.336 -0.4482 -0.2638 -0.0786
    4MOL    C66 1332   4.431   1.551   0.451  0.2385  0.0470 -0.3396
    4MOL    C67 1333   4.403   1.635   0.582  0.1437  0.2776 -0.4645
    4MOL    C68 1334   4.257   1.607   0.632 -0.1226  0.5856  0.1472
    4MOL    C69 1335   4.250   1.687   0.766  0.4391  0.4448 -0.0093
    4MOL    C70 1336   4.137   1.656   0.867 -0.3855 -0.2329 -0.4211
    4MOL    C71 1337   4.168   1.521   0.937  0.1596 -0.2773 -1.1531
    4MOL    H72 1338   4.401   1.715   0.320 -0.1634 -0.5281 -0.7381
    4MOL    H73 1339   4.248   1.650   0.362 -0.6552 -0.3311 -0.8110
    4MOL    H74 1340   4.405   1.446   0.464 -0.2224 -0.1195 -2.4384
    4MOL    H75 1341   4.471   1.597   0.658  0.1898 -2.4530 -1.7906
    4MOL    H76 1342   4.409   1.742   0.566  4.1643  0.3123  0.9008
    4MOL    H77 1343   4.176   1.639   0.567 -0.1158 -0.0053 -0.1544
    4MOL    H78 1344   4.228   1.504   0.655 -0.4934  0.4091 -1.0929
    4MOL    H79 1345   4.342   1.677   0.825 -0.4203 -0.2636  1.2368
    4MOL    H80 1346   4.259   1.791   0.735 -0.3923  0.5583  0.1365
    4MOL    H81 1347   4.040   1.660   0.816 -1.5141 -1.7145  1.5561
    4MOL    H82 1348   4.131   1.730   0.947 -2.3670 -1.4473  0.5995
    4MOL    H83 1349   4.202   1.449   0.863  2.0701  0.5543 -1.1236
    4MOL    H84 1350   4.242   1.528   1.017 -0.7416 -0.3658 -0.3007
    4MOL    H85 1351   4.082   1.482   0.990  0.2383 -0.2178 -0.9783
    4MOL    C86 1352   4.580   1.556   0.421  0.4257 -0.7172  0.7350
    4MOL    C87 1353   4.662   1.438   0.476  0.3560  0.5497  0.6790
    4MOL    C88 1354   4.634   1.325   0.384 -0.1389  0.5750  0.5008
    4MOL    C89 1355   4.666   1.193   0.449 -1.0830 -0.3467 -0.5372
    4MOL    C90 1356   4.612   1.073   0.368 -0.0743  0.0826  0.6301
    4MOL    C91 1357   4.634   0.947   0.449 -0.0116  0.1227  0.5354
    4MOL    C92 1358   4.560   0.933   0.586 -0.5873  0.2541 -0.2627
    4MOL    H93 1359   4.599   1.558   0.314  1.0834 -2.9257  0.8002
    4MOL    H94 1360   4.613   1.655   0.455 -2.8453  0.3171  1.0650
    4MOL    H95 1361   4.643   1.417   0.581 -0.4656 -0.3776  0.3407
    4MOL    H96 1362   4.530   1.319   0.352  0.2648  1.2853 -1.0129
    4MOL    H97 1363   4.701   1.339   0.299 -0.6171  0.8557  0.1690
    4MOL    H98 1364   4.770   1.179   0.475 -1.2780 -2.4073 -0.7718
    4MOL    H99 1365   4.617   1.195   0.547  0.3179  0.4059  0.1595
    4MOL   H100 1366   4.645   1.060   0.265 -1.6564  2.2768 -0.1887
    4MOL   H101 1367   4.504   1.081   0.357  0.2172  0.5093 -2.3169
    4MOL   H102 1368   4.607   0.864   0.384  2.2472 -0.2380 -0.0100
    4MOL   H103 1369   4.740   0.940   0.476  0.1307 -2.6182 -0.5604
    4MOL   H104 1370   4.452   0.940   0.573 -0.6021 -0.9654 -0.9684
    4MOL   H105 1371   4.583   1.013   0.656  1.4121 -0.0015 -0.5894
    4MOL   H106 1372   4.591   0.840   0.635 -0.0391 -0.0056 -1.0901
    4MOL   C107 1373   4.813   1.478   0.480  0.0840  0.4360  0.1834
    4MOL   C108 1374   4.887   1.518   0.346  0.0427  0.1042  0.1367
    4MOL   C109 1375   4.994   1.629   0.369  0.3141 -0.3694 -0.1942
    4MOL   C110 1376   4.938   1.773   0.366 -0.6025 -0.2935  0.1381
    4MOL   C111 1377   5.050   1.873   0.410 -0.2863 -0.6685  0.3710
    4MOL   C112 1378   4.996   2.017   0.440 -0.3529 -1.1213  0.3258
    4MOL   C113 1379   5.100   2.114   0.488  0.1058  0.2623 -0.2880
    4MOL   H114 1380   4.865   1.399   0.535 -2.5966 -1.8037 -0.3481
    4MOL   H115 1381   4.822   1.568   0.540 -0.1645 -1.2088  2.8002
    4MOL   H116 1382   4.810   1.547   0.274 -1.2500 -2.5941  0.3872
    4MOL   H117 1383   5.075   1.625   0.296  1.4129  1.2711  0.9026
    4MOL   H118 1384   5.045   1.607   0.462  0.5667 -0.0046 -0.2455
    4MOL   H119 1385   4.921   1.803   0.262  1.3091  1.0389  0.1795
    4MOL   H120 1386   4.842   1.785   0.415 -0.7234 -1.8422  0.2879
    4MOL   H121 1387   5.125   1.879   0.331 -3.6340  1.4509 -2.8176
    4MOL   H122 1388   5.099   1.841   0.502  0.9527  2.0500  0.7137
    4MOL   H123 1389   4.959   2.057   0.345  1.5286 -1.7254 -0.6868
    4MOL   H124 1390   4.912   2.012   0.510 -0.1749 -0.7738  0.5655
    4MOL   H125 1391   5.129   2.090   0.590  1.2957 -0.5941 -0.8123
    4MOL   H126 1392   5.186   2.120   0.422 -1.8863  1.4956 -2.8637
    4MOL   H127 1393   5.051   2.209   0.508 -0.1424  0.1450 -0.3369
    4MOL   C128 1394   4.964   1.391   0.289 -0.4289  0.3318 -0.0795
    4MOL   C129 1395   5.015   1.402   0.143  0.2243 -0.3852 -0.1027
    4MOL   C130 1396   4.899   1.399   0.041 -0.0463  0.0204  0.2028
    4MOL   C131 1397   4.864   1.542   7.703 -0.0420 -0.7199  0.5198
    4MOL   C132 1398   4.753   1.536   7.589 -0.0657  0.4553 -0.2575
    4MOL   C133 1399   4.710   1.670   7.530  0.0901 -0.3459 -0.1074
    4MOL   C134 1400   4.568   1.665   7.451  0.8489 -0.2885 -0.5221
    4MOL   H135 1401   5.052   1.363   0.346  0.1805  0.6221 -0.8686
    4MOL   H136 1402   4.893   1.308   0.287 -0.6148  0.4869  0.0404
    4MOL   H137 1403   5.073   1.492   0.121  2.4294 -1.0391  2.8119
    4MOL   H138 1404   4.811   1.344   0.075 -0.6478  1.5906  1.2241
    4MOL   H139 1405   4.929   1.358   7.658  1.9910  0.7999  0.4733
    4MOL   H140 1406   4.953   1.596   7.672  0.7902 -0.6833  2.8614
    4MOL   H141 1407   4.816   1.591   0.075 -1.0441  2.6479 -1.8831
    4MOL   H142 1408   4.662   1.483   7.618 -0.0473  0.7830  0.4148
    4MOL   H143 1409   4.802   1.495   7.501  2.8832  1.8831  0.6748
    4MOL   H144 1410   4.789   1.702   7.462 -1.0018  2.1994 -0.2267
    4MOL   H145 1411   4.700   1.746   7.607  1.6032  0.0967 -0.3336
    4MOL   H146 1412   4.542   1.763   7.410  2.1379  1.4094  2.5507
    4MOL   H147 1413   4.487   1.644   7.521  0.0247  0.3804 -1.2604
    4MOL   H148 1414   4.567   1.580   7.383  0.5610 -0.9420  0.2936
    4MOL   C149 1415   5.116   1.288   0.109  0.6221 -0.6430  0.4136
    4MOL   C150 1416   5.195   1.314   7.684  0.2788  0.3742 -0.1631
    4MOL   C151 1417   5.212   1.183   7.596  0.0223  0.1896 -0.6492
    4MOL   C152 1418   5.265   1.066   7.680  0.5850  0.7962  0.6428
    4MOL   C153 1419   5.255   0.930   7.608 -0.2976  0.0208 -1.0283
    4MOL   C154 1420   5.317   0.817   7.691 -1.2851  0.2490 -0.1680
    4MOL   C155 1421   5.308   0.680   7.630 -0.1039  0.1711  0.0184
    4MOL   H156 1422   5.185   1.266   0.190  0.8804 -0.1695  0.3282
    4MOL   H157 1423   5.062   1.195   0.091  0.1961 -0.7035  1.9578
    4MOL   H158 1424   5.128   1.377   7.626 -0.7047 -0.6029 -0.1071
    4MOL   H159 1425   5.110   1.172   7.559  0.4011  0.5745 -1.8383
    4MOL   H160 1426   5.278   1.197   7.510 -2.3051  1.2094 -2.3132
    4MOL   H161 1427   5.226   1.066   0.068 -3.4532  0.7853 -0.8106
    4MOL   H162 1428   5.372   1.075   7.695  0.7210  0.3213 -0.0445
    4MOL   H163 1429   5.305   0.936   7.512  0.3944  3.2445 -0.5156
    4MOL   H164 1430   5.153   0.897   7.590 -0.7068 -0.0085  1.1220
    4MOL   H165 1431   5.274   0.825   0.077  0.2295 -0.8433  0.5823
    4MOL   H166 1432   5.422   0.841   7.709 -1.2323 -0.7146  0.7862
    4MOL   H167 1433   5.372   0.661   7.544  1.7067 -1.2674  1.6158
    4MOL   H168 1434   5.205   0.653   7.611 -1.2617  2.1865  3.0148
    4MOL   H169 1435   5.351   0.608   7.700  0.1341  0.1103 -0.1899
    4MOL   C170 1436   5.323   1.395   0.008  0.4797 -0.4444 -0.2423
    4MOL   C171 1437   5.392   1.453   7.599  0.0717 -0.0413 -0.4080
    4MOL   C172 1438   5.313   1.567   7.524 -0.3859 -0.1290 -0.3105
    4MOL   C173 1439   5.298   1.705   7.600  0.1909  0.8559 -0.4210
    4MOL   C174 1440   5.237   1.802   7.493 -0.4053 -0.0042 -0.0436
    4MOL   C175 1441   5.089   1.804   7.486  0.4949  0.4490 -0.3928
    4MOL   C176 1442   5.038   1.890   7.374 -0.1232  0.1701  0.0427
    4MOL   H177 1443   5.388   1.321   0.054 -1.1972 -0.9999  1.3183
    4MOL   H178 1444   5.301   1.479   0.074 -3.1344 -0.2877 -1.5296
    4MOL   H179 1445   5.396   1.376   7.521 -2.6963  0.4138 -1.0700
    4MOL   H180 1446   5.214   1.540   7.485 -3.3062  6.5651  1.7118
    4MOL   H181 1447   5.365   1.588   7.430  0.4520 -2.3879 -0.3803
    4MOL   H182 1448   5.390   1.737   7.649  0.4794  1.3611 -1.2739
    4MOL   H183 1449   5.223   1.690   7.677 -0.0351  0.8599 -0.6426
    4MOL   H184 1450   5.277   1.777   7.395  0.8512 -1.7403  0.8857
    4MOL   H185 1451   5.283   1.899   7.513  0.6236  0.0273 -2.3892
    4MOL   H186 1452   5.038   1.830   7.578  1.0679 -1.2203  0.4136
    4MOL   H187 1453   5.068   1.697   7.479  1.3686  0.3185 -1.1119
    4MOL   H188 1454   5.070   1.856   7.275 -1.1405 -2.0843  0.4502
    4MOL   H189 1455   5.072   1.990   7.399  0.3800 -0.4748  2.0058
    4MOL   H190 1456   4.929   1.896   7.370 -0.0866  0.1311 -1.2257
    4MOL   C191 1457   5.536   1.488   7.629 -0.0650 -0.1165 -0.2226
    4MOL   C192 1458   5.649   1.380   7.611 -0.0145  0.4512  0.4328
    4MOL   C193 1459   5.640   1.276   0.003 -0.1237 -0.7319  0.8607
    4MOL   C194 1460   5.777   1.208   0.043 -0.1224 -0.1482 -0.3848
    4MOL   C195 1461   5.760   1.134   0.178  0.7751  0.3607  0.1357
    4MOL   C196 1462   5.879   1.038   0.203  0.2306  0.2195  0.6363
    4MOL   C197 1463   5.866   0.965   0.328 -0.1527  0.1321  0.3094
    4MOL   H198 1464   5.543   1.540   0.011  2.8317 -1.7715  0.5051
    4MOL   H199 1465   5.560   1.576   7.569 -1.6397  0.2432 -0.3404
    4MOL   H200 1466   5.747   1.424   7.633  0.1376 -0.0693  0.8264
    4MOL   H201 1467   5.562   1.203   7.696  0.0599 -1.4254  2.5648
    4MOL   H202 1468   5.596   1.318   0.093 -0.3780  1.5335 -0.2652
    4MOL   H203 1469   5.862   1.276   0.047  1.1034 -1.6107 -1.0657
    4MOL   H204 1470   5.809   1.135   7.682 -1.6568 -1.2587  0.0044
    4MOL   H205 1471   5.751   1.209   0.257  1.0049 -0.3589  0.8542
    4MOL   H206 1472   5.665   1.081   0.181 -0.3488  2.3411  0.5925
    4MOL   H207 1473   5.980   1.078   0.191 -0.4955  2.0942  0.6536
    4MOL   H208 1474   5.867   0.967   0.122  1.1218 -0.6909  1.2797
    4MOL   H209 1475   5.765   0.924   0.340 -0.1211 -1.0391 -3.0872
    4MOL   H210 1476   5.899   1.020   0.417  0.2247 -1.8819  1.4360
    4MOL   H211 1477   5.937   0.883   0.329 -2.2756 -1.7594  1.0164
    4MOL   C212 1478   5.653   1.318   7.465  0.2893 -0.0299 -0.3495
    4MOL   C213 1479   5.644   1.422   7.343  0.0124  0.3273  0.5483
    4MOL   C214 1480   5.765   1.512   7.341 -0.4103  0.7444 -0.3845
    4MOL   C215 1481   5.908   1.449   7.333  0.4302  0.2868 -0.2775
    4MOL   C216 1482   6.005   1.564   7.316 -0.2362 -0.2738  0.8435
    4MOL   C217 1483   6.154   1.532   7.307  0.4908  0.4113 -0.1584
    4MOL   C218 1484   6.245   1.652   7.339  0.3539 -0.0455  0.2196
    4MOL   H219 1485   5.572   1.244   7.464  2.0428 -1.9883  0.0573
    4MOL   H220 1486   5.738   1.253   7.443 -0.3349 -1.3704  1.0696
    4MOL   H221 1487   5.560   1.491   7.346 -0.7318 -0.4883 -1.1695
    4MOL   H222 1488   5.758   1.594   7.270 -0.5066  1.0849  0.0130
    4MOL   H223 1489   5.765   1.552   7.443 -0.4670  0.3477 -0.2302
    4MOL   H224 1490   5.926   1.379   7.252 -0.6809 -0.1951 -0.1165
    4MOL   H225 1491   5.921   1.398   7.429 -1.4245  1.6080  0.7047
    4MOL   H226 1492   5.980   1.608   7.219 -0.6782 -0.7155  0.7516
    4MOL   H227 1493   6.003   1.639   7.395 -0.4846 -0.5999  1.1476
    4MOL   H228 1494   6.176   1.437   7.357  0.8537  0.3382 -0.4477
    4MOL   H229 1495   6.172   1.504   7.203 -0.2819  0.0747 -0.2004
    4MOL   H230 1496   6.215   1.737   7.279  1.0896 -0.3775 -0.6250
    4MOL   H231 1497   6.345   1.626   7.305 -0.2085 -0.9666 -0.7599
    4MOL   H232 1498   6.251   1.671   7.447 -2.9955 -2.7322  0.9627
    4MOL   C233 1499   5.642   1.344   7.207  0.0373 -0.0856  0.0205
    4MOL   C234 1500   5.506   1.331   7.137  0.5329 -0.4174 -0.3172
    4MOL   C235 1501   5.522   1.299   6.989  0.6662  0.3172  0.4169
    4MOL   C236 1502   5.591   1.170   6.951  0.3609  0.7478  0.1863
    4MOL   C237 1503   5.577   1.143   6.798  0.6196  0.0604  0.2528
    4MOL   C238 1504   5.651   1.237   6.712  0.2358  0.1870  1.0069
    4MOL   C239 1505   5.654   1.194   6.562  0.2094 -0.1914  0.3131
    4MOL   H240 1506   5.702   1.253   7.202  0.3137  0.0305  0.9687
    4MOL   H241 1507   5.696   1.407   7.136  0.6252 -1.3553 -0.6718
    4MOL   H242 1508   5.465   1.431   7.124  2.9735  0.5525 -0.8162
    4MOL   H243 1509   5.560   1.388   6.938  0.1680  0.6678  0.6538
    4MOL   H244 1510   5.420   1.293   6.951  1.0555 -1.3540 -0.3877
    4MOL   H245 1511   5.532   1.092   6.999 -0.6727 -0.3380 -2.7183
    4MOL   H246 1512   5.693   1.160   6.988 -1.0924 -0.4587  4.0986
    4MOL   H247 1513   5.473   1.123   6.770  0.6288  0.3917 -0.0346
    4MOL   H248 1514   5.618   1.045   6.776 -0.8134 -0.3287 -0.7964
    4MOL   H249 1515   5.615   1.339   6.723  1.8092  0.5557  3.0422
    4MOL   H250 1516   5.753   1.243   6.752  0.9033  1.3124 -0.7924
    4MOL   H251 1517   5.552   1.182   6.525 -0.4329 -1.5830  2.5037
    4MOL   H252 1518   5.705   1.275   6.510 -0.2994 -0.1390 -0.1132
    4MOL   H253 1519   5.716   1.110   6.531 -0.6438 -0.1542 -1.5822
    4MOL   C254 1520   5.410   1.237   7.219 -0.0187  0.1171  0.3396
    4MOL   C255 1521   5.260   1.248   7.176  0.4134  0.4960 -0.0424
    4MOL   C256 1522   5.207   1.379   7.220  0.5362 -0.3567 -1.0514
    4MOL   C257 1523   5.091   1.435   7.136  0.3412  0.3167 -0.5238
    4MOL   C258 1524   5.018   1.553   7.195 -0.0356  0.5305 -0.3210
    4MOL   C259 1525   4.891   1.577   7.115 -0.3948 -0.2532  1.0594
    4MOL   C260 1526   4.918   1.638   6.976  0.1184 -0.3130 -0.1442
    4MOL   H261 1527   5.392   1.272   7.320  0.0060  0.9450  0.0602
    4MOL   H262 1528   5.450   1.143   7.258 -1.6836 -1.3013 -1.2763
    4MOL   H263 1529   5.257   1.236   7.068  1.5359 -0.6170  0.0391
    4MOL   H264 1530   5.287   1.451   7.236  0.9109 -0.6778 -1.4795
    4MOL   H265 1531   5.180   1.373   7.325 -0.9782 -0.3318 -1.4331
    4MOL   H266 1532   5.139   1.463   7.043 -0.9513 -0.4870 -1.4503
    4MOL   H267 1533   5.018   1.356   7.117  0.7837 -0.2145 -0.0217
    4MOL   H268 1534   5.085   1.638   7.179  1.4356 -0.3250  1.1744
    4MOL   H269 1535   5.005   1.529   7.300 -0.4482  0.5628 -0.3630
    4MOL   H270 1536   4.818   1.497   7.108 -1.4563  0.7716  0.1500
    4MOL   H271 1537   4.838   1.655   7.169  1.3006  1.3699  0.4303
    4MOL   H272 1538   4.972   1.730   6.996 -0.0051 -0.6079  1.6914
    4MOL   H273 1539   4.980   1.574   6.915 -0.8882 -2.3297  0.8760
    4MOL   H274 1540   4.831   1.661   6.914 -0.3060 -1.3834  0.0320
    4MOL   C275 1541   5.172   1.126   7.223 -0.0559 -0.6290  0.4174
    4MOL   C276 1542   5.128   1.024   7.118  0.9073 -0.2965  0.1264
    4MOL   C277 1543   5.240   0.959   7.037  1.3611 -0.6098 -0.2350
    4MOL   C278 1544   5.339   0.883   7.133  0.1458 -0.2374  0.1703
    4MOL   C279 1545   5.396   0.757   7.075  0.1000 -0.0270  0.6470
    4MOL   C280 1546   5.479   0.681   7.170  0.0449  0.3976 -1.0260
    4MOL   C281 1547   5.530   0.556   7.106 -0.4335 -0.0970 -0.3109
    4MOL   H282 1548   5.080   1.163   7.269 -0.5099  0.9347 -1.6979
    4MOL   H283 1549   5.224   1.067   7.298  3.5713  0.0226 -1.4791
    4MOL   H284 1550   5.068   0.944   7.162  0.5631  0.5074  1.1344
    4MOL   H285 1551   5.213   0.885   6.962 -2.7417 -0.8978  1.4229
    4MOL   H286 1552   5.293   1.035   6.979 -0.6618 -0.2171 -1.6160
    4MOL   H287 1553   5.293   0.855   7.227 -1.2159 -0.3620 -0.5162
    4MOL   H288 1554   5.419   0.948   7.170  0.3352 -0.9206  0.9796
    4MOL   H289 1555   5.453   0.775   6.984 -0.1264 -0.1252  0.4882
    4MOL   H290 1556   5.311   0.695   7.048  0.6930 -0.3035 -0.6379
    4MOL   H291 1557   5.563   0.740   7.206 -2.5604  2.4580  2.0502
    4MOL   H292 1558   5.413   0.652   7.252 -0.6379 -0.6273 -1.9249
    4MOL   H293 1559   5.450   0.484   7.087 -0.4437  0.1055 -1.0426
    4MOL   H294 1560   5.611   0.507   7.160 -0.2357  0.4248 -0.1257
    4MOL   H295 1561   5.575   0.569   7.008  0.3671 -1.1289 -0.0864
    4MOL   C296 1562   5.024   1.100   7.020 -0.3679 -0.7468  0.2502
    4MOL   C297 1563   4.933   1.004   6.927 -0.0474  0.2832 -0.4299
    4MOL   C298 1564   4.852   1.076   6.823 -0.2821 -0.8363 -0.2998
    4MOL   C299 1565   4.943   1.120   6.697 -0.2677 -0.1647 -0.4915
    4MOL   C300 1566   4.875   1.177   6.568 -0.1104 -0.2931  0.3883
    4MOL   C301 1567   4.768   1.084   6.501  0.3230 -0.8560 -0.3644
    4MOL   C302 1568   4.816   0.942   6.456 -0.3027  0.0563 -0.3648
    4MOL   H303 1569   4.958   1.157   7.085  1.1097 -0.7154  1.7703
    4MOL   H304 1570   5.078   1.170   6.957  2.6839 -1.2937  2.1678
    4MOL   H305 1571   5.003   0.936   6.879  2.2105  1.8186  0.5764
    4MOL   H306 1572   4.785   1.003   6.776 -0.8031  0.9190 -2.4117
    4MOL   H307 1573   4.791   1.145   6.881  0.0235 -0.7665 -0.0663
    4MOL   H308 1574   4.995   1.030   6.664 -0.7218 -0.8920  0.7202
    4MOL   H309 1575   5.013   1.191   6.738 -0.5737 -0.3504  0.3742
    4MOL   H310 1576   4.951   1.196   6.491 -1.4794 -0.2456 -0.9830
    4MOL   H311 1577   4.817   1.261   6.605 -0.8842 -0.7810  0.2977
    4MOL   H312 1578   4.679   1.065   6.561 -0.9444  0.5320 -1.7674
    4MOL   H313 1579   4.733   1.140   6.415 -0.9356 -1.7314 -0.4167
    4MOL   H314 1580   4.851   0.887   6.543 -2.3400 -1.5344 -0.5193
    4MOL   H315 1581   4.749   0.878   6.399 -0.1994 -0.5149  0.1485
    4MOL   H316 1582   4.898   0.953   6.384 -0.1970  0.2281 -0.2193
    4MOL   C317 1583   4.833   0.917   7.003  0.2814 -0.0145  0.9954
    4MOL   C318 1584   4.858   0.768   6.999 -0.5097 -0.2729 -0.5171
    4MOL   C319 1585   4.791   0.697   7.111 -0.0852  0.7338  0.1101
    4MOL   C320 1586   4.852   0.706   7.246  0.0050  0.0286  0.4736
    4MOL   C321 1587   4.776   0.614   7.346 -0.0580  0.5165 -0.0584
    4MOL   C322 1588   4.624   0.660   7.357  0.1443 -0.4512 -0.8532
    4MOL   C323 1589   4.557   0.584   7.468  0.7504 -0.0547 -0.5025
    4MOL   H324 1590   4.730   0.928   6.969  0.5556  0.1647  0.2034
    4MOL   H325 1591   4.823   0.954   7.105  0.7486  1.9583  0.3475
    4MOL   H326 1592   4.967   0.764   7.009 -0.2484  3.2584 -1.3873
    4MOL   H327 1593   4.779   0.592   7.083 -0.3740  0.5306  0.9781
    4MOL   H328 1594   4.689   0.734   7.118 -0.5991 -1.0038  2.6735
    4MOL   H329 1595   4.857   0.812   7.272 -2.4934 -0.2676  2.3500
    4MOL   H330 1596   4.952   0.665   7.235 -0.0981  0.0833 -0.7564
    4MOL   H331 1597   4.819   0.609   7.446 -4.3690  0.5695  1.8977
    4MOL   H332 1598   4.788   0.519   7.294  0.9020 -0.5448  2.0648
    4MOL   H333 1599   4.567   0.641   7.267  0.2262 -0.3809 -0.9202
    4MOL   H334 1600   4.626   0.765   7.387  1.0695 -0.5673 -0.4779
    4MOL   H335 1601   4.537   0.481   7.439 -1.2564 -0.0428  0.7962
    4MOL   H336 1602   4.460   0.632   7.472  0.3124 -0.9639 -0.0721
    4MOL   H337 1603   4.609   0.577   7.564 -0.7539 -3.0009  0.1430
    4MOL   C338 1604   4.821   0.707   6.857  0.2543  0.4322 -0.2403
    4MOL   C339 1605   4.880   0.562   6.827  0.1596 -1.4035  0.5841
    4MOL   C340 1606   5.039   0.548   6.826  0.3116  1.2790  0.1625
    4MOL   C341 1607   5.107   0.664   6.746  0.3113  0.4333 -0.1189
    4MOL   C342 1608   5.250   0.639   6.711 -0.5715  0.2093 -0.0619
    4MOL   C343 1609   5.313   0.732   6.609 -0.3430 -0.2128  0.5927
    4MOL   C344 1610   5.327   0.878   6.676 -0.1882  0.7818  0.0044
    4MOL   H345 1611   4.862   0.772   6.779 -0.9660  0.0471 -1.2286
    4MOL   H346 1612   4.713   0.711   6.842  0.0889  0.5592  0.9668
    4MOL   H347 1613   4.850   0.492   6.906 -1.3227 -0.6144  0.7579
    4MOL   H348 1614   5.066   0.549   6.932  1.5511 -1.7253 -0.0873
    4MOL   H349 1615   5.072   0.449   6.797 -0.6030  0.3708  2.1208
    4MOL   H350 1616   5.095   0.763   6.791 -1.9184  0.2857 -0.3484
    4MOL   H351 1617   5.062   0.666   6.647  0.6123  0.9093 -0.2499
    4MOL   H352 1618   5.311   0.651   6.800 -1.0833  0.2957  0.2835
    4MOL   H353 1619   5.270   0.533   6.692 -0.9581 -0.0798  1.1168
    4MOL   H354 1620   5.414   0.699   6.589 -0.2188  0.2488  0.4500
    4MOL   H355 1621   5.265   0.747   6.512 -2.0151  0.5010  1.4935
    4MOL   H356 1622   5.230   0.929   6.678 -1.1712 -1.0744  1.0765
    4MOL   H357 1623   5.395   0.945   6.624  1.1965 -2.3142 -2.2935
    4MOL   H358 1624   5.367   0.866   6.777  1.2193  1.7914 -0.4283
    4MOL   C359 1625   4.818   0.501   6.696 -0.1676  0.2191  0.7096
    4MOL   C360 1626   4.671   0.447   6.727  0.0487 -0.5892 -0.0631
    4MOL   C361 1627   4.577   0.485   6.606  0.2241 -0.1911  0.3332
    4MOL   C362 1628   4.535   0.635   6.605  0.7118  0.0562  1.1252
    4MOL   C363 1629   4.435   0.670   6.495 -0.1817  0.0556 -0.3343
    4MOL   C364 1630   4.429   0.816   6.478  0.0756 -0.4413 -0.3377
    4MOL   C365 1631   4.343   0.892   6.584  0.1197  0.8206 -0.5344
    4MOL   H366 1632   4.883   0.422   6.657 -2.4015 -2.2104  1.7347
    4MOL   H367 1633   4.808   0.577   6.619 -0.5372 -0.9279 -0.4064
    4MOL   H368 1634   4.626   0.486   6.819  1.8937  1.4035  0.0414
    4MOL   H369 1635   4.629   0.450   6.518  0.1344  0.2747  0.0890
    4MOL   H370 1636   4.483   0.430   6.604  0.2538 -0.2234 -0.1798
    4MOL   H371 1637   4.495   0.661   6.703 -1.1473 -0.8626  0.6236
    4MOL   H372 1638   4.626   0.694   6.593  1.1739 -0.9175 -0.2431
    4MOL   H373 1639   4.468   0.624   6.402 -1.0528 -1.6707  0.1974
    4MOL   H374 1640   4.333   0.638   6.517 -0.3892  0.3731 -0.8435
    4MOL   H375 1641   4.534   0.844   6.484  0.3092 -1.5396  1.1462
    4MOL   H376 1642   4.393   0.844   6.379  2.6514  0.0210 -1.1895
    4MOL   H377 1643   4.361   0.848   6.682  1.0838 -0.8599 -1.4431
    4MOL   H378 1644   4.385   0.992   6.583 -0.2922  1.0100  0.7656
    4MOL   H379 1645   4.238   0.879   6.558 -0.5503  0.2197  2.3428
    4MOL   C380 1646   4.677   0.293   6.745 -0.1702 -0.5965 -0.1845
    4MOL   C381 1647   4.750   0.241   6.872 -0.4204 -0.5439  0.5820
    4MOL   C382 1648   4.697   0.294   7.001  0.0885  0.1543 -0.2800
    4MOL   C383 1649   4.567   0.231   7.042 -0.8341 -0.9155  0.4630
    4MOL   C384 1650   4.515   0.297   7.165  0.2467  0.1851  0.2739
    4MOL   C385 1651   4.397   0.228   7.237  0.0980  0.6321  0.2636
    4MOL   C386 1652   4.261   0.233   7.164  0.2338  0.0241 -0.4260
    4MOL   H387 1653   4.573   0.261   6.751 -1.0683  2.1328 -0.2053
    4MOL   H388 1654   4.717   0.253   6.652  1.1381 -2.0914  0.9971
    4MOL   H389 1655   4.856   0.267   6.867 -0.5410  0.1531  1.4305
    4MOL   H390 1656   4.685   0.402   6.995 -0.2883  0.5805  5.2460
    4MOL   H391 1657   4.776   0.283   7.075  0.3049  0.9906 -0.3820
    4MOL   H392 1658   4.498   0.247   6.959  0.6806 -1.5513 -0.9546
    4MOL   H393 1659   4.588   0.126   7.060  0.3576 -0.5284  1.4009
    4MOL   H394 1660   4.592   0.300   7.242 -0.3379  0.7671  0.8306
    4MOL   H395 1661   4.491   0.402   7.147  0.7830  0.0766 -1.2360
    4MOL   H396 1662   4.377   0.282   7.329  1.3036 -0.9583  1.4866
    4MOL   H397 1663   4.421   0.122   7.251 -1.2579 -0.1058 -2.5343
    4MOL   H398 1664   4.191   0.163   7.210  0.2036 -0.3388 -1.0317
    4MOL   H399 1665   4.278   0.207   7.060 -1.9533 -3.1479 -0.0619
    4MOL   H400 1666   4.220   0.333   7.177 -1.5501 -0.5431 -1.5960
    4MOL   C401 1667   4.756   0.092   6.878 -0.1619  0.2164 -0.5821
    4MOL   C402 1668   4.825   0.026   7.001 -0.3575 -0.0980 -0.5256
    4MOL   C403 1669   4.831   7.588   6.992 -0.2062  0.1265  0.0493
    4MOL   C404 1670   4.924   7.523   7.094 -0.2647  0.8078  0.3833
    4MOL   C405 1671   4.946   7.374   7.072 -0.7266  0.7832  0.1842
    4MOL   C406 1672   5.031   7.301   7.183  0.8992  0.4144  0.3616
    4MOL   C407 1673   5.176   7.358   7.194 -0.8000  1.1474  0.2285
    4MOL   H408 1674   4.808   0.068   6.785 -0.8577  2.8586 -1.7298
    4MOL   H409 1675   4.664   0.034   6.875  1.3223 -2.1744 -1.0051
    4MOL   H410 1676   4.773   0.063   7.090  2.0647  0.5222  0.6938
    4MOL   H411 1677   4.874   7.555   6.898  0.9818 -0.9706  0.9570
    4MOL   H412 1678   4.738   7.532   6.996  0.1970 -1.2352 -5.6300
    4MOL   H413 1679   4.888   7.550   7.193 -0.4674  1.3396  0.1633
    4MOL   H414 1680   5.021   7.573   7.087 -0.5530  1.2049 -0.7956
    4MOL   H415 1681   4.851   7.320   7.062  1.1759 -2.4846 -0.8859
    4MOL   H416 1682   4.993   7.356   6.976 -1.8070  0.7396 -0.3492
    4MOL   H417 1683   4.979   7.316   7.278 -0.0408 -0.5787  0.0160
    4MOL   H418 1684   5.044   7.197   7.154 -0.0849 -0.0359  1.4998
    4MOL   H419 1685   5.171   7.467   7.207  2.9393  1.4858 -0.8132
    4MOL   H420 1686   5.226   7.321   7.105 -2.2836 -0.7400  0.1373
    4MOL   H421 1687   5.230   7.326   7.283 -3.6541  0.0192  1.6267
    4MOL   H422 1688   4.927   0.064   7.003 -0.3114 -0.2617  0.3836
    5MOL     C1 1689   7.632   1.157   4.526 -0.5798 -0.3651  0.0745
    5MOL     C2 1690   7.695   1.271   4.447  0.1500  0.1297  0.3226
    5MOL     C3 1691   0.135   1.283   4.480 -0.5956  0.1888 -0.7235
    5MOL     C4 1692   0.213   1.393   4.400  0.4826  0.4939 -0.1479
    5MOL     C5 1693   0.370   1.393   4.427  0.7180  0.0834 -0.3414
    5MOL     C6 1694   0.411   1.427   4.571  0.5400 -0.3409  0.0045
    5MOL     C7 1695   0.556   1.420   4.604  0.2645 -0.1789  0.0699
    5MOL     H8 1696   7.635   1.183   4.632  1.9958  0.2942 -0.1362
    5MOL     H9 1697   7.685   1.062   4.518  1.8618  0.8696  0.9927
    5MOL    H10 1698   7.698   1.256   4.340 -0.4041 -2.4156  0.6384
    5MOL    H11 1699   0.140   1.296   4.588 -0.5784 -1.2173 -0.5381
    5MOL    H12 1700   0.199   1.196   4.463  1.7708  1.7223  0.1591
    5MOL    H13 1701   0.192   1.387   4.294 -0.2951 -1.8204  0.1211
    5MOL    H14 1702   0.181   1.491   4.437 -1.5750 -0.9251  2.0048
    5MOL    H15 1703   0.431   1.447   4.355 -1.5455  0.2347 -2.1979
    5MOL    H16 1704   0.413   1.297   4.397 -2.6250 -2.0969  1.5193
    5MOL    H17 1705   0.355   1.357   4.634 -1.0463  0.6608 -0.2564
    5MOL    H18 1706   0.365   1.523   4.592  0.2240  0.2887 -3.2743
    5MOL    H19 1707   0.591   1.318   4.588 -0.8879 -0.5948  0.1401
    5MOL    H20 1708   0.570   1.450   4.707 -0.6398  0.2119  0.0856
    5MOL    H21 1709   0.617   1.480   4.536  0.1455  1.3907  1.3297
    5MOL    H22 1710   7.528   1.141   4.500 -0.5449  0.1468 -0.3853
    5MOL    C23 1711   7.628   1.403   4.485  0.1391  1.0939  0.8129
    5MOL    C24 1712   7.483   1.433   4.444  0.1843  0.2164 -0.0900
    5MOL    C25 1713   7.461   1.425   4.294  0.5434  0.3444  0.1213
    5MOL    C26 1714   7.308   1.403   4.266  0.3685  0.1614  0.3812
    5MOL    C27 1715   7.262   1.408   4.120  0.3432 -0.4040 -0.2079
    5MOL    C28 1716   7.109   1.412   4.109  0.5623 -0.1521  0.1800
    5MOL    C29 1717   7.028   1.291   4.158  0.1658  0.3886 -0.6667
    5MOL    H30 1718   7.655   1.427   4.587 -0.2065  0.3989  1.0707
    5MOL    H31 1719   7.675   1.484   4.430 -0.7781 -1.3515 -3.8435
    5MOL    H32 1720   7.414   1.356   4.479  0.7181 -0.8048 -1.2407
    5MOL    H33 1721   7.507   1.335   4.253  2.2554  0.6850  1.2280
    5MOL    H34 1722   7.509   1.506   4.239  0.2324  0.8734  0.6210
    5MOL    H35 1723   7.248   1.478   4.318 -2.0546 -1.5126  0.0956
    5MOL    H36 1724   7.268   1.309   4.303  0.6059 -0.0288  0.1582
    5MOL    H37 1725   7.296   1.327   4.055 -0.7826 -0.4100 -0.7890
    5MOL    H38 1726   7.318   1.493   4.080  1.3714  0.3762  2.7377
    5MOL    H39 1727   7.072   1.420   4.007 -1.4337 -1.9625  0.7325
    5MOL    H40 1728   7.073   1.502   4.160 -3.3457 -0.0998 -2.4492
    5MOL    H41 1729   7.029   1.213   4.082  0.6318  1.7976 -2.1332
    5MOL    H42 1730   7.073   1.256   4.251  1.4823 -0.8211 -1.7294
    5MOL    H43 1731   6.920   1.309   4.159 -0.0414 -0.7779  0.8013
    5MOL    C44 1732   7.446   1.571   4.494  0.5095  0.8057 -0.8381
    5MOL    C45 1733   7.438   1.577   4.645  0.2843 -0.5690 -0.4417
    5MOL    C46 1734   7.464   1.719   4.698 -0.3179 -0.0904  0.2349
    5MOL    C47 1735   7.372   1.833   4.653 -0.7038 -0.5194 -0.4123
    5MOL    C48 1736   7.419   1.971   4.710  0.0925 -0.1404  0.5470
    5MOL    C49 1737   7.330   2.092   4.673 -0.8896 -0.4475  0.1319
    5MOL    C50 1738   7.387   2.228   4.711 -0.1107  0.2464  0.4834
    5MOL    H51 1739   7.354   1.603   4.445 -0.9016 -2.1605 -0.2149
    5MOL    H52 1740   7.520   1.644   4.458  0.0426  1.6982  0.0017
    5MOL    H53 1741   7.505   1.510   4.698 -1.5532 -2.6596 -0.6940
    5MOL    H54 1742   7.566   1.743   4.670 -0.0399 -0.0620  1.2427
    5MOL    H55 1743   7.471   1.726   4.807 -0.6150  0.9137  0.1911
    5MOL    H56 1744   7.376   1.843   4.544  0.8271  0.7663 -0.2543
    5MOL    H57 1745   7.270   1.813   4.686 -0.3806 -2.3933 -0.5133
    5MOL    H58 1746   7.523   1.979   4.680 -0.5564 -0.2409 -1.8587
    5MOL    H59 1747   7.430   1.964   4.818  0.0652 -1.0063  0.4952
    5MOL    H60 1748   7.227   2.070   4.704 -1.5051  0.8874 -0.9453
    5MOL    H61 1749   7.308   2.086   4.567 -1.6889 -2.3365  0.3742
    5MOL    H62 1750   7.371   2.247   4.817  1.3302 -0.3752  0.8312
    5MOL    H63 1751   7.330   2.311   4.670  0.6857  0.7895  0.4708
    5MOL    H64 1752   7.493   2.237   4.687 -0.2959 -0.1719 -0.5171
    5MOL    C65 1753   7.294   1.542   4.683  0.5563 -0.5683 -0.3502
    5MOL    C66 1754   7.255   1.395   4.720 -0.0251  0.1179  0.0676
    5MOL    C67 1755   7.104   1.369   4.716 -0.0497 -0.6645 -0.1499
    5MOL    C68 1756   7.039   1.397   4.578  0.2573  0.2823  0.0174
    5MOL    C69 1757   6.913   1.308   4.542  0.3908 -0.6895  0.1641
    5MOL    C70 1758   6.931   1.155   4.548  0.5919 -0.8541  0.2939
    5MOL    C71 1759   6.805   1.076   4.509  0.3497 -0.4210  0.2841
    5MOL    H72 1760   7.265   1.598   4.772 -0.3184  1.0856 -1.6556
    5MOL    H73 1761   7.225   1.594   4.617 -0.8873 -1.2312  0.6029
    5MOL    H74 1762   7.302   1.337   4.640  1.3631 -0.9696  1.6619
    5MOL    H75 1763   7.093   1.264   4.741 -0.3663 -0.6115 -0.0688
    5MOL    H76 1764   7.060   1.423   4.799  1.6475  0.1582  0.2380
    5MOL    H77 1765   7.014   1.502   4.563 -0.5076  0.4593  2.2366
    5MOL    H78 1766   7.115   1.378   4.503 -0.4003  1.1707 -0.8776
    5MOL    H79 1767   6.825   1.339   4.598  0.5659  0.8863 -0.4157
    5MOL    H80 1768   6.877   1.338   4.444 -0.6679 -0.2181  0.6872
    5MOL    H81 1769   6.959   1.118   4.647 -2.4122 -0.5754  1.3186
    5MOL    H82 1770   7.010   1.139   4.475 -0.3458  1.3441 -1.2630
    5MOL    H83 1771   6.829   0.970   4.497  3.5620  0.0540  1.9585
    5MOL    H84 1772   6.733   1.090   4.590  0.1597  1.6991 -0.2246
    5MOL    H85 1773   6.770   1.115   4.414  1.9223 -2.7477 -1.2894
    5MOL    C86 1774   7.307   1.365   4.855  0.8439  0.1119  0.2772
    5MOL    C87 1775   7.301   1.225   4.913  0.1331  0.4601  0.2021
    5MOL    C88 1776   7.359   1.120   4.819 -0.6853  0.0531 -0.4851
    5MOL    C89 1777   7.398   0.983   4.881 -0.4679 -0.5076  0.4927
    5MOL    C90 1778   7.434   0.886   4.768 -0.3771  0.1318  1.0865
    5MOL    C91 1779   7.523   0.768   4.822 -0.1230 -0.1671 -0.4817
    5MOL    C92 1780   7.665   0.814   4.868 -0.0440  0.7319  0.0432
    5MOL    H93 1781   7.414   1.388   4.849  0.7156  1.5420  2.5347
    5MOL    H94 1782   7.263   1.432   4.929  2.5592  0.9625  0.5409
    5MOL    H95 1783   7.193   1.208   4.912 -0.0781  1.7717 -1.4999
    5MOL    H96 1784   7.279   1.097   4.748 -1.2777  2.7945 -0.7518
    5MOL    H97 1785   7.441   1.168   4.766 -1.0774  0.9807 -0.2660
    5MOL    H98 1786   7.486   1.006   4.941 -0.0642  1.6424 -0.8233
    5MOL    H99 1787   7.314   0.952   4.942 -0.3163 -0.8465  0.5272
    5MOL   H100 1788   7.502   0.935   4.698 -1.9001  1.2118  0.3268
    5MOL   H101 1789   7.350   0.845   4.713  0.0445  0.6948  0.0010
    5MOL   H102 1790   7.463   0.716   4.897  0.2885 -0.4616 -0.3598
    5MOL   H103 1791   7.547   0.701   4.740 -1.6381 -0.2788 -0.8632
    5MOL   H104 1792   7.650   0.864   4.963 -2.9072 -1.3577  0.7611
    5MOL   H105 1793   0.009   0.882   4.804  0.8072  0.2433  0.2737
    5MOL   H106 1794   0.013   0.727   4.895 -1.8578 -0.6488 -0.1908
    5MOL   C107 1795   7.363   1.225   5.058 -0.0314  0.2061  0.1740
    5MOL   C108 1796   7.495   1.304   5.094  0.0059  0.0023  0.6570
    5MOL   C109 1797   7.517   1.297   5.246  0.2966  0.4157  0.2824
    5MOL   C110 1798   7.518   1.443   5.292 -0.3910 -0.1084 -0.0767
    5MOL   C111 1799   7.518   1.432   5.450  0.0597  0.0399  1.2569
    5MOL   C112 1800   7.514   1.568   5.507 -0.3250 -0.2874 -0.4271
    5MOL   C113 1801   7.497   1.577   5.664 -0.0805 -1.2853 -0.6142
    5MOL   H114 1802   7.356   1.123   5.097  1.6553 -0.1961 -0.5680
    5MOL   H115 1803   7.280   1.273   5.111 -0.1284 -0.2995  0.4844
    5MOL   H116 1804   7.469   1.401   5.053  0.1949 -0.4687 -0.5864
    5MOL   H117 1805   7.609   1.243   5.267 -0.5778 -0.7074  1.2744
    5MOL   H118 1806   7.442   1.244   5.304  0.8890  0.3830  1.0268
    5MOL   H119 1807   7.603   1.503   5.260 -0.5425 -0.4621 -1.1368
    5MOL   H120 1808   7.430   1.496   5.255  0.5080  0.4631 -1.4469
    5MOL   H121 1809   7.612   1.382   5.473  1.3943  0.2320 -3.2545
    5MOL   H122 1810   7.432   1.384   5.496  0.3434 -1.7236 -0.0327
    5MOL   H123 1811   7.602   1.628   5.485 -1.3115  1.4951  0.3928
    5MOL   H124 1812   7.435   1.629   5.462 -2.6331 -3.1427 -0.4330
    5MOL   H125 1813   7.515   1.680   5.694  0.0629 -1.4947  0.0081
    5MOL   H126 1814   7.392   1.560   5.690 -0.0445  1.5978  1.6550
    5MOL   H127 1815   7.567   1.500   5.694  0.8288 -0.9694 -1.8496
    5MOL   C128 1816   7.619   1.262   5.008 -0.1648  0.1695  0.5627
    5MOL   C129 1817   0.021   1.358   5.003  0.3200  0.2415 -0.2993
    5MOL   C130 1818   7.711   1.496   4.947  0.1136 -0.1274  0.4893
    5MOL   C131 1819   0.081   1.612   5.012 -0.0558 -0.5990  0.0220
    5MOL   C132 1820   0.012   1.745   4.970  0.4175 -0.1499 -0.4020
    5MOL   C133 1821   0.078   1.868   5.027  0.4875 -0.7740 -0.9746
    5MOL   C134 1822   7.703   1.992   4.993 -0.0007 -0.4872  0.3323
    5MOL   H135 1823   7.656   1.164   5.038 -1.6429 -0.3331  0.8173
    5MOL   H136 1824   7.595   1.246   4.903  0.8607  0.1998  0.3262
    5MOL   H137 1825   0.054   1.368   5.106  1.9128  1.0166 -0.8651
    5MOL   H138 1826   7.609   1.519   4.976 -0.3451  0.8211 -1.7541
    5MOL   H139 1827   7.707   1.496   4.838  1.8876  1.0634  0.3905
    5MOL   H140 1828   0.186   1.620   4.986 -0.1643 -0.4306 -0.3805
    5MOL   H141 1829   0.084   1.612   5.121  0.9363  1.2943 -0.0003
    5MOL   H142 1830   7.623   1.743   5.009  0.1175  0.4122 -1.1362
    5MOL   H143 1831   0.015   1.758   4.862  1.9952  1.9654 -0.1333
    5MOL   H144 1832   0.172   1.882   4.975  0.9996 -1.9938 -0.3953
    5MOL   H145 1833   0.096   1.856   5.134 -2.6994  0.1079 -0.2745
    5MOL   H146 1834   7.604   1.994   5.038  0.5232 -3.3393  1.7504
    5MOL   H147 1835   7.680   2.010   4.888  0.2283 -0.4335  0.2904
    5MOL   H148 1836   0.049   2.072   5.036 -0.3808  0.7977 -1.4729
    5MOL   C149 1837   0.142   1.293   4.925 -0.1590  0.3274 -0.3697
    5MOL   C150 1838   0.232   1.205   4.994  0.4614  0.1948 -0.4021
    5MOL   C151 1839   0.324   1.279   5.093  0.2054 -0.1942 -0.1801
    5MOL   C152 1840   0.427   1.374   5.025  0.2276  0.8120 -0.2942
    5MOL   C153 1841   0.522   1.443   5.132  0.2844  0.0089 -0.0625
    5MOL   C154 1842   0.622   1.537   5.057  0.3326  0.3468  0.7547
    5MOL   C155 1843   0.721   1.622   5.146 -0.1405 -0.1096  0.1884
    5MOL   H156 1844   0.110   1.239   4.836 -0.6682  2.6313 -1.6523
    5MOL   H157 1845   0.201   1.370   4.875 -0.3314 -1.6287 -3.7172
    5MOL   H158 1846   0.154   1.155   5.052  0.6129  1.2684  0.7561
    5MOL   H159 1847   0.278   1.337   5.173  1.5939  0.2431  0.3181
    5MOL   H160 1848   0.371   1.199   5.151 -1.4372 -0.6006  0.6061
    5MOL   H161 1849   0.380   1.447   4.960 -1.1429  0.3213  0.1307
    5MOL   H162 1850   0.494   1.312   4.965 -1.0209 -0.6886 -0.1557
    5MOL   H163 1851   0.573   1.378   5.203 -1.9440 -0.7826  0.8947
    5MOL   H164 1852   0.473   1.514   5.199  2.0673  2.2408 -1.0529
    5MOL   H165 1853   0.570   1.602   4.987  0.9559  0.5587  0.4872
    5MOL   H166 1854   0.680   1.465   4.999  1.3416  2.1766 -0.5429
    5MOL   H167 1855   0.677   1.697   5.212 -0.8086  0.1030 -0.4896
    5MOL   H168 1856   0.783   1.673   5.073  0.7545  1.2862  1.8755
    5MOL   H169 1857   0.772   1.553   5.213 -0.3148 -0.7146 -0.3011
    5MOL   C170 1858   0.308   1.109   4.899 -0.0963 -0.1546  0.3707
    5MOL   C171 1859   0.392   0.988   4.963  0.5824 -0.6132 -0.3938
    5MOL   C172 1860   0.299   0.899   5.047 -0.7063  0.0008 -1.1157
    5MOL   C173 1861   0.353   0.842   5.184 -0.1298  0.2102 -0.2151
    5MOL   C174 1862   0.244   0.760   5.253  0.0338 -0.3351  0.6066
    5MOL   C175 1863   0.119   0.837   5.310  0.1813 -0.0371  0.2392
    5MOL   C176 1864   0.147   0.963   5.390 -0.4014 -0.6309  0.0433
    5MOL   H177 1865   0.371   1.173   4.838  0.4630 -0.4428  0.6390
    5MOL   H178 1866   0.233   1.058   4.838  0.9649 -2.1609  0.6755
    5MOL   H179 1867   0.462   1.032   5.034  0.3065  0.2037 -0.6195
    5MOL   H180 1868   0.260   0.815   4.988 -1.5276  1.3972 -2.5980
    5MOL   H181 1869   0.212   0.961   5.071  0.8736  2.3086 -1.2923
    5MOL   H182 1870   0.381   0.930   5.241 -1.1000  1.4458 -1.5994
    5MOL   H183 1871   0.440   0.776   5.181  0.1870  0.5782  0.7491
    5MOL   H184 1872   0.293   0.698   5.328 -1.3615 -0.7513  1.1914
    5MOL   H185 1873   0.215   0.686   5.177  0.3010  1.3282 -1.1625
    5MOL   H186 1874   0.059   0.765   5.366  0.2168  1.8047  2.6990
    5MOL   H187 1875   0.063   0.868   5.222  2.0465 -1.2187 -1.4118
    5MOL   H188 1876   0.206   0.936   5.477 -1.0771  1.1428  1.0687
    5MOL   H189 1877   0.054   0.990   5.440  0.3473  0.3299  0.9168
    5MOL   H190 1878   0.197   1.046   5.341  0.4526 -2.4163 -2.2151
    5MOL   C191 1879   0.470   0.901   4.855  0.2337  0.3081 -0.0251
    5MOL   C192 1880   0.585   0.971   4.770  0.3985 -0.7019  0.2568
    5MOL   C193 1881   0.701   1.020   4.863  0.1594  0.9195  0.7913
    5MOL   C194 1882   0.762   0.911   4.955 -0.3241  0.0807 -0.4148
    5MOL   C195 1883   0.872   0.965   5.054 -0.2634 -0.1841  1.2532
    5MOL   C196 1884   0.928   0.845   5.143  0.3318 -0.6485  0.3812
    5MOL   C197 1885   0.830   0.801   5.249  0.2076  0.2113  0.4148
    5MOL   H198 1886   0.398   0.877   4.777  0.5842  2.4757 -1.0534
    5MOL   H199 1887   0.501   0.803   4.891  0.2437 -0.7186 -2.6854
    5MOL   H200 1888   0.553   1.060   4.715 -0.1567 -0.7880  0.4371
    5MOL   H201 1889   0.655   1.103   4.916  0.5742  2.0922 -0.6706
    5MOL   H202 1890   0.779   1.072   4.807  0.7789  0.7657  1.4908
    5MOL   H203 1891   0.810   0.846   4.883 -0.1125 -2.1774  1.7193
    5MOL   H204 1892   0.686   0.847   5.000 -1.4277 -0.4107 -2.8659
    5MOL   H205 1893   0.955   0.999   4.992  0.1437 -0.0942  1.8434
    5MOL   H206 1894   0.842   1.050   5.115 -2.5742  1.5953 -2.2273
    5MOL   H207 1895   1.021   0.878   5.190  1.6493 -2.4562 -0.8744
    5MOL   H208 1896   0.968   0.757   5.093 -1.4983 -1.2798 -0.0077
    5MOL   H209 1897   0.879   0.768   5.341 -1.8480 -0.8280  1.1703
    5MOL   H210 1898   0.757   0.726   5.219 -1.7365  2.0111  0.5138
    5MOL   H211 1899   0.767   0.880   5.289 -0.9882 -0.6940  0.3322
    5MOL   C212 1900   0.625   0.876   4.664 -0.4678  0.6378 -0.0596
    5MOL   C213 1901   0.631   0.917   4.515  0.5869  0.3126 -1.0718
    5MOL   C214 1902   0.496   0.972   4.462 -0.2217  0.0796  0.1406
    5MOL   C215 1903   0.447   0.900   4.342  0.2009 -1.0319  0.1828
    5MOL   C216 1904   0.302   0.942   4.290  0.2697 -0.4253 -0.1969
    5MOL   C217 1905   0.186   0.854   4.337 -0.1092  0.1236  0.2627
    5MOL   C218 1906   0.059   0.890   4.259  0.3363  0.3639 -0.1192
    5MOL   H219 1907   0.557   0.790   4.660  2.5595 -1.8731  0.3021
    5MOL   H220 1908   0.720   0.822   4.673 -0.6556 -0.2046 -2.6591
    5MOL   H221 1909   0.652   0.824   4.461 -1.0902 -0.2246 -0.8366
    5MOL   H222 1910   0.424   0.969   4.543  0.9205  0.1654  1.1669
    5MOL   H223 1911   0.500   1.078   4.440 -0.2224  0.2689  1.0476
    5MOL   H224 1912   0.459   0.794   4.365  0.6432 -0.6582  1.7432
    5MOL   H225 1913   0.526   0.918   4.269  0.7067 -1.0542  0.7207
    5MOL   H226 1914   0.273   1.046   4.306 -1.3444 -0.9481  0.4021
    5MOL   H227 1915   0.302   0.947   4.181 -1.2496  1.3551 -0.1519
    5MOL   H228 1916   0.214   0.749   4.330  2.3435  0.7322  0.6608
    5MOL   H229 1917   0.177   0.868   4.444  0.2997 -0.9653  0.4509
    5MOL   H230 1918   0.034   0.995   4.273  1.3092  0.5165  0.4952
    5MOL   H231 1919   7.674   0.848   4.280 -0.8277  1.5746 -2.8082
    5MOL   H232 1920   0.081   0.885   4.152 -0.2048  0.2323 -0.2282
    5MOL   C233 1921   0.745   1.014   4.498 -0.0496  0.2677 -0.3334
    5MOL   C234 1922   0.797   1.041   4.352  0.1299  0.4443 -0.2700
    5MOL   C235 1923   0.907   1.148   4.349 -0.3268  0.6247 -0.1188
    5MOL   C236 1924   0.854   1.292   4.347 -0.2702 -0.5284  0.3499
    5MOL   C237 1925   0.946   1.408   4.326 -0.0498  0.4403  0.5814
    5MOL   C238 1926   0.872   1.544   4.346 -0.0228 -0.9390  0.6726
    5MOL   C239 1927   0.961   1.650   4.277 -0.3853 -0.5287 -0.1674
    5MOL   H240 1928   0.833   0.969   4.543  0.1674 -1.6235 -2.5185
    5MOL   H241 1929   0.726   1.104   4.556 -1.0199 -0.6500  0.8015
    5MOL   H242 1930   0.709   1.081   4.301 -0.0926 -1.2624 -1.2441
    5MOL   H243 1931   0.967   1.133   4.259 -0.3345  0.9210 -0.1735
    5MOL   H244 1932   0.979   1.142   4.430 -1.4722  1.8285  0.9968
    5MOL   H245 1933   0.808   1.309   4.444 -1.8208  1.1382 -0.6246
    5MOL   H246 1934   0.774   1.304   4.273  1.5137 -0.8263 -1.6722
    5MOL   H247 1935   0.988   1.404   4.226  0.8600 -0.7264  1.0015
    5MOL   H248 1936   1.022   1.390   4.402 -1.2311 -0.1560  1.6583
    5MOL   H249 1937   0.768   1.536   4.315  0.3636 -2.7296 -0.2211
    5MOL   H250 1938   0.859   1.573   4.451 -2.4577  3.6808 -0.7665
    5MOL   H251 1939   0.900   1.741   4.281  0.4310  0.0334 -0.4063
    5MOL   H252 1940   1.057   1.670   4.323 -0.1219 -0.2012 -0.8529
    5MOL   H253 1941   0.977   1.627   4.172  0.2597 -0.5248 -0.0714
    5MOL   C254 1942   0.835   0.912   4.268  1.0697 -0.7473 -0.1903
    5MOL   C255 1943   0.929   0.805   4.330 -0.9653 -0.3631 -0.0475
    5MOL   C256 1944   1.078   0.845   4.352  0.1796  0.3171 -0.0695
    5MOL   C257 1945   1.151   0.757   4.458 -0.2924  0.6472  0.7017
    5MOL   C258 1946   1.089   0.764   4.597 -0.4512  0.1155 -0.1652
    5MOL   C259 1947   1.165   0.680   4.698 -0.5618  0.0737  1.0596
    5MOL   C260 1948   1.122   0.711   4.842 -0.3922 -0.2130  0.3159
    5MOL   H261 1949   0.868   0.942   4.169 -1.6857 -0.8069 -1.1689
    5MOL   H262 1950   0.736   0.871   4.250  0.8173  0.6297 -2.1346
    5MOL   H263 1951   0.887   0.787   4.429  1.9138 -0.4594  1.1849
    5MOL   H264 1952   1.075   0.946   4.393  0.9404 -1.4201  4.5590
    5MOL   H265 1953   1.135   0.858   4.260  0.3202  2.1552  0.2399
    5MOL   H266 1954   1.152   0.652   4.431 -2.3056  1.2690 -2.0480
    5MOL   H267 1955   1.257   0.786   4.454  0.4428 -2.1660 -4.1411
    5MOL   H268 1956   0.992   0.714   4.604  0.6694 -1.7564  2.7654
    5MOL   H269 1957   1.086   0.869   4.628  1.6311 -0.3100  1.6251
    5MOL   H270 1958   1.148   0.575   4.677  0.4533  0.5312 -2.3930
    5MOL   H271 1959   1.270   0.701   4.682 -0.5834  1.0232  2.0716
    5MOL   H272 1960   1.016   0.735   4.849 -1.1945 -3.0370 -1.5851
    5MOL   H273 1961   1.157   0.629   4.904  1.0697 -0.2224 -0.5117
    5MOL   H274 1962   1.180   0.798   4.873  0.5874 -0.4729 -0.7492
    5MOL   C275 1963   0.913   0.674   4.250  0.1827  0.0811 -0.3296
    5MOL   C276 1964   0.802   0.575   4.295  0.2974 -0.3669  0.4835
    5MOL   C277 1965   0.837   0.509   4.427 -0.4373  0.3875  0.3885
    5MOL   C278 1966   0.742   0.412   4.494  0.0836 -0.7103  0.0586
    5MOL   C279 1967   0.753   0.383   4.653  0.6060  0.6763 -0.3493
    5MOL   C280 1968   0.675   0.487   4.733  0.8101 -0.2828 -0.1203
    5MOL   C281 1969   0.657   0.446   4.878  0.1806  0.6035  0.0899
    5MOL   H282 1970   1.006   0.621   4.228  0.0705 -0.5770  0.7829
    5MOL   H283 1971   0.880   0.708   4.152 -1.6839 -0.4531  0.1004
    5MOL   H284 1972   0.716   0.641   4.305 -0.1369  0.3083 -5.9703
    5MOL   H285 1973   0.928   0.450   4.425 -1.9430 -1.9852 -1.6263
    5MOL   H286 1974   0.854   0.586   4.503 -0.7721 -0.1625  1.0275
    5MOL   H287 1975   0.754   0.311   4.457 -0.4039 -0.6144 -0.3748
    5MOL   H288 1976   0.638   0.434   4.468  0.4568 -2.0207 -2.7281
    5MOL   H289 1977   0.859   0.382   4.681 -0.1210 -0.3328  2.4820
    5MOL   H290 1978   0.708   0.286   4.673 -0.7666  1.6653  1.4137
    5MOL   H291 1979   0.709   0.590   4.724 -1.7921  0.5541 -0.8401
    5MOL   H292 1980   0.576   0.492   4.688 -0.3392  1.1291  2.4345
    5MOL   H293 1981   0.752   0.455   4.932  0.0816  1.1140  0.1833
    5MOL   H294 1982   0.624   0.344   4.894  1.7005 -0.0858 -0.9701
    5MOL   H295 1983   0.590   0.522   4.919  0.7871  0.4094  1.4599
    5MOL   C296 1984   0.780   0.468   4.190 -0.2756 -0.3866  0.3055
    5MOL   C297 1985   0.715   0.513   4.061 -0.0237  0.8891  0.7573
    5MOL   C298 1986   0.571   0.571   4.082  1.4063  0.2749  0.0564
    5MOL   C299 1987   0.466   0.466   4.141  0.7824  0.6697  0.2602
    5MOL   C300 1988   0.337   0.522   4.206  0.1765 -0.0367  0.3624
    5MOL   C301 1989   0.233   0.416   4.242  0.4207 -0.2756 -0.1549
    5MOL   C302 1990   0.090   0.473   4.267  0.3695 -0.3312 -0.0662
    5MOL   H303 1991   0.879   0.422   4.182 -0.9692 -2.2451  1.9381
    5MOL   H304 1992   0.720   0.384   4.225  1.3433 -1.1970  1.1837
    5MOL   H305 1993   0.765   0.600   4.021  1.1972 -0.1578 -0.0368
    5MOL   H306 1994   0.575   0.650   4.157  2.2178  0.3443 -0.0531
    5MOL   H307 1995   0.537   0.630   3.997  0.0673  1.2784  1.2652
    5MOL   H308 1996   0.501   0.394   4.214  1.3001  1.2005  0.5420
    5MOL   H309 1997   0.441   0.394   4.063  0.5851  0.4495  0.5254
    5MOL   H310 1998   0.283   0.589   4.138  1.2325  0.2127 -0.2393
    5MOL   H311 1999   0.341   0.584   4.296 -1.2276  0.9944 -0.2652
    5MOL   H312 2000   0.217   0.337   4.168 -0.1830  0.2963 -0.6451
    5MOL   H313 2001   0.269   0.368   4.332 -0.0015 -0.6739 -0.2020
    5MOL   H314 2002   0.108   0.542   4.349  0.4672 -2.7102  1.9728
    5MOL   H315 2003   0.049   0.514   4.175 -1.9868 -0.3196  0.9530
    5MOL   H316 2004   0.032   0.390   4.309 -1.7463  0.7197 -0.8408
    5MOL   C317 2005   0.715   0.400   3.953  0.0461  0.2952 -0.5686
    5MOL   C318 2006   0.858   0.362   3.902  0.0729  0.5427 -0.5546
    5MOL   C319 2007   0.873   0.220   3.846 -0.1899  0.2487  0.4226
    5MOL   C320 2008   0.777   0.174   3.738  0.1595 -0.5934  0.2247
    5MOL   C321 2009   0.776   0.025   3.711 -0.2672  0.5334  0.0777
    5MOL   C322 2010   0.684   7.693   3.593 -0.1652  0.3127 -0.0577
    5MOL   C323 2011   0.551   0.064   3.583 -0.0112 -0.2244  0.1601
    5MOL   H324 2012   0.646   0.421   3.871 -2.5246 -0.6043  1.2862
    5MOL   H325 2013   0.670   0.313   4.001 -0.9385  1.8186  1.3743
    5MOL   H326 2014   0.915   0.377   3.994 -1.5720 -1.4344  0.7954
    5MOL   H327 2015   0.870   0.157   3.935  2.6655  1.8387  1.6955
    5MOL   H328 2016   0.977   0.195   3.830 -0.2079  1.5413 -1.7779
    5MOL   H329 2017   0.801   0.229   3.647 -0.5599  3.1301  2.2016
    5MOL   H330 2018   0.680   0.214   3.769  0.2384  0.7687 -1.2497
    5MOL   H331 2019   0.738   7.690   3.801 -0.3042  0.1086 -0.1673
    5MOL   H332 2020   0.875   7.697   3.690 -0.4481  0.6807 -1.0870
    5MOL   H333 2021   0.664   7.588   3.616  1.6016 -0.4222 -1.8336
    5MOL   H334 2022   0.733   7.698   3.496 -2.4756 -0.9892 -1.3547
    5MOL   H335 2023   0.515   0.094   3.681  0.9379 -0.7443  0.6824
    5MOL   H336 2024   0.477   0.008   3.526 -0.8411  0.7122  0.3096
    5MOL   H337 2025   0.565   0.154   3.524  2.4142 -0.7600 -0.1454
    5MOL   C338 2026   0.902   0.472   3.797  0.2054 -0.4722  0.4225
    5MOL   C339 2027   1.048   0.507   3.783  0.1411  0.5335  0.0214
    5MOL   C340 2028   1.099   0.613   3.893  0.5541 -0.3088 -0.1223
    5MOL   C341 2029   1.260   0.632   3.902  0.1858 -0.1254 -0.2783
    5MOL   C342 2030   1.282   0.735   4.023  0.2414  1.2675  0.7566
    5MOL   C343 2031   1.425   0.789   4.044  0.8583  0.6194 -0.0530
    5MOL   C344 2032   1.473   0.868   3.916 -0.7304 -0.3833 -0.1082
    5MOL   H345 2033   0.844   0.564   3.800  2.1505  0.7875  0.2903
    5MOL   H346 2034   0.871   0.439   3.697 -0.4755 -0.6223  0.6846
    5MOL   H347 2035   1.102   0.417   3.814 -0.2354  0.1205 -0.5391
    5MOL   H348 2036   1.057   0.713   3.885 -0.4035 -0.6588  0.4642
    5MOL   H349 2037   1.060   0.577   3.989 -1.2311  1.1687 -0.2593
    5MOL   H350 2038   1.287   0.665   3.802  2.4416  1.0991  0.6938
    5MOL   H351 2039   1.319   0.541   3.911  0.5437 -0.0921 -2.2122
    5MOL   H352 2040   1.215   0.819   4.009  1.2430  1.3438 -4.7031
    5MOL   H353 2041   1.252   0.687   4.117  0.9565  0.7874  0.7441
    5MOL   H354 2042   1.422   0.862   4.125 -0.4551  0.2499  0.2453
    5MOL   H355 2043   1.495   0.709   4.063 -0.4407 -0.4138  0.4542
    5MOL   H356 2044   1.400   0.943   3.887 -0.1489  0.6103  0.9534
    5MOL   H357 2045   1.496   0.805   3.830  0.7970 -0.0536  0.0407
    5MOL   H358 2046   1.562   0.931   3.922  0.9007 -2.4820 -1.7563
    5MOL   C359 2047   1.067   0.558   3.637  0.0890  0.3876  0.6671
    5MOL   C360 2048   1.117   0.439   3.546 -0.1516 -0.6340 -0.4682
    5MOL   C361 2049   1.094   0.475   3.397  0.4537 -0.6391  0.1170
    5MOL   C362 2050   0.948   0.430   3.349 -0.5465 -0.8583  0.0162
    5MOL   C363 2051   0.937   0.279   3.308  0.1281  0.1749 -0.0419
    5MOL   C364 2052   0.792   0.241   3.259  0.2652  0.1920 -0.4209
    5MOL   C365 2053   0.769   0.106   3.190  0.1491  0.7158  0.4937
    5MOL   H366 2054   1.131   0.647   3.632 -0.2495  0.6225  0.5456
    5MOL   H367 2055   0.974   0.592   3.593 -0.3769  0.2404  1.5286
    5MOL   H368 2056   1.049   0.356   3.563 -0.4176 -0.5858 -1.3024
    5MOL   H369 2057   1.123   0.578   3.377  0.9110 -0.4447  1.7237
    5MOL   H370 2058   1.166   0.413   3.345 -0.0773 -0.6173 -0.6458
    5MOL   H371 2059   0.875   0.458   3.424 -0.3467 -0.8892  0.2258
    5MOL   H372 2060   0.932   0.480   3.254  0.0479 -2.9273 -1.2022
    5MOL   H373 2061   1.012   0.245   3.237 -0.0885  0.2369 -0.2999
    5MOL   H374 2062   0.946   0.216   3.397  0.0678 -0.2814 -0.3544
    5MOL   H375 2063   0.718   0.242   3.340 -0.6098 -1.8613 -1.1468
    5MOL   H376 2064   0.754   0.307   3.181 -1.0439  2.1918  1.8367
    5MOL   H377 2065   0.800   0.028   3.260 -1.5806  0.3412  0.8640
    5MOL   H378 2066   0.663   0.092   3.168  0.3795 -0.6194  0.1246
    5MOL   H379 2067   0.822   0.088   3.096 -0.9174 -2.9667  0.5095
    5MOL   C380 2068   1.257   0.383   3.572  0.2675 -0.5400  0.4392
    5MOL   C381 2069   1.282   0.245   3.506 -0.0415  0.1259 -0.6516
    5MOL   C382 2070   1.418   0.231   3.433 -0.4909  0.2120 -0.0730
    5MOL   C383 2071   1.433   0.317   3.314  0.0749 -0.3381  0.3329
    5MOL   C384 2072   1.572   0.306   3.253  0.6843 -0.0006 -0.3792
    5MOL   C385 2073   1.596   0.179   3.162  0.1356 -0.3211 -0.1513
    5MOL   C386 2074   1.742   0.170   3.112 -0.4579 -0.0943  0.1542
    5MOL   H387 2075   1.334   0.453   3.540  0.4288 -1.0750 -0.3684
    5MOL   H388 2076   1.269   0.378   3.680 -0.4569 -0.2997  0.5344
    5MOL   H389 2077   1.204   0.223   3.433  0.3678  0.1096 -1.0895
    5MOL   H390 2078   1.440   0.127   3.406  1.4713  1.0950 -2.0768
    5MOL   H391 2079   1.494   0.249   3.509 -1.3504 -1.6854  1.2672
    5MOL   H392 2080   1.362   0.288   3.237 -1.9227 -0.3152  2.1196
    5MOL   H393 2081   1.415   0.422   3.337  1.4371  0.0571 -0.3517
    5MOL   H394 2082   1.588   0.396   3.193 -1.1170  0.8037  0.2874
    5MOL   H395 2083   1.644   0.317   3.334  0.0289  3.1441 -0.1373
    5MOL   H396 2084   1.534   0.162   3.074  0.4798 -1.7681 -0.1345
    5MOL   H397 2085   1.575   0.094   3.227 -2.5841  1.5043  1.4633
    5MOL   H398 2086   1.800   0.172   3.204 -1.3427 -1.7731  0.7658
    5MOL   H399 2087   1.751   0.267   3.062  0.3682  0.5481  1.5404
    5MOL   H400 2088   1.766   0.087   3.045 -2.9489 -1.9865  1.5046
    5MOL   C401 2089   1.270   0.133   3.607 -1.3443  0.7811 -0.9230
    5MOL   C402 2090   1.244   7.701   3.551 -0.4592 -0.6123 -0.7819
    5MOL   C403 2091   1.191   7.613   3.668 -0.2072  0.3142  0.5070
    5MOL   C404 2092   1.147   7.472   3.635  0.4751  0.2772  0.0378
    5MOL   C405 2093   1.009   7.463   3.560  0.0589  1.7103  0.4103
    5MOL   C406 2094   1.005   7.326   3.488  0.5727  0.1371 -1.0862
    5MOL   C407 2095   0.894   7.327   3.385  0.3040  0.0350 -0.1396
    5MOL   H408 2096   1.189   0.151   3.677  1.2100  0.6932  2.1689
    5MOL   H409 2097   1.358   0.120   3.671 -2.9144 -0.8027  0.9702
    5MOL   H410 2098   1.336   7.654   3.515  0.2970 -0.2140  0.6023
    5MOL   H411 2099   1.112   7.669   3.720  2.4034  3.6293  1.0783
    5MOL   H412 2100   1.279   7.604   3.731  0.6888 -0.3807 -0.8452
    5MOL   H413 2101   1.138   7.415   3.728 -0.5772 -0.2517 -0.3749
    5MOL   H414 2102   1.224   7.414   3.585  0.8185  1.0792 -0.3858
    5MOL   H415 2103   0.943   7.460   3.647  1.3690  1.6652  1.4241
    5MOL   H416 2104   0.992   7.548   3.494 -0.6365  1.1196 -0.1748
    5MOL   H417 2105   1.107   7.311   3.453  2.0929  2.1807  2.1619
    5MOL   H418 2106   0.982   7.240   3.552  3.9564  0.5282  0.8290
    5MOL   H419 2107   0.800   7.348   3.436 -0.1875  0.3151 -1.1375
    5MOL   H420 2108   0.892   7.229   3.337  1.3057 -0.5636  1.0149
    5MOL   H421 2109   0.915   7.402   3.308 -1.2643  1.9700  1.2661
    5MOL   H422 2110   1.173   7.702   3.468 -0.5396 -1.4859 -0.7218
    6MOL     C1 2111   5.278   0.130   4.502 -0.3862  0.7496  0.3836
    6MOL     C2 2112   5.261   0.009   4.413 -0.1444 -0.6089  0.4552
    6MOL     C3 2113   5.363   7.701   4.292  1.0844 -0.4350  0.1384
    6MOL     C4 2114   5.510   7.685   4.333  0.9503 -0.5032  0.3367
    6MOL     C5 2115   5.605   7.669   4.213 -0.1664  0.0677 -0.4611
    6MOL     C6 2116   5.750   7.619   4.252  0.5347 -0.1770 -0.1333
    6MOL     C7 2117   5.822   7.700   4.362 -0.0256 -0.8787  0.2464
    6MOL     H8 2118   5.228   0.120   4.598  1.0540 -1.2673  0.9649
    6MOL     H9 2119   5.251   0.229   4.465 -0.8934  0.3698 -0.2759
    6MOL    H10 2120   5.289   7.641   4.480  1.8895  1.2520  1.9548
    6MOL    H11 2121   5.336   7.599   4.263 -1.7916  0.0765  0.7916
    6MOL    H12 2122   5.344   0.051   4.205  1.0047 -0.3997  0.1815
    6MOL    H13 2123   5.531   0.050   4.406  0.5752  1.3604 -1.5191
    6MOL    H14 2124   5.506   7.594   4.392 -0.5123  0.2337  1.3895
    6MOL    H15 2125   5.603   0.047   4.153  0.7511  0.6008  0.2926
    6MOL    H16 2126   5.566   7.586   4.155 -0.4468  0.1747 -0.4276
    6MOL    H17 2127   5.814   7.608   4.165  1.0879  1.6931  0.0115
    6MOL    H18 2128   5.735   7.523   4.300  0.5229 -1.3566 -2.4284
    6MOL    H19 2129   5.853   0.086   4.332 -0.4387 -1.0369 -0.7268
    6MOL    H20 2130   5.916   7.663   4.401  1.7798  1.7436 -1.5042
    6MOL    H21 2131   5.756   7.710   4.449 -0.9432  0.1937 -0.5501
    6MOL    H22 2132   5.382   0.126   4.535  0.4989  0.5489 -2.2976
    6MOL    C23 2133   5.118   0.005   4.363 -0.5282  0.8205 -0.2003
    6MOL    C24 2134   5.004   7.685   4.466  0.2244  0.0510 -0.1525
    6MOL    C25 2135   5.030   7.576   4.573 -0.5933 -0.1813  0.8213
    6MOL    C26 2136   5.040   7.434   4.516 -0.3897  0.0311  0.3476
    6MOL    C27 2137   5.082   7.325   4.614  0.1503  0.0920  0.3933
    6MOL    C28 2138   4.980   7.286   4.719 -0.3624 -0.8887  0.4911
    6MOL    C29 2139   4.849   7.237   4.655  0.5152 -0.6900  0.2392
    6MOL    H30 2140   5.086   0.086   4.297 -2.4210  0.3159  0.0781
    6MOL    H31 2141   5.128   7.629   4.301 -1.5383 -0.2901  1.2149
    6MOL    H32 2142   5.000   0.064   4.524 -0.0356 -0.4775  0.6710
    6MOL    H33 2143   4.943   7.567   4.638  0.2105 -0.5039  1.8553
    6MOL    H34 2144   5.115   7.597   4.638  1.1109 -2.6111 -0.5196
    6MOL    H35 2145   5.116   7.426   4.438 -0.3927  2.7454  0.0200
    6MOL    H36 2146   4.948   7.408   4.464 -0.3428 -1.2779  0.8827
    6MOL    H37 2147   5.165   7.371   4.669 -0.7133  2.9747 -0.6111
    6MOL    H38 2148   5.113   7.232   4.567 -0.1777 -0.4679  1.2721
    6MOL    H39 2149   4.953   7.375   4.776 -0.8024 -0.1025 -0.9169
    6MOL    H40 2150   5.022   7.209   4.783  0.4485 -2.1442 -1.4878
    6MOL    H41 2151   4.793   7.313   4.600  0.7147  0.4702  1.5948
    6MOL    H42 2152   4.865   7.151   4.592 -0.4667 -0.6988 -0.0126
    6MOL    H43 2153   4.785   7.200   4.735  2.7041 -0.9762  1.9055
    6MOL    C44 2154   4.874   7.667   4.382 -0.4894 -0.0824 -0.1640
    6MOL    C45 2155   4.737   7.649   4.455  0.2543 -0.1345  0.7789
    6MOL    C46 2156   4.660   0.065   4.438 -0.3761 -0.1296  0.1038
    6MOL    C47 2157   4.714   0.167   4.538 -0.9352  0.2274 -0.0289
    6MOL    C48 2158   4.635   0.293   4.501  0.2065 -0.2816  1.0198
    6MOL    C49 2159   4.691   0.430   4.547  0.6616 -0.3104 -0.3328
    6MOL    C50 2160   4.599   0.548   4.524 -0.8401 -0.2892 -0.0824
    6MOL    H51 2161   4.891   7.571   4.334 -0.9442  0.1545 -0.7942
    6MOL    H52 2162   4.874   0.024   4.299 -0.0067 -2.2498 -2.0415
    6MOL    H53 2163   4.749   7.623   4.560 -1.9414 -0.8518  0.8751
    6MOL    H54 2164   4.557   0.054   4.473  0.2755 -1.2734  1.7295
    6MOL    H55 2165   4.660   0.094   4.333 -0.2928 -0.6672 -0.0460
    6MOL    H56 2166   4.693   0.144   4.642 -0.9238  0.3545  0.0015
    6MOL    H57 2167   4.821   0.184   4.524 -0.6381 -1.1947  0.4924
    6MOL    H58 2168   4.534   0.287   4.540  0.4441  0.9194  1.8771
    6MOL    H59 2169   4.631   0.316   4.394  0.4031 -1.4519  0.7576
    6MOL    H60 2170   4.783   0.458   4.497 -0.5382  2.5782 -1.0770
    6MOL    H61 2171   4.718   0.418   4.652  0.0173 -1.6499 -0.3117
    6MOL    H62 2172   4.499   0.519   4.557 -0.0459 -1.0801  1.7251
    6MOL    H63 2173   4.599   0.588   4.423 -3.6302  0.2147  0.0763
    6MOL    H64 2174   4.626   0.627   4.594  0.6882 -0.8295 -0.0418
    6MOL    C65 2175   4.650   7.548   4.373 -0.2117  0.2536  0.2526
    6MOL    C66 2176   4.505   7.510   4.422 -0.5421  0.5333 -0.8615
    6MOL    C67 2177   4.396   7.605   4.383 -0.2561  0.0628 -0.0759
    6MOL    C68 2178   4.392   7.677   4.246  0.3477  0.5792  0.9953
    6MOL    C69 2179   4.275   0.073   4.254  0.4795  0.4430  0.1054
    6MOL    C70 2180   4.271   0.163   4.122 -0.4109 -0.0352 -0.5829
    6MOL    C71 2181   4.376   0.273   4.136  0.2205 -0.2414 -0.3441
    6MOL    H72 2182   4.655   7.581   4.269  1.3058  1.6114  0.7416
    6MOL    H73 2183   4.712   7.460   4.361  1.6356  1.4929  0.5475
    6MOL    H74 2184   4.489   7.424   4.357  0.8020 -1.7528  1.7399
    6MOL    H75 2185   4.298   7.562   4.401 -1.9243  3.2244 -1.3717
    6MOL    H76 2186   4.389   7.678   4.464  1.4662  2.5043 -2.0414
    6MOL    H77 2187   4.484   0.014   4.217  0.0610 -1.0968 -3.1181
    6MOL    H78 2188   4.352   7.615   4.166 -0.6512  0.1100  1.8401
    6MOL    H79 2189   4.185   0.012   4.253  0.7141  0.0866  0.6231
    6MOL    H80 2190   4.281   0.144   4.337 -0.1988  0.8878 -0.2145
    6MOL    H81 2191   4.170   0.204   4.117 -1.0072 -1.2732  0.8456
    6MOL    H82 2192   4.282   0.102   4.033 -0.7644 -0.5067 -0.3040
    6MOL    H83 2193   4.336   0.336   4.215 -0.3195 -0.2175 -0.6322
    6MOL    H84 2194   4.476   0.239   4.164  0.2359  0.3918  0.3686
    6MOL    H85 2195   4.388   0.331   4.044 -0.7888 -0.1777 -0.4424
    6MOL    C86 2196   4.508   7.465   4.566 -0.4958  0.3930 -0.5827
    6MOL    C87 2197   4.367   7.434   4.629  0.1318  0.0489  0.2799
    6MOL    C88 2198   4.309   7.313   4.560  0.1139  0.0534 -0.2758
    6MOL    C89 2199   4.153   7.309   4.586 -0.7245  0.0652  0.3700
    6MOL    C90 2200   4.070   7.187   4.533  0.3363 -0.2732 -0.1688
    6MOL    C91 2201   3.932   7.192   4.598 -0.5014 -0.6499 -0.7844
    6MOL    C92 2202   3.818   7.126   4.525  0.0816 -0.4380  0.3558
    6MOL    H93 2203   4.568   7.374   4.566  1.7548  1.8405 -0.7405
    6MOL    H94 2204   4.555   7.537   4.633 -0.3017  1.5292 -1.9150
    6MOL    H95 2205   4.309   7.527   4.629 -2.2407 -1.3616  2.7732
    6MOL    H96 2206   4.320   7.320   4.452 -5.4414  0.8952 -0.9494
    6MOL    H97 2207   4.349   7.222   4.604 -0.6670  0.3825  1.1484
    6MOL    H98 2208   4.143   7.308   4.694 -1.0287 -0.8837  0.3432
    6MOL    H99 2209   4.104   7.401   4.556  1.8916  1.1118 -0.8756
    6MOL   H100 2210   4.127   7.100   4.565  1.3839 -0.2092 -1.8542
    6MOL   H101 2211   4.071   7.189   4.424  1.5996  1.8681 -0.1333
    6MOL   H102 2212   3.936   7.156   4.701  0.6341  0.5208 -0.4039
    6MOL   H103 2213   3.889   7.291   4.611 -1.8364 -1.5490  2.0161
    6MOL   H104 2214   3.735   7.097   4.589 -0.0267  0.0738  0.4443
    6MOL   H105 2215   3.852   7.040   4.466  1.7076 -1.0709  2.1715
    6MOL   H106 2216   3.775   7.202   4.459 -0.2296 -1.3893 -0.5545
    6MOL   C107 2217   4.381   7.402   4.778 -0.7872 -0.4174 -0.3030
    6MOL   C108 2218   4.445   7.504   4.878 -0.3040 -0.0576 -0.2423
    6MOL   C109 2219   4.600   7.493   4.903  0.6542  0.3832 -0.3959
    6MOL   C110 2220   4.647   7.532   5.037  0.2284  0.4825  0.1315
    6MOL   C111 2221   4.806   7.536   5.044 -0.5927  0.3316  0.0536
    6MOL   C112 2222   4.860   7.552   5.190  0.7853  0.3836  0.1074
    6MOL   C113 2223   4.805   7.680   5.259 -0.8658  0.3046 -0.2512
    6MOL   H114 2224   4.424   7.302   4.783 -0.6284 -0.3434 -0.1565
    6MOL   H115 2225   4.277   7.396   4.812 -0.6787  0.0255  0.1216
    6MOL   H116 2226   4.406   7.472   4.975  0.6886 -0.6355 -0.0244
    6MOL   H117 2227   4.656   7.559   4.836  0.5465  0.9754  0.0880
    6MOL   H118 2228   4.623   7.387   4.889 -0.8659 -0.0258  0.1022
    6MOL   H119 2229   4.604   7.625   5.075  0.2622  0.5786 -0.0639
    6MOL   H120 2230   4.616   7.463   5.116 -0.5724 -1.2138 -1.6236
    6MOL   H121 2231   4.861   7.607   4.983  1.1074 -1.9482 -1.1318
    6MOL   H122 2232   4.838   7.435   5.018  2.3088  0.9933  0.9442
    6MOL   H123 2233   4.828   7.471   5.257 -1.1328 -1.4700 -2.9088
    6MOL   H124 2234   4.968   7.542   5.182  0.6642  1.0624 -2.5576
    6MOL   H125 2235   4.826   0.059   5.205 -0.6873  0.1793 -0.3986
    6MOL   H126 2236   4.699   7.681   5.282 -0.6568 -0.5049  0.8060
    6MOL   H127 2237   4.860   7.678   5.353 -0.0119  1.1058 -0.7282
    6MOL   C128 2238   4.412   7.653   4.851 -0.7922 -0.1372 -0.6067
    6MOL   C129 2239   4.268   7.708   4.884 -0.0055 -0.3745  0.2255
    6MOL   C130 2240   4.246   0.142   4.843 -1.3349 -0.2006 -0.2929
    6MOL   C131 2241   4.290   0.192   4.707  0.7312 -0.5467  0.3238
    6MOL   C132 2242   4.241   0.339   4.684 -0.6785 -0.3762 -1.0821
    6MOL   C133 2243   4.232   0.381   4.539  0.7262  0.2883  0.0687
    6MOL   C134 2244   4.155   0.516   4.526 -0.4465  0.2347 -0.0099
    6MOL   H135 2245   4.481   0.005   4.904 -0.9449  1.2066 -2.0136
    6MOL   H136 2246   4.424   7.666   4.743 -1.5694 -2.3146 -0.9787
    6MOL   H137 2247   4.198   7.652   4.823 -1.3982 -0.8327  2.1743
    6MOL   H138 2248   4.307   0.195   4.916 -3.3382  0.3363  1.0333
    6MOL   H139 2249   4.140   0.161   4.860 -1.3200 -1.6704  1.6741
    6MOL   H140 2250   4.229   0.134   4.638  1.4253 -0.9077  0.0175
    6MOL   H141 2251   4.396   0.187   4.683  0.9050  1.8299  0.4903
    6MOL   H142 2252   4.315   0.401   4.735  0.9110 -2.3705 -0.9063
    6MOL   H143 2253   4.143   0.355   4.728  1.2272  1.4731  2.7651
    6MOL   H144 2254   4.180   0.304   4.482  0.7833 -0.8953  1.5645
    6MOL   H145 2255   4.335   0.387   4.504  0.4603  0.4664 -0.6872
    6MOL   H146 2256   4.064   0.520   4.587 -0.0815  0.0645  0.5461
    6MOL   H147 2257   4.137   0.535   4.420  1.2043 -2.9129 -0.8977
    6MOL   H148 2258   4.209   0.602   4.564  1.5333 -0.5894 -0.9260
    6MOL   C149 2259   4.227   7.684   5.030  0.3822  0.7004 -0.1917
    6MOL   C150 2260   4.162   7.554   5.063  0.0534 -0.2045  0.2197
    6MOL   C151 2261   4.009   7.568   5.058  0.0634 -0.0126  0.7798
    6MOL   C152 2262   3.945   7.612   4.920 -0.0058  0.2112 -0.0000
    6MOL   C153 2263   3.798   7.558   4.904  0.7920 -0.3632  0.1316
    6MOL   C154 2264   3.738   7.582   4.765 -0.1461  0.0606  0.6266
    6MOL   C155 2265   3.604   7.533   4.730  0.2691 -0.3437 -0.8676
    6MOL   H156 2266   4.320   7.696   5.086 -0.3655  0.2993  1.1614
    6MOL   H157 2267   4.167   0.058   5.056  0.4719  0.8397 -0.4483
    6MOL   H158 2268   4.196   7.481   4.990  1.5751  0.1649  0.5285
    6MOL   H159 2269   3.963   7.474   5.088  0.8442 -0.4628  0.5861
    6MOL   H160 2270   3.975   7.639   5.134 -3.5381  1.1787 -1.8138
    6MOL   H161 2271   3.994   7.558   4.839 -0.5460 -2.9389  1.6892
    6MOL   H162 2272   3.952   0.004   4.893 -4.1401 -0.1672 -3.1227
    6MOL   H163 2273   3.721   7.595   4.971  1.1900  0.9606 -0.1382
    6MOL   H164 2274   3.795   7.452   4.929 -0.9334 -0.3662 -0.0868
    6MOL   H165 2275   3.814   7.557   4.691 -0.1886 -0.6530  0.8172
    6MOL   H166 2276   3.743   7.690   4.764 -0.3635  0.0712  0.7496
    6MOL   H167 2277   3.575   7.585   4.639 -0.7911 -0.8290 -0.8194
    6MOL   H168 2278   3.550   7.579   4.812 -0.6938 -2.3312 -0.3485
    6MOL   H169 2279   3.589   7.425   4.727  1.7388 -0.6235  1.1650
    6MOL   C170 2280   4.205   7.514   5.201 -0.3233 -0.3493 -0.0544
    6MOL   C171 2281   4.178   7.372   5.247  0.0140 -0.6596 -0.3627
    6MOL   C172 2282   4.271   7.263   5.201 -0.3024  0.7681  0.3334
    6MOL   C173 2283   4.211   7.166   5.098 -0.0865  0.1302 -0.6843
    6MOL   C174 2284   4.305   7.052   5.069  1.1314  0.5284  0.4557
    6MOL   C175 2285   4.224   6.933   5.002  0.1083 -0.7200 -0.2424
    6MOL   C176 2286   4.178   6.963   4.859  0.0105  0.2609  0.4228
    6MOL   H177 2287   4.162   7.586   5.271 -0.2054  0.9611 -1.3182
    6MOL   H178 2288   4.312   7.527   5.212  0.1143 -1.8186 -2.3468
    6MOL   H179 2289   4.081   7.347   5.202 -1.8653  0.6113  2.8313
    6MOL   H180 2290   4.301   7.203   5.287 -0.1594 -3.8196 -2.6793
    6MOL   H181 2291   4.370   7.295   5.168 -0.9232  2.6929  0.3034
    6MOL   H182 2292   4.184   7.224   5.009 -0.4542  1.9145  0.5745
    6MOL   H183 2293   4.121   7.122   5.138  2.3915 -2.2129  2.5844
    6MOL   H184 2294   4.346   7.013   5.162 -0.3497 -1.1548  0.4411
    6MOL   H185 2295   4.382   7.086   5.000  2.0925  0.4732  1.4810
    6MOL   H186 2296   4.140   6.903   5.064  0.0389 -1.4195 -0.6706
    6MOL   H187 2297   4.300   6.855   5.001  2.1703  1.2096  0.9884
    6MOL   H188 2298   4.251   7.023   4.804 -0.4458  0.8143  0.4189
    6MOL   H189 2299   4.088   7.024   4.856  1.0026  1.7005 -0.7297
    6MOL   H190 2300   4.162   6.867   4.809  0.7438  0.5544 -0.3965
    6MOL   C191 2301   4.153   7.355   5.399 -0.6779 -0.8903  0.3822
    6MOL   C192 2302   4.247   7.416   5.504  0.2146  0.2671  0.0676
    6MOL   C193 2303   4.219   7.359   5.645  0.0371  0.4832 -0.2648
    6MOL   C194 2304   4.079   7.375   5.697 -0.3278  0.0270  0.9197
    6MOL   C195 2305   4.040   7.510   5.746 -0.6977 -0.2652 -0.0514
    6MOL   C196 2306   3.894   7.501   5.787  0.1376  0.7145  0.0116
    6MOL   C197 2307   3.862   7.626   5.862 -0.1244  0.5914  0.6347
    6MOL   H198 2308   4.125   7.251   5.414  0.9584 -1.4128 -0.1195
    6MOL   H199 2309   4.063   7.414   5.418 -0.1269  0.1391 -0.1238
    6MOL   H200 2310   4.221   7.521   5.497  0.1911  0.1032 -2.7291
    6MOL   H201 2311   4.288   7.398   5.720 -2.1612 -1.7089  3.0502
    6MOL   H202 2312   4.244   7.253   5.643  1.1504  0.7479 -0.9038
    6MOL   H203 2313   4.068   7.311   5.784  0.7745 -0.5722  0.6306
    6MOL   H204 2314   4.007   7.331   5.628  0.9511  2.0033 -1.7634
    6MOL   H205 2315   4.097   7.535   5.836 -1.6187  0.2032  0.4112
    6MOL   H206 2316   4.063   7.579   5.664 -1.2829  0.3849  0.3270
    6MOL   H207 2317   3.862   7.418   5.850 -3.3532  0.7988 -1.5152
    6MOL   H208 2318   3.830   7.506   5.699 -1.5684  1.1817  1.2499
    6MOL   H209 2319   3.902   7.624   5.963 -2.5174 -1.8518  1.6028
    6MOL   H210 2320   3.757   7.636   5.889 -0.1564  1.5297  0.1795
    6MOL   H211 2321   3.891   0.001   5.806  2.0048 -0.3187  0.2629
    6MOL   C212 2322   4.397   7.414   5.485 -0.2876  0.1432  0.5655
    6MOL   C213 2323   4.472   7.538   5.546 -0.1715 -0.0637  0.0119
    6MOL   C214 2324   4.625   7.513   5.563  0.2661 -0.0420  0.6576
    6MOL   C215 2325   4.677   7.408   5.666  0.8872 -0.0587 -0.5052
    6MOL   C216 2326   4.830   7.403   5.681 -0.3720 -0.5080 -0.2802
    6MOL   C217 2327   4.891   7.266   5.710  0.6507 -0.1422 -0.3466
    6MOL   C218 2328   4.866   7.223   5.859 -0.1041  0.0877 -0.4478
    6MOL   H219 2329   4.420   7.406   5.378 -0.9503 -0.5670  0.4696
    6MOL   H220 2330   4.438   7.320   5.523  1.2240  1.1312  1.4253
    6MOL   H221 2331   4.434   7.536   5.647 -0.5273 -1.1008 -0.1470
    6MOL   H222 2332   4.667   7.489   5.466 -0.8186  1.2024 -0.1241
    6MOL   H223 2333   4.682   7.602   5.588 -1.5513  0.4968  3.1078
    6MOL   H224 2334   4.645   7.310   5.629  0.3036 -0.3029  0.6220
    6MOL   H225 2335   4.635   7.422   5.766  1.0752 -0.5109 -0.3587
    6MOL   H226 2336   4.862   7.436   5.582 -0.8849 -1.2693 -0.6985
    6MOL   H227 2337   4.863   7.467   5.763 -0.5961  0.1798 -0.7195
    6MOL   H228 2338   4.843   7.192   5.645  1.3782 -0.1798 -0.8483
    6MOL   H229 2339   4.996   7.256   5.682  0.7629  1.0767 -0.3967
    6MOL   H230 2340   4.783   7.274   5.906 -1.6035 -1.5861 -1.1998
    6MOL   H231 2341   4.948   7.251   5.924 -3.0696  3.4136  2.0041
    6MOL   H232 2342   4.852   7.115   5.865 -1.1136  0.0552 -2.6593
    6MOL   C233 2343   4.445   7.668   5.450 -0.3153 -0.0027  0.7551
    6MOL   C234 2344   4.473   0.092   5.529 -0.0037  0.3741 -0.9233
    6MOL   C235 2345   4.508   0.206   5.427 -1.2107 -0.2638  0.1409
    6MOL   C236 2346   4.395   0.240   5.319  0.0915 -0.9892 -0.1980
    6MOL   C237 2347   4.431   0.348   5.221 -0.6212 -0.1920 -0.0787
    6MOL   C238 2348   4.523   0.289   5.111  0.1294  0.0990 -0.6154
    6MOL   C239 2349   4.543   0.388   4.998 -0.2923 -0.1830 -0.4235
    6MOL   H240 2350   4.348   7.668   5.399  0.3192  0.5874 -0.4797
    6MOL   H241 2351   4.516   7.658   5.369 -0.2703 -0.3536  0.8388
    6MOL   H242 2352   4.567   0.070   5.579 -0.1645 -0.9089 -1.1589
    6MOL   H243 2353   4.595   0.173   5.370 -0.4693  1.5097  0.2282
    6MOL   H244 2354   4.532   0.295   5.485  1.4849 -0.1200 -1.1126
    6MOL   H245 2355   4.306   0.286   5.361 -0.4410 -1.0399 -1.2516
    6MOL   H246 2356   4.370   0.146   5.269 -0.6805 -1.0401  0.2771
    6MOL   H247 2357   4.481   0.433   5.268 -0.3660 -0.9127  0.9696
    6MOL   H248 2358   4.339   0.391   5.180  0.0099 -0.7676 -2.1571
    6MOL   H249 2359   4.618   0.270   5.161  0.6117  1.7377 -0.8823
    6MOL   H250 2360   4.471   0.200   5.075 -1.4882  1.3149 -1.3178
    6MOL   H251 2361   4.444   0.412   4.960 -1.3222 -2.7297  0.5823
    6MOL   H252 2362   4.606   0.472   5.029 -2.1076  0.7039  0.9719
    6MOL   H253 2363   4.596   0.340   4.916  0.5136 -1.5649  0.8920
    6MOL   C254 2364   4.357   0.131   5.620  0.3690 -0.2758 -0.3202
    6MOL   C255 2365   4.401   0.230   5.732  0.2303 -0.2372  0.1611
    6MOL   C256 2366   4.485   0.161   5.844 -0.5363 -0.3570 -0.3744
    6MOL   C257 2367   4.429   0.041   5.916  0.1836 -0.0393  0.3010
    6MOL   C258 2368   4.531   7.688   6.011  0.2999  0.2027  0.2679
    6MOL   C259 2369   4.480   7.566   6.080 -0.7908  0.3059  0.1003
    6MOL   C260 2370   4.577   7.517   6.188  0.3930 -0.8340  0.0803
    6MOL   H261 2371   4.319   0.039   5.664 -2.3160  0.3780 -1.1613
    6MOL   H262 2372   4.273   0.152   5.553  0.6736  0.6126 -0.4339
    6MOL   H263 2373   4.459   0.318   5.703 -1.3949  1.2319  1.2331
    6MOL   H264 2374   4.516   0.238   5.914 -2.0431  0.0120 -0.1093
    6MOL   H265 2375   4.581   0.122   5.810 -0.0970 -0.3154  0.7966
    6MOL   H266 2376   4.338   0.069   5.970  1.2406  0.3623  1.9326
    6MOL   H267 2377   4.402   7.676   5.846 -0.8641  2.1412 -1.8221
    6MOL   H268 2378   4.548   0.051   6.087  0.5221  1.3730 -0.9462
    6MOL   H269 2379   4.621   7.656   5.957  1.3047  1.2738  1.2711
    6MOL   H270 2380   4.383   7.584   6.127 -2.1296 -2.1122 -1.5852
    6MOL   H271 2381   4.458   7.485   6.010 -1.3801  0.0085  0.6189
    6MOL   H272 2382   4.632   7.596   6.240 -0.2206  0.0445 -0.5910
    6MOL   H273 2383   4.535   7.437   6.249  2.0688 -0.6542  1.5084
    6MOL   H274 2384   4.654   7.468   6.129  1.5718 -0.0443  0.9463
    6MOL   C275 2385   4.271   0.295   5.787  0.0365 -0.0723 -0.0570
    6MOL   C276 2386   4.198   0.395   5.700  0.7176 -0.4057 -0.3282
    6MOL   C277 2387   4.283   0.522   5.683  0.7312 -0.0729 -0.6464
    6MOL   C278 2388   4.292   0.565   5.532  0.4064  0.2116 -0.1806
    6MOL   C279 2389   4.369   0.699   5.516  0.3508 -0.4033  0.5720
    6MOL   C280 2390   4.376   0.744   5.376 -0.2115  0.4924  0.0726
    6MOL   C281 2391   4.475   0.856   5.346  0.0800  0.4003  0.7704
    6MOL   H282 2392   4.307   0.349   5.875  0.0768  0.4856 -0.4097
    6MOL   H283 2393   4.211   0.212   5.823  1.7184 -0.8228  1.0892
    6MOL   H284 2394   4.178   0.361   5.599  0.4342 -1.6135  0.1156
    6MOL   H285 2395   4.231   0.597   5.743 -2.5198 -1.4688 -1.5987
    6MOL   H286 2396   4.383   0.512   5.725  1.3220  0.6545 -1.8524
    6MOL   H287 2397   4.195   0.582   5.486  0.9338  3.1424 -0.3367
    6MOL   H288 2398   4.342   0.483   5.482  1.2323 -0.9091  2.3908
    6MOL   H289 2399   4.468   0.687   5.560  1.7770 -0.0831 -2.4089
    6MOL   H290 2400   4.329   0.771   5.587 -1.8298  0.5752 -1.5911
    6MOL   H291 2401   4.389   0.663   5.304 -0.7052 -0.0668  0.5954
    6MOL   H292 2402   4.280   0.792   5.356  0.1014  0.7485 -0.8434
    6MOL   H293 2403   4.458   0.882   5.242 -3.6250  1.0960  1.4921
    6MOL   H294 2404   4.576   0.815   5.335  0.4587  1.3889  0.4996
    6MOL   H295 2405   4.487   0.943   5.411 -1.6979  1.5203 -0.3485
    6MOL   C296 2406   4.054   0.432   5.757  0.0805 -0.6838  0.3396
    6MOL   C297 2407   3.946   0.320   5.759  0.0374  0.7665 -0.2329
    6MOL   C298 2408   3.888   0.295   5.612  0.0433 -0.1608  0.4160
    6MOL   C299 2409   3.831   0.154   5.583 -0.0332  0.2311  0.0127
    6MOL   C300 2410   3.782   0.153   5.439 -0.0132 -0.1853 -0.1338
    6MOL   C301 2411   3.739   0.017   5.391  0.7536 -0.2951  0.4864
    6MOL   C302 2412   3.698   0.019   5.247 -0.3547  0.0979 -0.2675
    6MOL   H303 2413   4.056   0.459   5.862  1.2444  0.6720 -0.0044
    6MOL   H304 2414   4.020   0.528   5.719  1.8781 -1.1263 -2.5908
    6MOL   H305 2415   3.995   0.226   5.783 -1.5559 -0.1873 -0.6709
    6MOL   H306 2416   3.816   0.375   5.600  0.3005 -0.0904 -0.7455
    6MOL   H307 2417   3.967   0.300   5.537  1.3273 -1.9026  1.5981
    6MOL   H308 2418   3.752   0.120   5.650  1.7879 -0.9632  1.6077
    6MOL   H309 2419   3.916   0.088   5.601 -0.5064  0.0697  1.7561
    6MOL   H310 2420   3.862   0.185   5.373 -0.1863 -1.1591 -0.8294
    6MOL   H311 2421   3.708   0.228   5.409 -0.1729 -0.9583 -1.7316
    6MOL   H312 2422   3.825   7.663   5.395  1.2516  0.1982 -1.2671
    6MOL   H313 2423   3.657   7.689   5.448  1.3250  0.2183  1.7017
    6MOL   H314 2424   3.615   0.087   5.225 -0.5063 -0.0820 -0.2569
    6MOL   H315 2425   3.779   0.031   5.176 -1.8151  2.3998 -1.6117
    6MOL   H316 2426   3.661   7.635   5.215 -0.4965 -0.6708  2.1619
    6MOL   C317 2427   3.825   0.348   5.854 -0.5584  0.1328 -0.2916
    6MOL   C318 2428   3.844   0.330   6.004 -0.5538  0.2193 -0.2471
    6MOL   C319 2429   3.744   0.412   6.074  0.4735 -0.3228  0.2623
    6MOL   C320 2430   3.783   0.561   6.087  0.0946  0.0963 -0.1980
    6MOL   C321 2431   3.660   0.660   6.104  0.2095 -0.2286  0.7948
    6MOL   C322 2432   3.590   0.663   6.241  0.4013 -0.0851  0.4341
    6MOL   C323 2433   3.436   0.700   6.219 -0.1063  0.1881 -0.1030
    6MOL   H324 2434   3.742   0.283   5.829 -1.6982  0.6590  2.0304
    6MOL   H325 2435   3.793   0.449   5.829 -0.7611  0.5484  1.6131
    6MOL   H326 2436   3.942   0.370   6.027 -0.0859 -0.5750 -0.8049
    6MOL   H327 2437   3.728   0.374   6.175  0.5027  0.0979  0.4244
    6MOL   H328 2438   3.646   0.389   6.031  0.3745 -0.2893  0.4674
    6MOL   H329 2439   3.840   0.598   6.002  2.1165  1.6628  1.8009
    6MOL   H330 2440   3.842   0.569   6.178  0.5788 -0.8114 -0.4275
    6MOL   H331 2441   3.591   0.646   6.021 -0.2987  0.5714  1.0689
    6MOL   H332 2442   3.704   0.759   6.093 -3.3378  1.1377 -2.1346
    6MOL   H333 2443   3.641   0.739   6.300 -0.2011  1.0650 -0.5036
    6MOL   H334 2444   3.595   0.570   6.298  0.0244 -0.0448  0.5355
    6MOL   H335 2445   3.425   0.783   6.150  0.9470  1.1828  0.8899
    6MOL   H336 2446   3.387   0.737   6.309  0.4225 -0.2952  0.3876
    6MOL   H337 2447   3.381   0.615   6.178 -1.3565 -0.0893  2.0388
    6MOL   C338 2448   3.839   0.182   6.051 -0.5947  0.5076  0.4654
    6MOL   C339 2449   3.863   0.154   6.201 -0.3848  0.5835 -0.0270
    6MOL   C340 2450   3.975   0.239   6.266  0.6588 -0.4264  0.4870
    6MOL   C341 2451   4.119   0.229   6.205 -0.0355 -0.5066  0.0012
    6MOL   C342 2452   4.228   0.267   6.303  0.0456 -0.2525  0.4136
    6MOL   C343 2453   4.367   0.258   6.243  0.1166 -0.1606  0.0842
    6MOL   C344 2454   4.483   0.283   6.334  0.3234 -0.2140 -0.3219
    6MOL   H345 2455   3.922   0.137   5.997  0.2621  0.8016  1.5209
    6MOL   H346 2456   3.758   0.124   6.007  1.1718 -1.6087 -0.0552
    6MOL   H347 2457   3.764   0.152   6.247 -0.6157 -1.5149 -0.5430
    6MOL   H348 2458   3.946   0.344   6.265 -1.3197 -0.9519 -0.9307
    6MOL   H349 2459   3.993   0.216   6.371  2.2567 -0.6089  0.1960
    6MOL   H350 2460   4.117   0.290   6.114  0.6945 -1.7818 -0.8815
    6MOL   H351 2461   4.133   0.131   6.159  0.4051 -0.2078 -0.5076
    6MOL   H352 2462   4.208   0.367   6.341 -0.3022  0.5866 -1.9261
    6MOL   H353 2463   4.219   0.203   6.391  1.3223 -0.5548  0.3344
    6MOL   H354 2464   4.379   0.161   6.196 -1.0010 -0.7675  1.0357
    6MOL   H355 2465   4.367   0.330   6.161 -2.1229 -1.0423 -0.7019
    6MOL   H356 2466   4.468   0.388   6.361 -1.1275  0.4975 -3.5686
    6MOL   H357 2467   4.581   0.266   6.290 -0.3869 -0.4538 -1.8471
    6MOL   H358 2468   4.476   0.234   6.431  0.1276  0.7159  0.1456
    6MOL   C359 2469   3.886   7.713   6.217 -0.0564 -0.4753 -0.4881
    6MOL   C360 2470   3.915   7.658   6.361  0.1501  0.1948  0.2079
    6MOL   C361 2471   3.790   7.675   6.451 -0.3736  0.2338  0.8274
    6MOL   C362 2472   3.656   7.610   6.403  0.1286 -0.8688 -0.3094
    6MOL   C363 2473   3.553   7.622   6.519 -0.1322  0.6140 -0.1290
    6MOL   C364 2474   3.418   7.567   6.476  0.0057  0.0672 -0.7634
    6MOL   C365 2475   3.303   7.585   6.582 -0.1651  0.2792 -0.5727
    6MOL   H366 2476   3.970   7.690   6.151  1.2487  0.3573  0.8439
    6MOL   H367 2477   3.798   7.662   6.177 -0.2859  1.4428 -2.4942
    6MOL   H368 2478   3.997   0.008   6.393 -1.3462  2.4753 -0.3645
    6MOL   H369 2479   3.807   7.640   6.553 -0.1037  2.4859  1.5884
    6MOL   H370 2480   3.770   0.068   6.463 -2.4899  0.1620 -1.4924
    6MOL   H371 2481   3.612   7.665   6.320  0.1734  1.8144  1.3963
    6MOL   H372 2482   3.672   7.506   6.376  0.6977 -1.6645  2.8431
    6MOL   H373 2483   3.593   7.558   6.599  1.6137  0.1843 -1.3167
    6MOL   H374 2484   3.533   0.011   6.548 -0.6310  0.2726  0.7702
    6MOL   H375 2485   3.388   7.627   6.390 -0.0056 -0.5182 -1.1704
    6MOL   H376 2486   3.418   7.466   6.435 -0.0597 -0.3204  0.1814
    6MOL   H377 2487   3.258   7.685   6.585 -0.7393 -0.0202  2.8074
    6MOL   H378 2488   3.230   7.505   6.568 -0.6412  0.4822  0.7452
    6MOL   H379 2489   3.344   7.571   6.682 -2.3383  0.5488  0.3844
    6MOL   C380 2490   3.964   7.510   6.368 -0.2548  0.0833  0.0041
    6MOL   C381 2491   4.112   7.488   6.334 -0.1697 -0.0493  0.0228
    6MOL   C382 2492   4.202   7.537   6.449  0.1428 -0.7672 -0.3976
    6MOL   C383 2493   4.207   7.455   6.581 -0.1572 -0.8012 -0.4954
    6MOL   C384 2494   4.277   7.532   6.700  0.3200  0.4817  0.2879
    6MOL   C385 2495   4.431   7.557   6.689  0.7937  0.0111  0.4471
    6MOL   C386 2496   4.458   7.699   6.629  0.1300  0.3272  0.6148
    6MOL   H387 2497   3.935   7.468   6.464 -0.5055 -0.1231 -0.1638
    6MOL   H388 2498   3.899   7.463   6.295  0.6648  0.5809 -1.1569
    6MOL   H389 2499   4.127   7.555   6.249  1.1473  0.9951  1.0534
    6MOL   H390 2500   4.169   7.637   6.473  1.8380 -0.5183  0.9893
    6MOL   H391 2501   4.302   7.544   6.406  0.5979  1.8509  1.0168
    6MOL   H392 2502   4.102   7.439   6.605 -0.5980  0.1952 -1.7641
    6MOL   H393 2503   4.239   7.351   6.575 -1.4801 -1.1861 -1.0497
    6MOL   H394 2504   4.210   7.615   6.723  0.0709  0.5196 -0.5541
    6MOL   H395 2505   4.254   7.467   6.784 -0.4226  0.9288  0.4384
    6MOL   H396 2506   4.470   7.477   6.627 -0.3658  2.2590 -3.3359
    6MOL   H397 2507   4.473   7.548   6.789  1.6804 -0.2416  0.0569
    6MOL   H398 2508   4.390   7.711   6.545 -0.7476 -1.0501  1.1102
    6MOL   H399 2509   4.562   7.699   6.597  0.0365  0.6340  0.3116
    6MOL   H400 2510   4.452   0.074   6.692  0.9524 -0.4992  1.8786
    6MOL   C401 2511   4.139   7.342   6.308 -0.2412  0.0277  0.2505
    6MOL   C402 2512   4.109   7.293   6.170  0.0318  0.0971 -0.1811
    6MOL   C403 2513   4.106   7.141   6.159 -0.9221  0.4810 -0.6034
    6MOL   C404 2514   4.076   7.100   6.022 -0.9508 -0.5550 -0.4128
    6MOL   C405 2515   4.109   6.947   5.989  0.0806  0.2579  0.9510
    6MOL   C406 2516   4.108   6.916   5.839  0.7267  0.0534  0.5023
    6MOL   C407 2517   4.177   6.786   5.822  0.2156  0.9740  0.3933
    6MOL   H408 2518   4.085   7.280   6.380 -0.1996 -2.3020 -1.6681
    6MOL   H409 2519   4.243   7.315   6.327 -0.3098 -0.7335 -0.4027
    6MOL   H410 2520   4.183   7.331   6.100 -0.3824  0.2730 -0.5222
    6MOL   H411 2521   4.023   7.103   6.218 -1.5397  0.4857 -1.4498
    6MOL   H412 2522   4.197   7.092   6.193 -2.7242 -2.4329  0.1983
    6MOL   H413 2523   4.120   7.169   5.950 -1.4084 -0.1313 -0.2895
    6MOL   H414 2524   3.968   7.113   6.012 -0.9139  0.2940  0.1333
    6MOL   H415 2525   4.201   6.920   6.039  0.1789  0.4010  0.8487
    6MOL   H416 2526   4.027   6.894   6.038 -1.3907  3.6255  2.3290
    6MOL   H417 2527   4.008   6.909   5.796  1.4787  1.5592 -1.6119
    6MOL   H418 2528   4.152   7.001   5.787  1.1122  0.3043  1.2379
    6MOL   H419 2529   4.130   6.709   5.882  0.3269  0.7862  0.2423
    6MOL   H420 2530   4.279   6.789   5.860 -0.3624 -1.1301  2.1977
    6MOL   H421 2531   4.188   6.762   5.716  0.0585 -0.0582  0.6121
    6MOL   H422 2532   4.012   7.328   6.135 -0.5271  0.4877  1.6654
    7MOL     C1 2533   5.520   5.593   1.891  0.2168 -0.5214 -0.3579
    7MOL     C2 2534   5.522   5.461   1.970  0.3370 -0.5992  0.8155
    7MOL     C3 2535   5.526   5.336   1.884  0.0030  0.5292 -0.2340
    7MOL     C4 2536   5.639   5.325   1.783  0.1959  0.4119  0.2071
    7MOL     C5 2537   5.642   5.192   1.701 -0.1982 -0.8285  0.2971
    7MOL     C6 2538   5.747   5.174   1.582  0.1206 -0.1253 -0.0978
    7MOL     C7 2539   5.783   5.290   1.501 -0.2258  0.4379  0.0302
    7MOL     H8 2540   5.514   5.673   1.965  0.2003 -0.2194 -0.6859
    7MOL     H9 2541   5.435   5.597   1.823 -0.4168 -0.7373  0.4109
    7MOL    H10 2542   5.599   5.474   2.046 -0.4662  0.3845  1.4795
    7MOL    H11 2543   5.537   5.251   1.952 -0.6693 -1.1004 -2.0847
    7MOL    H12 2544   5.427   5.324   1.840 -0.6018 -0.6964  1.4259
    7MOL    H13 2545   5.622   5.397   1.703 -0.9879  0.6199  0.6363
    7MOL    H14 2546   5.739   5.349   1.818  0.3468  0.0907  0.0030
    7MOL    H15 2547   5.544   5.186   1.653  0.1719 -0.0378 -0.5558
    7MOL    H16 2548   5.641   5.100   1.760 -2.6068 -1.8672 -1.2739
    7MOL    H17 2549   5.713   5.092   1.519 -0.3462  1.0153 -1.3415
    7MOL    H18 2550   5.845   5.136   1.612  0.6668 -0.0965 -1.7889
    7MOL    H19 2551   5.693   5.324   1.449 -0.7476 -0.1468  0.5324
    7MOL    H20 2552   5.864   5.275   1.430 -0.0174 -2.0879  0.7646
    7MOL    H21 2553   5.823   5.357   1.578 -1.3163  0.9858  0.1458
    7MOL    H22 2554   5.613   5.605   1.835  0.4109 -1.1359 -0.1764
    7MOL    C23 2555   5.397   5.449   2.064 -0.7507 -0.5535  0.4678
    7MOL    C24 2556   5.415   5.388   2.205  0.2364 -1.2073 -0.0993
    7MOL    C25 2557   5.274   5.365   2.274 -0.2696  0.4692 -0.1500
    7MOL    C26 2558   5.289   5.286   2.409  0.0498 -0.1660 -0.4510
    7MOL    C27 2559   5.156   5.288   2.496 -0.3102  1.6575  1.0438
    7MOL    C28 2560   5.163   5.216   2.634 -0.1335  0.4636 -0.7678
    7MOL    C29 2561   5.026   5.224   2.701 -0.2958  0.1637 -0.1377
    7MOL    H30 2562   5.361   5.551   2.072  3.4107  1.0047  0.0716
    7MOL    H31 2563   5.317   5.391   2.017 -3.2878  1.3212  2.2831
    7MOL    H32 2564   5.459   5.289   2.198 -0.8158 -1.5747 -1.6890
    7MOL    H33 2565   5.198   5.306   2.222  0.9289 -1.6793  0.4729
    7MOL    H34 2566   5.231   5.460   2.303 -2.3034 -1.1639  2.4647
    7MOL    H35 2567   5.359   5.345   2.468 -0.7839 -1.0934  1.5290
    7MOL    H36 2568   5.334   5.188   2.397  0.0985 -0.4292  1.7053
    7MOL    H37 2569   5.069   5.256   2.439  1.0532 -0.4226  0.0999
    7MOL    H38 2570   5.142   5.392   2.527  0.7802  1.9170  0.6899
    7MOL    H39 2571   5.237   5.271   2.693  0.4577  1.0735 -2.0639
    7MOL    H40 2572   5.195   5.113   2.620  2.0553  0.7318  1.7377
    7MOL    H41 2573   4.947   5.168   2.650 -0.1662 -1.1995  1.1258
    7MOL    H42 2574   5.033   5.184   2.802  1.6149  1.2370  0.1793
    7MOL    H43 2575   4.993   5.327   2.712  0.2173  0.6671 -2.9660
    7MOL    C44 2576   5.505   5.480   2.294  0.1362 -0.7219  0.0418
    7MOL    C45 2577   5.643   5.429   2.349 -0.4629  0.3290 -0.3113
    7MOL    C46 2578   5.714   5.542   2.432  0.1780 -0.5291  0.1146
    7MOL    C47 2579   5.728   5.689   2.378 -0.1501  0.4220  0.0974
    7MOL    C48 2580   5.801   5.702   2.235  0.4777 -0.5855 -0.3438
    7MOL    C49 2581   5.815   5.850   2.194  0.2711  0.2421 -0.2299
    7MOL    C50 2582   5.861   5.854   2.047 -0.4137  0.5334 -0.3635
    7MOL    H51 2583   5.441   5.526   2.371 -0.3730  0.8654 -1.2907
    7MOL    H52 2584   5.525   5.572   2.239  0.0659 -2.0627 -2.2822
    7MOL    H53 2585   5.712   5.418   2.265  1.6791 -1.0811  1.5867
    7MOL    H54 2586   5.807   5.501   2.472  2.6509  4.4593 -0.0874
    7MOL    H55 2587   5.652   5.547   2.521 -1.0776 -0.1081 -0.7638
    7MOL    H56 2588   5.629   5.733   2.376 -0.6343 -0.6633  0.0951
    7MOL    H57 2589   5.792   5.740   2.450  1.6289 -1.0333 -0.3915
    7MOL    H58 2590   5.741   5.652   2.159  2.2638 -1.6730 -1.0592
    7MOL    H59 2591   5.896   5.648   2.235  1.0945  0.4816 -0.6365
    7MOL    H60 2592   5.888   5.888   2.265 -0.7719 -1.4931  1.8457
    7MOL    H61 2593   5.720   5.903   2.199  0.1743 -0.0544  1.0666
    7MOL    H62 2594   5.910   5.948   2.021 -0.5605  0.5254 -0.6645
    7MOL    H63 2595   5.775   5.829   1.985 -1.2306  1.9655  0.1676
    7MOL    H64 2596   5.930   5.770   2.032 -2.1607 -0.9797 -0.0756
    7MOL    C65 2597   5.623   5.301   2.438 -0.3265  0.6709  0.0506
    7MOL    C66 2598   5.752   5.227   2.487  0.0180 -0.7798 -0.4703
    7MOL    C67 2599   5.841   5.202   2.369  0.0144  1.1166  0.4215
    7MOL    C68 2600   5.787   5.115   2.248 -0.0828  0.3689  0.2372
    7MOL    C69 2601   5.867   5.133   2.116  0.4525 -0.0508 -0.0406
    7MOL    C70 2602   5.817   5.051   2.000 -0.6181 -0.1978 -0.7071
    7MOL    C71 2603   5.834   4.902   2.020 -0.1097  0.7414  0.3811
    7MOL    H72 2604   5.565   5.330   2.526  2.5028  2.8816  1.2775
    7MOL    H73 2605   5.564   5.230   2.380  4.1197 -3.2078  0.0162
    7MOL    H74 2606   5.806   5.298   2.550  2.3431 -0.0116 -3.2227
    7MOL    H75 2607   5.878   5.296   2.327  2.1478  1.1343  2.2780
    7MOL    H76 2608   5.932   5.151   2.401  0.3853 -1.0217 -3.6703
    7MOL    H77 2609   5.773   5.012   2.281  1.7631  1.0236  3.2375
    7MOL    H78 2610   5.690   5.160   2.226  0.9221  2.4218 -0.1214
    7MOL    H79 2611   5.868   5.237   2.082  0.1131 -0.0943 -0.1848
    7MOL    H80 2612   5.973   5.110   2.128  0.6612  0.5054 -0.7842
    7MOL    H81 2613   5.866   5.077   1.906  0.6329  0.2884  0.0676
    7MOL    H82 2614   5.715   5.071   1.966  0.3539  0.9475 -3.0886
    7MOL    H83 2615   5.780   4.845   1.944 -1.3261  2.5708 -0.1672
    7MOL    H84 2616   5.940   4.881   2.006 -0.1041  1.1112 -0.1683
    7MOL    H85 2617   5.798   4.871   2.118 -1.0607 -0.1486 -0.2307
    7MOL    C86 2618   5.710   5.103   2.573  0.2894 -0.6111 -0.0971
    7MOL    C87 2619   5.830   5.003   2.610 -0.3683  0.3278 -0.9090
    7MOL    C88 2620   5.948   5.070   2.685 -0.0524 -0.0229  0.7649
    7MOL    C89 2621   6.082   5.001   2.650 -0.0828 -0.1869 -0.8914
    7MOL    C90 2622   6.194   5.078   2.721 -0.4788  0.3330  0.1119
    7MOL    C91 2623   6.338   5.054   2.664 -0.4525  0.3027 -0.2636
    7MOL    C92 2624   6.336   5.119   2.527 -0.2864 -1.0828  0.4749
    7MOL    H93 2625   5.655   5.141   2.659 -0.5300  2.2731 -1.7928
    7MOL    H94 2626   5.645   5.044   2.509  0.8460 -0.5311 -0.7417
    7MOL    H95 2627   5.857   4.976   2.508  3.0836  0.9685 -0.2129
    7MOL    H96 2628   5.966   5.171   2.650  1.8900 -0.5688  0.1441
    7MOL    H97 2629   5.931   5.074   2.793 -2.9083 -2.7747  0.5044
    7MOL    H98 2630   6.077   4.898   2.684 -1.8126  0.3372  0.5517
    7MOL    H99 2631   6.100   5.004   2.543 -1.1652 -1.1384 -1.1045
    7MOL   H100 2632   6.190   5.048   2.826  0.2789  1.3644  0.4457
    7MOL   H101 2633   6.175   5.186   2.719  0.8509  0.6733  2.8638
    7MOL   H102 2634   6.409   5.117   2.718 -2.2538  2.4134 -0.2731
    7MOL   H103 2635   6.370   4.950   2.661 -0.2897  0.4047 -4.5373
    7MOL   H104 2636   6.305   5.223   2.515  2.2979 -0.4596 -1.4117
    7MOL   H105 2637   6.279   5.056   2.460 -0.1143 -1.2184  0.4547
    7MOL   H106 2638   6.430   5.110   2.472 -0.0515  0.3743  0.5991
    7MOL   C107 2639   5.777   4.879   2.693 -0.2041  0.1640 -0.2260
    7MOL   C108 2640   5.706   4.775   2.610  0.5604 -0.0313  0.1058
    7MOL   C109 2641   5.803   4.667   2.544  0.0294 -0.1237 -0.4416
    7MOL   C110 2642   5.748   4.552   2.465  0.0712  0.3740 -0.0900
    7MOL   C111 2643   5.723   4.413   2.530 -0.0726 -0.0855 -0.0224
    7MOL   C112 2644   5.650   4.319   2.439 -1.4005 -0.0007 -0.5820
    7MOL   C113 2645   5.626   4.185   2.496 -1.1040  0.2288 -0.6058
    7MOL   H114 2646   5.704   4.917   2.764  0.5261 -0.2475  0.7565
    7MOL   H115 2647   5.858   4.837   2.753 -0.1246 -0.2044 -0.5889
    7MOL   H116 2648   5.659   4.832   2.529 -0.1382  0.1921  0.6679
    7MOL   H117 2649   5.866   4.637   2.628 -0.6759 -0.6756 -0.1012
    7MOL   H118 2650   5.862   4.732   2.480  1.4335 -0.7841  0.1585
    7MOL   H119 2651   5.660   4.583   2.408 -0.0901 -0.0745 -0.0932
    7MOL   H120 2652   5.828   4.534   2.394  0.0738  0.2615 -0.0583
    7MOL   H121 2653   5.664   4.430   2.621 -0.3912 -0.7672 -0.0999
    7MOL   H122 2654   5.812   4.362   2.568 -0.1862  0.4513  0.9999
    7MOL   H123 2655   5.552   4.360   2.411 -1.9925 -0.1924  1.1379
    7MOL   H124 2656   5.709   4.324   2.348  0.9740  2.0218  0.9881
    7MOL   H125 2657   5.710   4.123   2.529 -2.7454 -0.7825  1.8207
    7MOL   H126 2658   5.556   4.184   2.580  0.8771  0.1043  1.0896
    7MOL   H127 2659   5.594   4.119   2.416  0.0958 -0.1501 -0.7867
    7MOL   C128 2660   5.593   4.713   2.694  0.0813 -0.0025 -0.3245
    7MOL   C129 2661   5.468   4.802   2.736  0.0007  0.2596  0.0112
    7MOL   C130 2662   5.476   4.857   2.881  0.3583 -0.2590 -0.0569
    7MOL   C131 2663   5.398   4.994   2.888 -0.5693  0.3607 -0.9294
    7MOL   C132 2664   5.392   5.061   3.022 -0.0176 -0.0827  0.0899
    7MOL   C133 2665   5.521   5.107   3.082  0.1906 -0.2443  0.2276
    7MOL   C134 2666   5.495   5.159   3.230  0.1804  0.3985  0.2697
    7MOL   H135 2667   5.562   4.629   2.633  0.2230  0.9908 -1.7972
    7MOL   H136 2668   5.643   4.669   2.780 -1.1511 -0.5297  0.1356
    7MOL   H137 2669   5.471   4.884   2.665  1.2566 -0.4823 -0.8192
    7MOL   H138 2670   5.581   4.856   2.910  0.7119 -1.4384 -1.3169
    7MOL   H139 2671   5.438   4.786   2.955  0.6092 -0.4989 -0.1585
    7MOL   H140 2672   5.293   4.978   2.865 -0.1070 -1.4209 -1.9794
    7MOL   H141 2673   5.438   5.059   2.810  0.2827 -0.3559 -1.1032
    7MOL   H142 2674   5.358   4.988   3.096  0.5856 -0.6108 -0.1524
    7MOL   H143 2675   5.333   5.152   3.021  0.8817  0.5264 -3.4860
    7MOL   H144 2676   5.545   5.194   3.021  0.0239  0.4711  1.1851
    7MOL   H145 2677   5.600   5.033   3.066  1.2843  1.5717 -3.2259
    7MOL   H146 2678   5.400   5.207   3.255  0.9366  1.0962  1.9365
    7MOL   H147 2679   5.581   5.216   3.267  0.7147 -0.3118  0.1279
    7MOL   H148 2680   5.488   5.071   3.294  1.4276  0.4069  0.4301
    7MOL   C149 2681   5.331   4.730   2.706 -0.2221 -0.7371 -0.2909
    7MOL   C150 2682   5.302   4.675   2.569  0.1891 -0.3190 -0.5240
    7MOL   C151 2683   5.336   4.776   2.449  0.4931  1.1687 -0.3670
    7MOL   C152 2684   5.315   4.720   2.306 -0.1580  0.6892  0.0092
    7MOL   C153 2685   5.399   4.802   2.205  0.0187  0.4008  0.0724
    7MOL   C154 2686   5.347   4.942   2.176  0.1201  0.1607 -0.4050
    7MOL   C155 2687   5.436   5.014   2.077  0.2175  0.5480  0.3394
    7MOL   H156 2688   5.332   4.648   2.778  1.4884  0.5027  1.1178
    7MOL   H157 2689   5.243   4.789   2.733  0.0928  0.2199 -1.3324
    7MOL   H158 2690   5.361   4.584   2.553  1.1136  0.2359 -0.2861
    7MOL   H159 2691   5.289   4.873   2.462  0.0745  0.9458 -0.2223
    7MOL   H160 2692   5.442   4.799   2.457  0.5335  0.7055  0.4292
    7MOL   H161 2693   5.209   4.716   2.282  0.1642 -0.6425 -1.2316
    7MOL   H162 2694   5.347   4.615   2.299 -0.3962  0.4559  2.0739
    7MOL   H163 2695   5.399   4.743   2.114  0.7442 -1.0930  1.0123
    7MOL   H164 2696   5.500   4.810   2.245  0.0734 -1.3817  0.3445
    7MOL   H165 2697   5.316   5.005   2.259 -0.6456  0.0223 -0.5835
    7MOL   H166 2698   5.253   4.930   2.121  1.4137 -1.1366 -2.4016
    7MOL   H167 2699   5.430   4.968   1.979 -0.3833  0.6293  0.3370
    7MOL   H168 2700   5.540   5.009   2.111  0.4043 -0.0735 -0.3301
    7MOL   H169 2701   5.418   5.120   2.057 -0.5333  0.9248  2.8509
    7MOL   C170 2702   5.156   4.623   2.564  0.2308 -0.2875 -0.0857
    7MOL   C171 2703   5.118   4.495   2.649  0.2544 -0.0198 -0.2365
    7MOL   C172 2704   4.960   4.487   2.656 -0.4356  0.6409 -0.2665
    7MOL   C173 2705   4.891   4.577   2.767 -0.2206  0.3332  0.0288
    7MOL   C174 2706   4.746   4.540   2.791  0.0026 -0.1165  0.4147
    7MOL   C175 2707   4.663   4.650   2.852 -0.1816  0.7044  0.0654
    7MOL   C176 2708   4.625   4.764   2.759  0.1455 -0.1112  0.0365
    7MOL   H177 2709   5.143   4.595   2.459  1.7572  2.0029 -0.9326
    7MOL   H178 2710   5.089   4.707   2.587  0.9675  0.3374 -0.1989
    7MOL   H179 2711   5.144   4.527   2.750 -0.2636 -0.2284 -0.0389
    7MOL   H180 2712   4.928   4.383   2.666 -0.0198  0.2650 -2.5080
    7MOL   H181 2713   4.938   4.524   2.556  2.1713  1.4068 -0.5895
    7MOL   H182 2714   4.898   4.685   2.752  0.7564  0.4284  1.1762
    7MOL   H183 2715   4.941   4.575   2.863  1.3894 -1.2142 -0.8164
    7MOL   H184 2716   4.730   4.443   2.838  1.8475 -1.3550 -1.4020
    7MOL   H185 2717   4.697   4.511   2.698  0.7283  0.9586 -0.3178
    7MOL   H186 2718   4.715   4.682   2.942  0.7712  2.1531 -0.9584
    7MOL   H187 2719   4.568   4.609   2.885 -1.3684  1.7841 -1.8909
    7MOL   H188 2720   4.712   4.825   2.735  2.3702 -3.4459 -0.7955
    7MOL   H189 2721   4.547   4.823   2.807 -0.1914 -0.8953  0.4589
    7MOL   H190 2722   4.595   4.731   2.660  1.1810  2.1351 -1.0608
    7MOL   C191 2723   5.179   4.356   2.601 -0.1218  0.2472 -1.1477
    7MOL   C192 2724   5.169   4.239   2.703 -0.0384 -0.1809 -0.2402
    7MOL   C193 2725   5.214   4.105   2.639 -0.4402 -0.3940  0.2826
    7MOL   C194 2726   5.126   4.063   2.522 -0.4966 -0.6873  0.0077
    7MOL   C195 2727   5.168   3.928   2.470 -0.0435 -0.0135  0.5075
    7MOL   C196 2728   5.298   3.926   2.403 -0.3061 -0.3819  0.0215
    7MOL   C197 2729   5.350   3.787   2.378  0.1707  0.6108  0.3952
    7MOL   H198 2730   5.284   4.362   2.573  0.5600 -1.0768  0.9737
    7MOL   H199 2731   5.110   4.329   2.521  0.6424  0.0627 -1.7559
    7MOL   H200 2732   5.063   4.225   2.725  0.1576  0.7366  1.3652
    7MOL   H201 2733   5.219   4.030   2.718  2.1497  0.2224  0.7744
    7MOL   H202 2734   5.320   4.114   2.616 -0.7672  1.0828 -0.7139
    7MOL   H203 2735   5.119   4.135   2.441  0.4436 -1.1726 -0.5135
    7MOL   H204 2736   5.026   4.055   2.566 -0.9015  1.8435 -0.3982
    7MOL   H205 2737   5.168   3.856   2.552  1.8551 -1.3908 -0.6523
    7MOL   H206 2738   5.094   3.891   2.398  0.7713  0.2350 -0.4736
    7MOL   H207 2739   5.368   3.974   2.472 -1.8829  2.9622 -0.6595
    7MOL   H208 2740   5.295   3.981   2.309  1.8447 -0.2922 -0.0223
    7MOL   H209 2741   5.407   3.751   2.463 -0.1926  0.0494  0.4051
    7MOL   H210 2742   5.409   3.772   2.288  1.3549  0.4944  1.1777
    7MOL   H211 2743   5.258   3.731   2.359  2.1772 -2.3276 -1.1084
    7MOL   C212 2744   5.254   4.272   2.827 -0.0860  0.4613  0.8761
    7MOL   C213 2745   5.216   4.191   2.953 -0.0827  0.5675  0.2307
    7MOL   C214 2746   5.325   4.188   3.062 -0.7537  0.7269 -0.4253
    7MOL   C215 2747   5.353   4.311   3.151  0.1986 -0.0547 -0.3656
    7MOL   C216 2748   5.463   4.285   3.259  0.4030 -0.7334 -0.6120
    7MOL   C217 2749   5.420   4.219   3.391 -0.3763  0.6532  0.1498
    7MOL   C218 2750   5.331   4.306   3.476  0.6426  0.1039 -0.5135
    7MOL   H219 2751   5.226   4.373   2.860 -0.7317  0.5182  0.1753
    7MOL   H220 2752   5.361   4.266   2.807 -0.4999 -1.2799 -1.0401
    7MOL   H221 2753   5.212   4.088   2.917 -3.1446  0.0459  1.8834
    7MOL   H222 2754   5.292   4.106   3.126 -1.0194 -0.0957 -1.6045
    7MOL   H223 2755   5.417   4.148   3.019 -0.5760 -0.5982  1.1429
    7MOL   H224 2756   5.264   4.354   3.196  0.1514 -0.0507 -0.4645
    7MOL   H225 2757   5.387   4.396   3.093 -0.5211  1.9031  2.0104
    7MOL   H226 2758   5.539   4.221   3.214  0.4828  0.0468 -1.6017
    7MOL   H227 2759   5.500   4.385   3.281 -3.8828  0.9570 -0.6551
    7MOL   H228 2760   5.382   4.119   3.373  2.1026 -0.0613 -1.2465
    7MOL   H229 2761   5.512   4.202   3.448 -0.2256  0.3291 -0.1927
    7MOL   H230 2762   5.391   4.394   3.502 -0.2985  0.3050  1.0401
    7MOL   H231 2763   5.295   4.250   3.563 -1.1153  0.8517 -0.7526
    7MOL   H232 2764   5.253   4.363   3.428  0.1804 -0.6923 -0.7190
    7MOL   C233 2765   5.078   4.244   3.008 -0.5983 -0.4986 -0.2079
    7MOL   C234 2766   5.015   4.185   3.142 -0.3714  0.2195  0.6892
    7MOL   C235 2767   4.894   4.271   3.174 -0.0245  0.6141  0.6498
    7MOL   C236 2768   4.914   4.410   3.237  0.0870  0.1423 -0.1207
    7MOL   C237 2769   4.778   4.480   3.269 -0.3642  0.2631  0.0796
    7MOL   C238 2770   4.699   4.417   3.381 -0.1553  0.2834  0.9548
    7MOL   C239 2771   4.780   4.389   3.518  0.4094  0.2231 -0.0078
    7MOL   H240 2772   4.996   4.227   2.938 -1.6830 -2.5336  1.4975
    7MOL   H241 2773   5.074   4.351   3.026  1.9810 -0.2804 -0.7397
    7MOL   H242 2774   5.086   4.189   3.225 -0.0843 -1.1069  0.5162
    7MOL   H243 2775   4.837   4.216   3.249  0.9927 -2.1267 -0.4866
    7MOL   H244 2776   4.830   4.276   3.086 -0.0255  1.5338  0.7048
    7MOL   H245 2777   4.953   4.483   3.166 -0.9887 -1.0735 -1.9931
    7MOL   H246 2778   4.977   4.407   3.326 -0.0960 -1.7301 -0.0264
    7MOL   H247 2779   4.726   4.496   3.174  0.2726  0.9234 -0.1662
    7MOL   H248 2780   4.801   4.583   3.297 -0.4571  0.2604  0.1650
    7MOL   H249 2781   4.622   4.491   3.403  0.6176  0.9456  1.4470
    7MOL   H250 2782   4.653   4.319   3.368 -0.6886  0.3066  2.4629
    7MOL   H251 2783   4.724   4.334   3.594  1.7614 -0.4586  0.5170
    7MOL   H252 2784   4.867   4.327   3.496 -0.2766 -0.8751  0.2770
    7MOL   H253 2785   4.809   4.478   3.573  0.3986 -0.8349  1.7469
    7MOL   C254 2786   4.988   4.035   3.115  0.2213 -0.2363  0.7626
    7MOL   C255 2787   4.936   3.949   3.234 -0.0996  0.6760 -0.1235
    7MOL   C256 2788   5.030   3.945   3.350  0.1275 -0.0083  0.4861
    7MOL   C257 2789   4.976   4.029   3.474  0.6344 -0.0335  0.2332
    7MOL   C258 2790   5.086   4.016   3.584  0.0159 -0.1950 -0.3024
    7MOL   C259 2791   5.060   4.091   3.719 -0.0087 -0.8752 -0.0313
    7MOL   C260 2792   4.939   4.046   3.801 -0.6914  0.5054 -0.4601
    7MOL   H261 2793   5.078   3.991   3.072 -0.5510  1.5671 -2.8767
    7MOL   H262 2794   4.918   4.036   3.032 -1.7084 -0.7658  2.3570
    7MOL   H263 2795   4.840   3.992   3.262 -1.0099 -1.7312  0.6148
    7MOL   H264 2796   5.131   3.976   3.323 -0.9311  1.5037 -1.8252
    7MOL   H265 2797   5.042   3.841   3.380  0.5846  0.3559  1.5765
    7MOL   H266 2798   4.945   4.129   3.446  1.6777 -0.0510 -1.0206
    7MOL   H267 2799   4.888   3.979   3.516 -0.7811  1.3487 -1.0441
    7MOL   H268 2800   5.184   4.043   3.543 -0.4046  0.7587 -0.6723
    7MOL   H269 2801   5.086   3.909   3.604  1.9616 -0.1485  0.0319
    7MOL   H270 2802   5.150   4.089   3.781 -1.0806 -0.6596  1.5454
    7MOL   H271 2803   5.041   4.198   3.707  1.2888 -0.5845  0.3359
    7MOL   H272 2804   4.846   4.048   3.744 -0.1595  2.4549 -1.2986
    7MOL   H273 2805   4.950   3.943   3.836  2.9182 -0.1314 -3.0764
    7MOL   H274 2806   4.933   4.091   3.899  0.8815 -2.1381  0.9188
    7MOL   C275 2807   4.897   3.810   3.175 -0.8104 -0.4271 -0.4627
    7MOL   C276 2808   4.808   3.728   3.267  0.3502 -0.1065 -0.1920
    7MOL   C277 2809   4.835   3.574   3.260 -0.1967  0.4573 -0.3417
    7MOL   C278 2810   4.831   3.507   3.121 -0.0085 -0.0827  0.7134
    7MOL   C279 2811   4.842   3.353   3.120  0.0870  0.6461  0.4519
    7MOL   C280 2812   4.715   3.289   3.183 -0.3028  0.4110  0.2304
    7MOL   C281 2813   4.746   3.234   3.323  0.4933  0.2588 -0.3952
    7MOL   H282 2814   4.990   3.758   3.156  0.6759  2.1522 -0.4965
    7MOL   H283 2815   4.854   3.830   3.077 -1.1824 -1.1572 -0.4499
    7MOL   H284 2816   4.835   3.761   3.367  1.8327  0.5059 -0.7931
    7MOL   H285 2817   4.935   3.563   3.300  0.0818 -0.4969 -1.2649
    7MOL   H286 2818   4.775   3.509   3.324  2.9282  0.2397  2.4501
    7MOL   H287 2819   4.924   3.536   3.073 -1.2756  0.9742 -1.1529
    7MOL   H288 2820   4.745   3.541   3.064  0.6337 -0.4244 -0.4750
    7MOL   H289 2821   4.933   3.321   3.171 -0.4116  1.1205  1.6765
    7MOL   H290 2822   4.843   3.318   3.017  3.5375  2.2101 -0.0920
    7MOL   H291 2823   4.628   3.354   3.182 -0.0938  0.7137  1.0128
    7MOL   H292 2824   4.684   3.205   3.121  0.4248  0.1236  0.2489
    7MOL   H293 2825   4.828   3.163   3.315  1.0485  1.1168 -2.8039
    7MOL   H294 2826   4.664   3.176   3.364  2.0369 -0.3246  1.9349
    7MOL   H295 2827   4.781   3.304   3.398 -0.1474  0.9236 -0.7098
    7MOL   C296 2828   4.653   3.752   3.249  0.7839  1.5256  0.3349
    7MOL   C297 2829   4.572   3.772   3.379  0.3370 -0.0330 -0.2168
    7MOL   C298 2830   4.435   3.694   3.388  0.0039  1.1736  0.5505
    7MOL   C299 2831   4.450   3.535   3.363 -0.0218 -0.4701  0.6010
    7MOL   C300 2832   4.320   3.455   3.404  0.2884 -0.1696  0.6181
    7MOL   C301 2833   4.338   3.305   3.391 -0.1384 -0.1541 -0.4696
    7MOL   C302 2834   4.316   3.244   3.255 -0.3874 -0.1306  0.0527
    7MOL   H303 2835   4.632   3.836   3.181 -0.0125  0.7782 -0.3525
    7MOL   H304 2836   4.602   3.677   3.189  1.1753 -0.9119  2.9840
    7MOL   H305 2837   4.625   3.712   3.452 -2.3605 -4.6325 -1.7864
    7MOL   H306 2838   4.403   3.703   3.492 -1.2058  0.3676  0.2571
    7MOL   H307 2839   4.371   3.748   3.319 -0.3527  1.9555  1.4968
    7MOL   H308 2840   4.532   3.491   3.421  0.7097 -3.1833 -2.3322
    7MOL   H309 2841   4.476   3.516   3.259  2.5650 -3.7011  1.7633
    7MOL   H310 2842   4.239   3.476   3.334 -0.2029 -1.5593  0.7497
    7MOL   H311 2843   4.303   3.494   3.504 -1.3604  0.7305  0.0083
    7MOL   H312 2844   4.436   3.281   3.433 -0.6908 -0.9317  0.3967
    7MOL   H313 2845   4.272   3.254   3.462 -0.6100 -0.6350 -1.2389
    7MOL   H314 2846   4.361   3.309   3.180 -0.7777  0.9362  0.7429
    7MOL   H315 2847   4.366   3.150   3.231 -1.8437 -1.2921  1.4253
    7MOL   H316 2848   4.210   3.230   3.235 -0.1672 -2.2120  0.1806
    7MOL   C317 2849   4.559   3.924   3.420  0.0210  0.3525 -0.0999
    7MOL   C318 2850   4.463   3.962   3.531  0.0934 -0.0594 -0.4627
    7MOL   C319 2851   4.515   3.911   3.662  0.0262 -0.1236  0.2993
    7MOL   C320 2852   4.417   3.941   3.782  0.1313  0.0782 -1.0415
    7MOL   C321 2853   4.490   3.938   3.921  0.1677  0.3198  0.3038
    7MOL   C322 2854   4.396   3.969   4.038  0.5261 -0.3223  0.3936
    7MOL   C323 2855   4.444   3.941   4.180 -0.1439  0.0127  0.0614
    7MOL   H324 2856   4.525   3.964   3.324 -1.6491  0.0173  0.3393
    7MOL   H325 2857   4.657   3.966   3.439 -0.3252  1.0249  0.1956
    7MOL   H326 2858   4.370   3.910   3.513  1.3278 -3.0447  1.4271
    7MOL   H327 2859   4.613   3.955   3.678  1.1380 -3.1501  2.2666
    7MOL   H328 2860   4.535   3.805   3.649  0.5867  0.2523 -2.1442
    7MOL   H329 2861   4.332   3.872   3.786 -0.7312  1.2477  2.5066
    7MOL   H330 2862   4.380   4.043   3.779  1.3759  0.5916  0.6523
    7MOL   H331 2863   4.576   4.005   3.919  1.9695 -1.8780  1.3132
    7MOL   H332 2864   4.536   3.840   3.937 -0.1162  0.3645  1.4493
    7MOL   H333 2865   4.313   3.900   4.022  0.5793 -0.7457  1.8533
    7MOL   H334 2866   4.353   4.067   4.021  0.4446 -0.5463 -0.7264
    7MOL   H335 2867   4.520   4.010   4.215 -1.2001  0.2897  1.8969
    7MOL   H336 2868   4.488   3.842   4.172 -2.4594 -0.8777 -2.2856
    7MOL   H337 2869   4.360   3.934   4.249  0.0497 -0.0816  0.2895
    7MOL   C338 2870   4.439   4.113   3.533  0.1587 -0.4250 -0.4708
    7MOL   C339 2871   4.296   4.156   3.498 -0.1945  0.4637 -0.3561
    7MOL   C340 2872   4.249   4.101   3.354  0.4631 -0.1959 -0.0408
    7MOL   C341 2873   4.105   4.101   3.317  0.3641  0.0015 -0.3618
    7MOL   C342 2874   4.041   3.975   3.375  0.2063 -1.0125  0.1929
    7MOL   C343 2875   3.887   3.970   3.364  0.3157 -0.3715 -0.1824
    7MOL   C344 2876   3.831   3.877   3.475 -0.0905 -0.2668 -0.2761
    7MOL   H345 2877   4.505   4.151   3.455 -0.1500  1.0503 -0.0310
    7MOL   H346 2878   4.451   4.162   3.629  1.0707 -1.2100 -0.1808
    7MOL   H347 2879   4.231   4.129   3.582 -0.7585 -0.5077 -1.1057
    7MOL   H348 2880   4.294   4.170   3.283  1.3565  0.5846  1.2472
    7MOL   H349 2881   4.285   4.006   3.316 -0.4504 -0.9806  1.0003
    7MOL   H350 2882   4.078   4.095   3.212 -0.3728  0.1333 -0.1817
    7MOL   H351 2883   4.059   4.193   3.354 -0.8055 -0.3173 -1.0173
    7MOL   H352 2884   4.082   3.878   3.348 -1.9223 -1.1826 -2.5943
    7MOL   H353 2885   4.087   3.962   3.473 -1.4324 -0.1227  1.0929
    7MOL   H354 2886   3.842   4.067   3.386 -0.2360 -0.6524 -0.0579
    7MOL   H355 2887   3.854   3.952   3.262 -0.9922  0.9205  0.0077
    7MOL   H356 2888   3.892   3.894   3.564  1.7282 -1.9238 -1.1498
    7MOL   H357 2889   3.827   3.769   3.462 -0.6621  0.0981 -3.4557
    7MOL   H358 2890   3.730   3.905   3.502 -0.9087 -2.1440 -1.2811
    7MOL   C359 2891   4.279   4.310   3.491 -0.2816 -0.0923  0.2777
    7MOL   C360 2892   4.270   4.374   3.631  0.1895 -0.0349  0.7446
    7MOL   C361 2893   4.320   4.513   3.618  0.4710 -1.0154  0.2354
    7MOL   C362 2894   4.465   4.527   3.655  0.5708 -0.9294 -0.7472
    7MOL   C363 2895   4.522   4.672   3.638  0.1805 -0.3482  0.2698
    7MOL   C364 2896   4.654   4.696   3.727 -0.0047  0.9434 -0.1410
    7MOL   C365 2897   4.740   4.810   3.682  0.0918  0.4020 -0.3629
    7MOL   H366 2898   4.197   4.338   3.425  0.3531 -0.1562 -0.5426
    7MOL   H367 2899   4.368   4.348   3.441  0.2622 -0.8819  0.6336
    7MOL   H368 2900   4.337   4.314   3.692  0.8764 -1.3565 -1.2743
    7MOL   H369 2901   4.294   4.552   3.519  3.3588 -1.8637 -0.8794
    7MOL   H370 2902   4.271   4.580   3.688 -1.3225 -1.7077 -0.3173
    7MOL   H371 2903   4.473   4.497   3.760  0.0441  2.7717  0.4139
    7MOL   H372 2904   4.525   4.454   3.600 -1.0738 -2.2728 -0.8107
    7MOL   H373 2905   4.531   4.691   3.531 -0.0041  0.4555  0.3922
    7MOL   H374 2906   4.449   4.741   3.680  1.7535  1.2463  0.4678
    7MOL   H375 2907   4.625   4.696   3.832  2.6301 -0.9964  0.6410
    7MOL   H376 2908   4.721   4.610   3.718  2.9670  3.1674 -0.1899
    7MOL   H377 2909   4.827   4.825   3.746 -0.7812  0.8992  0.7246
    7MOL   H378 2910   4.770   4.783   3.581 -0.2226 -3.2398  0.4728
    7MOL   H379 2911   4.682   4.903   3.680  2.9695  2.2336 -1.8500
    7MOL   C380 2912   4.133   4.348   3.709  0.5428  0.0846  0.4422
    7MOL   C381 2913   4.153   4.304   3.860  0.5988  0.2408 -0.3009
    7MOL   C382 2914   4.227   4.402   3.946  0.1943  0.4540  0.5801
    7MOL   C383 2915   4.146   4.528   3.971  0.5933  0.8365 -0.1219
    7MOL   C384 2916   4.226   4.645   4.034 -0.0050 -0.0066  0.3369
    7MOL   C385 2917   4.322   4.723   3.935  0.8868 -0.2373 -0.3632
    7MOL   C386 2918   4.431   4.811   4.003 -0.1034 -0.3183 -0.4301
    7MOL   H387 2919   4.064   4.430   3.692 -1.5566 -1.7604 -0.1387
    7MOL   H388 2920   4.075   4.276   3.651 -1.3024  2.0743 -0.2539
    7MOL   H389 2921   4.216   4.216   3.850 -0.0631  0.0720 -3.4306
    7MOL   H390 2922   4.321   4.434   3.900 -1.7886  1.3967 -3.0458
    7MOL   H391 2923   4.245   4.355   4.042 -1.0286 -2.0893 -0.4113
    7MOL   H392 2924   4.104   4.554   3.874 -1.4101 -1.4247  0.0887
    7MOL   H393 2925   4.065   4.489   4.032 -0.5792  4.1172  0.5288
    7MOL   H394 2926   4.171   4.718   4.093 -0.8852  0.0895 -0.5839
    7MOL   H395 2927   4.289   4.601   4.111  0.3340 -1.2236 -0.6125
    7MOL   H396 2928   4.267   4.779   3.859  0.9251 -0.9000 -0.8887
    7MOL   H397 2929   4.380   4.649   3.879 -1.9787 -1.7748 -1.4001
    7MOL   H398 2930   4.396   4.885   4.076  2.5019 -0.1797  0.7291
    7MOL   H399 2931   4.489   4.869   3.931 -2.3003 -0.5092 -2.4225
    7MOL   H400 2932   4.504   4.752   4.058  0.6737  0.8656 -0.1661
    7MOL   C401 2933   4.017   4.255   3.924 -0.6575  0.1890 -0.3539
    7MOL   C402 2934   3.957   4.136   3.847 -0.8926  0.1763 -0.1961
    7MOL   C403 2935   3.837   4.066   3.913 -0.1425 -0.7058 -0.2233
    7MOL   C404 2936   3.780   3.952   3.826  0.8091 -0.1312  0.0807
    7MOL   C405 2937   3.656   3.878   3.881 -0.5595 -0.3890 -0.3012
    7MOL   C406 2938   3.575   3.789   3.789 -0.0382 -0.8890 -0.4115
    7MOL   C407 2939   3.651   3.668   3.736  0.6838 -0.0754 -0.0845
    7MOL   H408 2940   3.947   4.338   3.918 -3.1332 -1.8038 -0.2300
    7MOL   H409 2941   4.037   4.228   4.027 -0.0191 -3.2848 -1.3085
    7MOL   H410 2942   4.035   4.064   3.822 -0.3338  0.7709 -0.1734
    7MOL   H411 2943   3.756   4.139   3.924  1.8780  1.4616  0.6566
    7MOL   H412 2944   3.874   4.029   4.008 -0.8971 -1.2558 -0.1349
    7MOL   H413 2945   3.865   3.886   3.810  1.0738  0.6324 -1.8064
    7MOL   H414 2946   3.761   3.991   3.726 -0.7039  0.4443  0.5791
    7MOL   H415 2947   3.681   3.827   3.974  0.2047 -0.6206 -0.6308
    7MOL   H416 2948   3.586   3.949   3.925 -0.7825  0.3582 -1.8295
    7MOL   H417 2949   3.483   3.756   3.837  0.4386 -2.5253 -0.5742
    7MOL   H418 2950   3.556   3.848   3.700  0.5574 -0.5991 -0.3460
    7MOL   H419 2951   3.581   3.606   3.679 -0.1107  1.1198 -0.4159
    7MOL   H420 2952   3.680   3.598   3.814 -0.6129 -1.2154 -0.6021
    7MOL   H421 2953   3.737   3.696   3.676  2.3975 -0.9373  1.9095
    7MOL   H422 2954   3.928   4.154   3.744 -3.3317 -2.8904 -0.1535
    8MOL     C1 2955   0.216   7.585   3.646 -0.1417  0.7218  0.1622
    8MOL     C2 2956   0.255   7.466   3.729 -0.3470 -0.2490  0.6503
    8MOL     C3 2957   0.213   7.485   3.876 -0.9138 -0.2304 -0.1209
    8MOL     C4 2958   0.289   7.583   3.963  0.1383 -0.0087 -0.3139
    8MOL     C5 2959   0.236   7.598   4.108  0.2646 -0.2517 -0.7535
    8MOL     C6 2960   0.342   7.666   4.197 -0.5451 -0.1204  1.2390
    8MOL     C7 2961   0.278   0.031   4.313  0.5829  0.3837  0.0361
    8MOL     H8 2962   0.278   7.666   3.686  3.2210 -1.3087 -0.6680
    8MOL     H9 2963   0.113   7.619   3.645 -0.3262  0.1835  0.4942
    8MOL    H10 2964   0.192   7.386   3.689  2.2344 -0.6585 -2.7350
    8MOL    H11 2965   0.108   7.518   3.875  0.0678  3.2338  1.1001
    8MOL    H12 2966   0.203   7.386   3.919 -1.1609 -0.6507 -1.1476
    8MOL    H13 2967   0.392   7.554   3.986  0.5613  1.5964 -0.1625
    8MOL    H14 2968   0.293   7.683   3.921 -1.4374  0.3091  0.2863
    8MOL    H15 2969   0.219   7.500   4.151 -2.5592 -0.4628 -2.1838
    8MOL    H16 2970   0.146   7.659   4.095  0.1961 -0.4923 -1.4608
    8MOL    H17 2971   0.399   0.015   4.129 -2.0936  0.0262  0.0646
    8MOL    H18 2972   0.416   7.590   4.225  0.6302 -1.5069 -4.9330
    8MOL    H19 2973   0.235   7.670   4.381 -0.3269 -0.9055 -1.8972
    8MOL    H20 2974   0.192   0.085   4.273 -0.2634  0.4263  1.8508
    8MOL    H21 2975   0.349   0.086   4.374  0.4826 -0.2435  0.7369
    8MOL    H22 2976   0.249   7.560   3.545 -0.6188 -0.2164  0.2330
    8MOL    C23 2977   0.402   7.430   3.708  0.2327  0.1107 -1.0501
    8MOL    C24 2978   0.452   7.293   3.772 -0.2505 -0.0561  1.0275
    8MOL    C25 2979   0.601   7.285   3.803 -1.1057 -0.1488 -0.4870
    8MOL    C26 2980   0.649   7.398   3.900  0.1927  0.4102  0.1844
    8MOL    C27 2981   0.797   7.394   3.946 -0.3423 -0.1339  0.1685
    8MOL    C28 2982   0.851   7.517   4.009 -0.0713 -0.5793  0.5648
    8MOL    C29 2983   0.772   7.548   4.144  0.3348 -0.0525 -0.5005
    8MOL    H30 2984   0.437   7.417   3.605 -2.9499 -1.5382 -2.0040
    8MOL    H31 2985   0.460   7.513   3.747 -1.9873  1.3078 -0.2638
    8MOL    H32 2986   0.397   7.299   3.866  1.0319 -0.9675  1.8640
    8MOL    H33 2987   0.663   7.283   3.713  0.1634 -0.3001  0.3728
    8MOL    H34 2988   0.628   7.192   3.853  2.0201  1.5506  1.1459
    8MOL    H35 2989   0.594   7.397   3.994  2.8483  2.0772  1.8256
    8MOL    H36 2990   0.639   7.502   3.868  1.6200 -0.0868 -1.9849
    8MOL    H37 2991   0.871   7.351   3.879 -0.7895 -0.9990  0.2195
    8MOL    H38 2992   0.795   7.328   4.033  0.2113 -1.4654 -0.8015
    8MOL    H39 2993   0.838   7.603   3.944  0.4126 -0.3863  0.7223
    8MOL    H40 2994   0.959   7.515   4.022  0.0659  1.0148 -0.2399
    8MOL    H41 2995   0.666   7.576   4.144  0.7466  1.5536 -1.5044
    8MOL    H42 2996   0.778   7.460   4.208 -0.1168 -0.2506 -0.7213
    8MOL    H43 2997   0.816   7.633   4.195  1.6133 -1.2655  0.4283
    8MOL    C44 2998   0.397   7.171   3.689  0.3375  0.5323 -0.1215
    8MOL    C45 2999   0.329   7.059   3.783  0.2752  0.5984  0.1616
    8MOL    C46 3000   0.275   6.940   3.700  0.3415 -0.1497  0.0945
    8MOL    C47 3001   0.372   6.847   3.624 -0.0621 -0.2083 -0.4259
    8MOL    C48 3002   0.301   6.762   3.523 -0.2584 -0.5668  0.5181
    8MOL    C49 3003   0.388   6.652   3.459 -0.0658  0.5199  0.1100
    8MOL    C50 3004   0.343   6.616   3.324 -0.0046  0.0718 -0.3795
    8MOL    H51 3005   0.474   7.119   3.632 -0.1463  2.4042 -2.5448
    8MOL    H52 3006   0.334   7.196   3.604  1.7099  0.6435 -1.1353
    8MOL    H53 3007   0.250   7.104   3.843  0.8868  0.6709  0.9148
    8MOL    H54 3008   0.212   6.986   3.624  0.9550 -2.5600 -1.9329
    8MOL    H55 3009   0.204   6.883   3.760  0.6095  0.0161  0.5762
    8MOL    H56 3010   0.452   6.903   3.576  1.5525 -1.4316  0.8009
    8MOL    H57 3011   0.433   6.786   3.690 -0.7678 -0.7335 -0.2406
    8MOL    H58 3012   0.262   6.831   3.448  1.8688 -0.9708 -1.0090
    8MOL    H59 3013   0.218   6.714   3.575  1.6240 -2.3662  1.9659
    8MOL    H60 3014   0.394   6.561   3.518  1.7088  0.8964  0.5446
    8MOL    H61 3015   0.492   6.685   3.450 -0.4752  2.1013  0.9669
    8MOL    H62 3016   0.410   6.561   3.259  0.1826  2.6458 -2.4527
    8MOL    H63 3017   0.315   6.709   3.274 -0.2974  0.3351  0.2680
    8MOL    H64 3018   0.252   6.557   3.337 -0.6490  1.5037  2.0852
    8MOL    C65 3019   0.424   7.014   3.895  0.0515 -0.3650  0.0500
    8MOL    C66 3020   0.380   6.905   3.993 -0.2651  0.7036 -0.6965
    8MOL    C67 3021   0.258   6.945   4.081 -0.2569 -0.5834  0.3697
    8MOL    C68 3022   0.156   6.830   4.093  0.6138  0.4550 -0.0386
    8MOL    C69 3023   0.032   6.865   4.177 -0.5662 -0.0782 -0.0921
    8MOL    C70 3024   7.648   6.741   4.198 -0.6385 -1.0728 -0.5275
    8MOL    C71 3025   7.546   6.775   4.307 -0.3914  0.4439 -0.2421
    8MOL    H72 3026   0.516   6.976   3.849  1.2479  2.7218 -0.2272
    8MOL    H73 3027   0.434   7.099   3.962 -1.2689 -0.8650  0.9031
    8MOL    H74 3028   0.349   6.815   3.941 -0.9688 -0.7104  2.1111
    8MOL    H75 3029   0.301   6.955   4.180  0.5769  0.4542 -0.0889
    8MOL    H76 3030   0.215   7.039   4.047 -0.4285 -1.5257 -2.1730
    8MOL    H77 3031   0.121   6.812   3.992  0.0388  2.4669 -0.2292
    8MOL    H78 3032   0.206   6.744   4.137  2.8060  1.7190  0.0297
    8MOL    H79 3033   0.051   6.916   4.272 -1.2451  1.2503 -0.6490
    8MOL    H80 3034   7.698   6.943   4.118  2.3215  1.4882 -0.4287
    8MOL    H81 3035   0.003   6.669   4.241 -2.1226 -0.6190  2.7726
    8MOL    H82 3036   7.601   6.715   4.103  0.3417 -0.5290 -1.1710
    8MOL    H83 3037   7.488   6.862   4.275  0.3949  0.0960 -2.7231
    8MOL    H84 3038   7.492   6.683   4.329  0.8226 -0.6661 -1.8071
    8MOL    H85 3039   7.583   6.819   4.400 -3.1699 -1.6549  1.9494
    8MOL    C86 3040   0.515   6.867   4.069 -0.0251  0.6301 -0.2754
    8MOL    C87 3041   0.496   6.736   4.162 -1.2832 -0.5571  0.2215
    8MOL    C88 3042   0.485   6.604   4.074  0.2775 -0.4173  0.0093
    8MOL    C89 3043   0.419   6.492   4.149 -0.0334  0.2763  0.1664
    8MOL    C90 3044   0.450   6.357   4.092  0.3547  0.2974  1.1287
    8MOL    C91 3045   0.373   6.237   4.159 -0.8752 -0.8113 -0.0902
    8MOL    C92 3046   0.415   6.107   4.082  0.0001  0.1378  0.0904
    8MOL    H93 3047   0.594   6.838   4.000 -0.3065 -0.8922  0.0330
    8MOL    H94 3048   0.554   6.953   4.123 -3.2641  0.7267  2.1010
    8MOL    H95 3049   0.404   6.748   4.219 -0.8773  0.2273  0.7282
    8MOL    H96 3050   0.423   6.631   3.988  0.6359  0.8532  0.1393
    8MOL    H97 3051   0.581   6.583   4.027  0.4596 -0.6855  0.4949
    8MOL    H98 3052   0.453   6.489   4.253 -1.3888 -0.4110  0.6049
    8MOL    H99 3053   0.312   6.511   4.159 -0.3979 -0.5802 -1.9500
    8MOL   H100 3054   0.557   6.336   4.084 -0.3135 -2.8473 -0.1742
    8MOL   H101 3055   0.414   6.372   3.990 -1.1156  0.5593  1.6801
    8MOL   H102 3056   0.392   6.222   4.265  0.8885 -1.8476 -0.5266
    8MOL   H103 3057   0.265   6.255   4.152 -0.8403 -0.6500 -0.2080
    8MOL   H104 3058   0.374   6.116   3.981 -1.2178  0.9830  0.6460
    8MOL   H105 3059   0.371   6.020   4.130  0.6739 -0.4960 -0.4151
    8MOL   H106 3060   0.523   6.097   4.096  0.1382  0.6930 -0.5355
    8MOL   C107 3061   0.605   6.720   4.266 -0.3074 -0.3528 -0.4001
    8MOL   C108 3062   0.623   6.823   4.380 -0.1748 -0.5792  0.4265
    8MOL   C109 3063   0.501   6.853   4.469 -0.1627 -0.4534  0.1993
    8MOL   C110 3064   0.430   6.725   4.532 -0.2233 -0.1104 -0.5105
    8MOL   C111 3065   0.306   6.757   4.614 -0.5144  0.2133  0.0577
    8MOL   C112 3066   0.201   6.847   4.543  0.3903  0.0290 -0.3272
    8MOL   C113 3067   0.072   6.864   4.622 -0.1978 -0.5882 -0.3879
    8MOL   H114 3068   0.691   6.726   4.199 -0.9908 -0.2015 -1.2826
    8MOL   H115 3069   0.603   6.629   4.326  0.2995  0.9772  1.6843
    8MOL   H116 3070   0.640   6.920   4.335 -1.0528  0.0290  1.3794
    8MOL   H117 3071   0.433   6.900   4.398  0.5674  0.9104  0.4006
    8MOL   H118 3072   0.518   6.927   4.547  0.8822  1.1232 -1.5055
    8MOL   H119 3073   0.403   6.666   4.444 -1.0314  0.6149 -0.7545
    8MOL   H120 3074   0.503   6.671   4.592  1.0009 -0.7542 -2.5061
    8MOL   H121 3075   0.349   6.801   4.704 -0.1886 -0.3012  0.1532
    8MOL   H122 3076   0.256   6.668   4.652 -0.5764 -1.1705 -3.1468
    8MOL   H123 3077   0.244   6.947   4.545  2.9880 -1.0978  2.3826
    8MOL   H124 3078   0.178   6.815   4.441  0.4147 -0.7362 -0.0941
    8MOL   H125 3079   7.711   6.924   4.570 -0.6538  0.9220  1.9094
    8MOL   H126 3080   0.035   6.762   4.636 -1.2721 -0.2566 -0.7452
    8MOL   H127 3081   0.092   6.914   4.717 -1.0234  0.7964 -0.9245
    8MOL   C128 3082   0.753   6.799   4.453 -0.5272 -0.4771  0.5719
    8MOL   C129 3083   0.810   6.926   4.522  0.2604 -0.4877  0.0665
    8MOL   C130 3084   0.918   6.986   4.421  0.0129  0.4532  0.3106
    8MOL   C131 3085   0.966   7.128   4.464 -0.3111 -0.2988  0.5263
    8MOL   C132 3086   1.040   7.209   4.354 -0.6216 -0.7206  0.4354
    8MOL   C133 3087   1.054   7.356   4.389  0.1423  0.4997 -0.6488
    8MOL   C134 3088   1.122   7.431   4.273  0.5546  0.4733  0.1699
    8MOL   H135 3089   0.742   6.721   4.529 -0.3381 -1.4166 -0.3599
    8MOL   H136 3090   0.827   6.756   4.386 -0.6932  1.3854 -0.8174
    8MOL   H137 3091   0.733   7.003   4.521 -2.5191 -3.1376 -2.7442
    8MOL   H138 3092   0.888   6.983   4.317 -0.8814  1.4221  0.5307
    8MOL   H139 3093   1.005   6.920   4.427 -0.6374 -0.5591 -1.1018
    8MOL   H140 3094   1.032   7.123   4.550 -0.1726  0.7204  0.4801
    8MOL   H141 3095   0.881   7.191   4.491 -0.8936 -0.1031 -1.6346
    8MOL   H142 3096   0.993   7.197   4.256 -0.8547 -0.0870  0.4660
    8MOL   H143 3097   1.131   7.164   4.315 -0.0913  1.2926 -0.6972
    8MOL   H144 3098   1.113   7.377   4.478  1.2451  1.5904 -1.6239
    8MOL   H145 3099   0.956   7.400   4.408 -1.2328 -2.3186 -0.9342
    8MOL   H146 3100   1.223   7.391   4.262  0.3426  0.0122 -0.0809
    8MOL   H147 3101   1.141   7.534   4.301 -0.6770  0.6068  0.5462
    8MOL   H148 3102   1.087   7.416   4.171  1.6361 -1.4865  0.0583
    8MOL   C149 3103   0.859   6.910   4.670  0.5388  0.2545 -0.8890
    8MOL   C150 3104   0.746   6.914   4.775 -0.2069  0.3110 -0.3629
    8MOL   C151 3105   0.692   7.056   4.804  0.0707 -0.1093  0.5750
    8MOL   C152 3106   0.533   7.051   4.836 -0.6364 -0.1070  0.1216
    8MOL   C153 3107   0.478   7.182   4.882  0.1487  1.3050  0.1935
    8MOL   C154 3108   0.326   7.172   4.905  0.5647  0.3852 -0.0946
    8MOL   C155 3109   0.265   7.273   5.005  0.1402  0.9953  0.2708
    8MOL   H156 3110   0.917   6.818   4.672 -1.5026 -1.0480  0.1065
    8MOL   H157 3111   0.932   6.985   4.702  1.0512 -0.8937  0.6994
    8MOL   H158 3112   0.669   6.848   4.735 -0.5688  0.4585  0.0940
    8MOL   H159 3113   0.736   7.120   4.881 -2.2640 -0.4627  2.2739
    8MOL   H160 3114   0.712   7.120   4.718 -2.2258  0.7230  0.6272
    8MOL   H161 3115   0.510   6.977   4.912 -0.0486 -1.2666 -0.8052
    8MOL   H162 3116   0.497   7.024   4.736  0.0785 -1.5977  0.2540
    8MOL   H163 3117   0.506   7.258   4.810 -0.5968  1.9921  0.6091
    8MOL   H164 3118   0.526   7.205   4.978  0.8673 -2.4085  0.8217
    8MOL   H165 3119   0.296   7.079   4.954 -1.4035  0.5223 -0.9958
    8MOL   H166 3120   0.279   7.171   4.807 -0.4118 -2.2406  0.3452
    8MOL   H167 3121   0.157   7.265   5.017  0.4662 -1.0067  2.1140
    8MOL   H168 3122   0.291   7.370   4.962 -0.1243  0.8722 -0.1708
    8MOL   H169 3123   0.304   7.257   5.106  2.5116  1.4363 -0.5421
    8MOL   C170 3124   0.803   6.854   4.909 -0.0196 -0.3176  0.1957
    8MOL   C171 3125   0.773   6.701   4.941  0.2413  0.5723  0.1612
    8MOL   C172 3126   0.859   6.655   5.068  0.7502  0.2439  0.2698
    8MOL   C173 3127   0.830   6.743   5.200 -0.9087  0.1640 -0.1778
    8MOL   C174 3128   0.903   6.664   5.312 -0.2409  0.0775 -0.0993
    8MOL   C175 3129   0.877   6.716   5.449  0.1074 -0.0411 -0.8566
    8MOL   C176 3130   0.974   6.642   5.540 -0.1795  0.0688  0.4748
    8MOL   H177 3131   0.745   6.914   4.979 -1.9168 -0.5213 -1.1554
    8MOL   H178 3132   0.909   6.873   4.924  0.0185 -0.9110  0.6681
    8MOL   H179 3133   0.809   6.641   4.857  3.1771  1.7937  0.4715
    8MOL   H180 3134   0.966   6.657   5.048  0.5479 -0.9162 -0.9706
    8MOL   H181 3135   0.833   6.552   5.093 -0.1821  0.0872 -1.3262
    8MOL   H182 3136   0.724   6.733   5.221 -0.6190 -1.9542  0.4314
    8MOL   H183 3137   0.859   6.847   5.189  0.3395 -0.3686 -2.2811
    8MOL   H184 3138   1.010   6.672   5.293 -0.3314 -0.4071 -0.8921
    8MOL   H185 3139   0.878   6.558   5.307 -1.6509  0.3873  0.3021
    8MOL   H186 3140   0.779   6.681   5.480  0.4163  0.8118  1.1840
    8MOL   H187 3141   0.883   6.824   5.460 -0.9647  0.1076 -1.6599
    8MOL   H188 3142   1.070   6.695   5.541 -1.0362  1.6702  0.7697
    8MOL   H189 3143   0.979   6.534   5.527  0.4311  0.0448  0.8660
    8MOL   H190 3144   0.943   6.668   5.642 -0.1528  2.2588 -0.0453
    8MOL   C191 3145   0.620   6.678   4.957  0.0696 -0.2898  0.3223
    8MOL   C192 3146   0.573   6.530   4.973 -0.2946 -1.2878  0.1710
    8MOL   C193 3147   0.445   6.522   5.056  0.9373 -0.2240 -0.0689
    8MOL   C194 3148   0.318   6.599   5.013 -0.2160  0.1969 -0.0528
    8MOL   C195 3149   0.280   6.717   5.104  0.2270  0.3419 -0.6916
    8MOL   C196 3150   0.168   6.806   5.052  0.2019  0.2047  0.9907
    8MOL   C197 3151   0.028   6.740   5.049 -0.1801 -0.7711  0.2753
    8MOL   H198 3152   0.565   6.725   4.876  0.9431  1.0650  0.4945
    8MOL   H199 3153   0.585   6.738   5.040 -0.5322  0.9710 -0.8333
    8MOL   H200 3154   0.651   6.493   5.041  0.4300  1.3797  0.8456
    8MOL   H201 3155   0.462   6.551   5.160  1.7218 -1.0362  0.0311
    8MOL   H202 3156   0.416   6.420   5.081  1.2972 -0.6979 -1.5399
    8MOL   H203 3157   0.228   6.541   4.996  0.0249 -0.4521  0.8378
    8MOL   H204 3158   0.341   6.636   4.913  1.2947 -3.0053 -0.9528
    8MOL   H205 3159   0.262   6.677   5.204  1.8756  0.9160 -0.1626
    8MOL   H206 3160   0.368   6.778   5.120  0.9057 -1.0375  1.0375
    8MOL   H207 3161   0.197   6.845   4.955 -0.6009  1.9831  1.4558
    8MOL   H208 3162   0.160   6.896   5.112 -1.5880 -0.6892  2.1597
    8MOL   H209 3163   0.014   6.678   5.138 -0.4645 -0.0765  0.7163
    8MOL   H210 3164   0.021   6.683   4.956 -0.4473 -2.3357  1.2367
    8MOL   H211 3165   7.665   6.818   5.054 -1.3541 -1.8372 -0.6279
    8MOL   C212 3166   0.564   6.459   4.838 -0.1787  0.0537 -0.3808
    8MOL   C213 3167   0.513   6.313   4.837  0.5774  0.2776 -0.1406
    8MOL   C214 3168   0.451   6.286   4.703 -0.1794 -0.0320  0.6856
    8MOL   C215 3169   0.306   6.341   4.701  0.1024 -0.6538  0.7625
    8MOL   C216 3170   0.237   6.312   4.566  0.2361  0.6754 -0.3781
    8MOL   C217 3171   0.091   6.359   4.570 -0.0252 -0.1854 -0.8507
    8MOL   C218 3172   0.029   6.316   4.439  0.0874  0.1285  0.6818
    8MOL   H219 3173   0.661   6.465   4.789 -0.1938  0.2526 -0.3882
    8MOL   H220 3174   0.498   6.514   4.771 -2.0463 -0.2614  1.1667
    8MOL   H221 3175   0.434   6.285   4.907  1.5764  1.1350  1.3670
    8MOL   H222 3176   0.517   6.308   4.619 -1.1333  0.6832  0.1199
    8MOL   H223 3177   0.440   6.178   4.694 -0.1213 -0.2417  2.7772
    8MOL   H224 3178   0.304   6.447   4.728  1.2044  0.2107 -2.3029
    8MOL   H225 3179   0.244   6.305   4.783 -0.4289  1.6286  1.3865
    8MOL   H226 3180   0.302   6.361   4.493  1.2008 -2.7806 -1.9176
    8MOL   H227 3181   0.238   6.205   4.546 -0.9385  0.4802  0.5242
    8MOL   H228 3182   0.038   6.317   4.655 -0.5330  0.5843 -0.7839
    8MOL   H229 3183   0.086   6.468   4.577  2.1946 -0.1431  0.3958
    8MOL   H230 3184   0.014   6.209   4.429 -0.3614  0.3362 -0.9705
    8MOL   H231 3185   0.096   6.339   4.356 -0.9380  1.1134  0.1077
    8MOL   H232 3186   7.651   6.371   4.420  0.2751 -0.8584 -3.4336
    8MOL   C233 3187   0.629   6.210   4.861 -0.2653 -0.1434  0.1858
    8MOL   C234 3188   0.726   6.233   4.983 -0.4842  0.0009 -0.1920
    8MOL   C235 3189   0.660   6.221   5.122  0.5578 -0.5199  0.3943
    8MOL   C236 3190   0.729   6.289   5.243  0.4407  0.5467 -0.9723
    8MOL   C237 3191   0.635   6.282   5.368 -0.5454  0.1063  0.5145
    8MOL   C238 3192   0.590   6.131   5.392 -0.3250 -0.5456  0.2322
    8MOL   C239 3193   0.520   6.114   5.522  0.3127  0.7273  0.5064
    8MOL   H240 3194   0.696   6.224   4.776  0.1377 -0.2946  0.4764
    8MOL   H241 3195   0.592   6.108   4.865 -0.0659 -0.1536  3.1955
    8MOL   H242 3196   0.770   6.333   4.980  1.6269 -0.9217 -0.8822
    8MOL   H243 3197   0.647   6.113   5.126  5.1962 -1.1728  0.1590
    8MOL   H244 3198   0.565   6.273   5.111 -0.2079 -1.2950  3.0720
    8MOL   H245 3199   0.745   6.392   5.211  0.4312  0.8249 -0.0706
    8MOL   H246 3200   0.817   6.235   5.277  0.5224  1.5339  0.3789
    8MOL   H247 3201   0.545   6.343   5.361 -1.3862 -1.4531 -3.1905
    8MOL   H248 3202   0.692   6.308   5.457  1.2312  0.2240 -0.6364
    8MOL   H249 3203   0.528   6.110   5.304  3.4994  1.8217 -3.1778
    8MOL   H250 3204   0.675   6.063   5.380  1.0468  0.9472  1.3604
    8MOL   H251 3205   0.412   6.128   5.520  0.5030  2.1267 -0.1263
    8MOL   H252 3206   0.539   6.016   5.566  1.3643  0.9507  0.5402
    8MOL   H253 3207   0.563   6.177   5.600 -2.0934  0.9587  1.7222
    8MOL   C254 3208   0.853   6.136   4.981 -0.0825 -0.1579 -0.2743
    8MOL   C255 3209   0.955   6.154   4.857 -0.4748 -0.3287  0.1086
    8MOL   C256 3210   1.057   6.034   4.851  0.1049 -0.7607 -0.0655
    8MOL   C257 3211   0.998   5.904   4.803 -0.3123  0.4024  0.1334
    8MOL   C258 3212   1.105   5.789   4.797  0.4208 -0.4735  0.1764
    8MOL   C259 3213   1.200   5.802   4.678 -0.0308  0.7181  0.2902
    8MOL   C260 3214   1.134   5.789   4.543  1.0492 -0.1221  0.4129
    8MOL   H261 3215   0.812   6.035   4.980  1.3700 -0.7889  0.7402
    8MOL   H262 3216   0.914   6.144   5.071 -0.2154  1.2945 -0.3075
    8MOL   H263 3217   0.895   6.142   4.766 -0.8870  1.9184  0.0612
    8MOL   H264 3218   1.100   6.026   4.951  0.1598  0.5352  0.0251
    8MOL   H265 3219   1.139   6.061   4.784 -0.9249 -2.3419 -2.0009
    8MOL   H266 3220   0.918   5.870   4.869 -3.0084  1.4160 -2.5275
    8MOL   H267 3221   0.956   5.916   4.704 -1.5553  0.5062  0.6595
    8MOL   H268 3222   1.060   5.690   4.788  0.5022 -0.4333 -0.7086
    8MOL   H269 3223   1.168   5.786   4.886 -0.3793  2.1290  0.8694
    8MOL   H270 3224   1.256   5.895   4.685  1.1313 -0.0554  1.4742
    8MOL   H271 3225   1.272   5.720   4.691 -1.5394 -0.9795 -1.7300
    8MOL   H272 3226   1.079   5.695   4.546  0.0862  0.4442  0.7202
    8MOL   H273 3227   1.064   5.867   4.513 -2.0782 -3.0758 -0.3340
    8MOL   H274 3228   1.209   5.785   4.464  1.7480 -1.4717  1.1340
    8MOL   C275 3229   1.037   6.289   4.859  0.1246 -0.1277 -0.0677
    8MOL   C276 3230   1.012   6.384   4.745  0.1266 -0.1295  0.2521
    8MOL   C277 3231   1.038   6.324   4.603  0.2689  0.3430 -0.3859
    8MOL   C278 3232   0.953   6.391   4.491 -0.0588  0.7310  0.7161
    8MOL   C279 3233   0.798   6.364   4.491  0.3253  0.1190  0.6287
    8MOL   C280 3234   0.740   6.339   4.349  0.6167 -0.7955 -0.2275
    8MOL   C281 3235   0.800   6.221   4.267 -0.5590  0.1735 -0.5860
    8MOL   H282 3236   1.144   6.267   4.859 -0.0217 -0.8580 -0.4055
    8MOL   H283 3237   1.010   6.335   4.954  0.5499 -0.3318  0.1557
    8MOL   H284 3238   0.904   6.396   4.756 -0.1058 -2.9521  1.4388
    8MOL   H285 3239   1.143   6.339   4.578  0.1025  1.0253 -0.6995
    8MOL   H286 3240   1.025   6.215   4.600  2.1956  0.1188 -1.2711
    8MOL   H287 3241   1.001   6.349   4.402  0.1015  0.2406  1.0312
    8MOL   H288 3242   0.972   6.498   4.492 -0.6351  0.8249  1.8297
    8MOL   H289 3243   0.750   6.449   4.539 -1.6342 -0.6315  0.0319
    8MOL   H290 3244   0.767   6.275   4.546 -0.0764 -0.9132 -1.2289
    8MOL   H291 3245   0.636   6.311   4.362 -0.2957  2.2043 -0.7456
    8MOL   H292 3246   0.749   6.420   4.276  1.1709 -0.2184  0.4654
    8MOL   H293 3247   0.878   6.256   4.200  1.4898 -2.3196  0.4060
    8MOL   H294 3248   0.719   6.173   4.212  0.5496 -0.6738 -1.4795
    8MOL   H295 3249   0.838   6.140   4.330 -2.2468 -2.0377 -2.3389
    8MOL   C296 3250   1.069   6.527   4.756  0.1363 -0.4018 -0.4313
    8MOL   C297 3251   1.222   6.537   4.758  0.3285  0.8325  0.9312
    8MOL   C298 3252   1.285   6.608   4.884 -0.8656  0.0324  0.6234
    8MOL   C299 3253   1.261   6.533   5.017  0.1419  0.2664  0.8059
    8MOL   C300 3254   1.317   6.611   5.144 -0.3824 -0.2168 -0.3939
    8MOL   C301 3255   1.278   6.539   5.269  0.1851  0.2645 -0.1494
    8MOL   C302 3256   1.333   6.610   5.394 -0.0475  0.7373  0.1069
    8MOL   H303 3257   1.026   6.581   4.672 -1.8015 -1.3299 -0.0695
    8MOL   H304 3258   1.032   6.570   4.849  0.6584  0.0141 -0.4062
    8MOL   H305 3259   1.251   6.432   4.763 -2.4782 -0.1361 -1.5531
    8MOL   H306 3260   1.393   6.609   4.871 -0.7849 -2.4158  0.9707
    8MOL   H307 3261   1.261   6.714   4.893  1.9282  0.8324 -0.8329
    8MOL   H308 3262   1.297   6.430   5.008  0.8308  0.4345  1.5740
    8MOL   H309 3263   1.155   6.512   5.035  0.3237 -1.3902  0.0211
    8MOL   H310 3264   1.289   6.716   5.144  0.6315  0.0668 -0.7050
    8MOL   H311 3265   1.425   6.618   5.127 -0.3014  3.0111  1.0555
    8MOL   H312 3266   1.171   6.517   5.264  0.3766 -0.6680 -0.2230
    8MOL   H313 3267   1.339   6.448   5.269  0.0584  0.1737 -1.0582
    8MOL   H314 3268   1.303   6.714   5.409  0.2134  0.5591  2.0301
    8MOL   H315 3269   1.279   6.562   5.476  1.3699 -1.4669 -0.1974
    8MOL   H316 3270   1.441   6.602   5.389 -0.1636  0.0375 -1.3644
    8MOL   C317 3271   1.264   6.613   4.630 -0.4459  0.5603 -0.0768
    8MOL   C318 3272   1.414   6.632   4.601 -0.0907  0.0412  0.5913
    8MOL   C319 3273   1.483   6.497   4.590  0.5897 -0.3093 -0.5731
    8MOL   C320 3274   1.446   6.400   4.480  0.2949 -0.9050  0.2764
    8MOL   C321 3275   1.542   6.288   4.461  0.1208 -0.5624 -0.3345
    8MOL   C322 3276   1.542   6.193   4.581 -0.0510  0.0396  0.2960
    8MOL   C323 3277   1.408   6.135   4.616 -0.0784  0.0961  0.1069
    8MOL   H324 3278   1.213   6.709   4.629 -1.7567 -0.1271  0.2131
    8MOL   H325 3279   1.226   6.563   4.540 -2.5731  1.0997  0.5205
    8MOL   H326 3280   1.460   6.682   4.686 -0.5851  0.1887  0.7734
    8MOL   H327 3281   1.478   6.459   4.692  1.1410  0.5539 -0.2109
    8MOL   H328 3282   1.589   6.520   4.584  0.9238 -1.7467 -0.2100
    8MOL   H329 3283   1.446   6.450   4.384  1.7645 -1.6767 -0.1513
    8MOL   H330 3284   1.341   6.373   4.491  0.0821 -0.6050 -1.0542
    8MOL   H331 3285   1.646   6.316   4.446 -0.0704 -0.0155 -0.6589
    8MOL   H332 3286   1.515   6.229   4.374 -0.0485 -1.2464  0.1768
    8MOL   H333 3287   1.580   6.250   4.665 -1.3382  2.0618 -0.4487
    8MOL   H334 3288   1.608   6.109   4.559  0.2767  0.2219  0.5918
    8MOL   H335 3289   1.347   6.200   4.679 -0.7784 -1.0460  0.6264
    8MOL   H336 3290   1.419   6.040   4.668 -0.7716 -0.9792 -1.6884
    8MOL   H337 3291   1.347   6.118   4.528 -2.1902  1.5532  1.2477
    8MOL   C338 3292   1.437   6.715   4.472 -0.1541  0.2612  0.1092
    8MOL   C339 3293   1.376   6.861   4.458 -0.2170  0.8468  0.2285
    8MOL   C340 3294   1.356   6.903   4.309 -0.6934  0.5473  0.5214
    8MOL   C341 3295   1.243   6.819   4.251  0.6593 -0.1531 -0.3877
    8MOL   C342 3296   1.210   6.885   4.122  0.2067 -0.3771 -0.3374
    8MOL   C343 3297   1.107   6.812   4.029 -0.2669 -0.1255  0.4499
    8MOL   C344 3298   0.970   6.794   4.092 -0.1333  0.0090 -0.0600
    8MOL   H345 3299   1.412   6.650   4.387 -1.0611  0.3276  0.3204
    8MOL   H346 3300   1.543   6.723   4.448  0.0161 -0.9264  0.4502
    8MOL   H347 3301   1.275   6.873   4.498 -0.7709 -0.2942 -0.7996
    8MOL   H348 3302   1.339   7.010   4.299  0.0384  0.5676 -0.5565
    8MOL   H349 3303   1.454   6.892   4.262 -0.0728  1.8483  1.4751
    8MOL   H350 3304   1.154   6.818   4.314  0.6071 -0.0739 -0.4597
    8MOL   H351 3305   1.291   6.726   4.220  0.6568 -0.1378 -0.4379
    8MOL   H352 3306   1.169   6.984   4.144  2.2895  0.6129 -0.6960
    8MOL   H353 3307   1.308   6.898   4.076  0.4147 -2.1012 -0.4157
    8MOL   H354 3308   1.105   6.862   3.932 -0.3666  1.2855  1.1681
    8MOL   H355 3309   1.147   6.713   4.007 -0.4050  0.0183 -0.4750
    8MOL   H356 3310   0.966   6.739   4.186  2.6369 -1.6319 -0.8192
    8MOL   H357 3311   0.910   6.737   4.021  0.0173 -1.3467  0.8824
    8MOL   H358 3312   0.929   6.895   4.098 -0.0955 -0.0287  1.0001
    8MOL   C359 3313   1.468   6.956   4.526  0.2237  0.2616  0.4372
    8MOL   C360 3314   1.404   7.088   4.577 -0.0637 -0.0437 -0.1249
    8MOL   C361 3315   1.292   7.068   4.687  0.2116  0.4305 -0.2358
    8MOL   C362 3316   1.332   7.069   4.834 -1.0120  0.1582 -0.1284
    8MOL   C363 3317   1.207   7.073   4.927  0.1879 -0.1989  0.4124
    8MOL   C364 3318   1.238   7.023   5.068 -1.2778  0.2124  0.3311
    8MOL   C365 3319   1.120   7.031   5.171  0.2103  0.5710  0.0419
    8MOL   H366 3320   1.551   6.979   4.459  0.3417 -1.2440  0.0446
    8MOL   H367 3321   1.515   6.903   4.609  0.2208 -1.2323 -0.4809
    8MOL   H368 3322   1.349   7.117   4.488  2.1818  2.3732 -0.7862
    8MOL   H369 3323   1.221   7.150   4.676  1.0437  0.8254 -3.1888
    8MOL   H370 3324   1.243   6.973   4.665  1.8296 -0.0612 -1.8921
    8MOL   H371 3325   1.380   6.972   4.852 -2.0137 -0.1771  0.7961
    8MOL   H372 3326   1.404   7.146   4.862  0.1979 -0.4191 -1.5597
    8MOL   H373 3327   1.186   7.179   4.943 -0.1974 -0.3485  0.9417
    8MOL   H374 3328   1.122   7.032   4.872  0.0685  0.8551 -0.2042
    8MOL   H375 3329   1.271   6.920   5.062 -0.5399  0.3383  2.1052
    8MOL   H376 3330   1.327   7.068   5.113 -0.6805 -1.3043  0.6835
    8MOL   H377 3331   1.095   7.133   5.203 -1.2915 -0.0995  1.0377
    8MOL   H378 3332   1.025   6.995   5.130 -1.5491  2.1643  2.5758
    8MOL   H379 3333   1.155   6.972   5.255 -0.0903  0.9220  0.4188
    8MOL   C380 3334   1.513   7.192   4.611 -0.2098 -0.4428 -0.5412
    8MOL   C381 3335   1.598   7.245   4.493  0.0655 -0.4402 -0.8032
    8MOL   C382 3336   1.513   7.343   4.412 -0.1295 -0.4675  1.0709
    8MOL   C383 3337   1.575   7.429   4.301  0.4124  0.1788 -0.2467
    8MOL   C384 3338   1.475   7.471   4.195  0.1693 -0.1721 -0.1242
    8MOL   C385 3339   1.438   7.357   4.107  0.3968  0.0838  0.2863
    8MOL   C386 3340   1.355   7.409   3.991 -0.3875 -0.8474 -0.4755
    8MOL   H387 3341   1.463   7.276   4.659  0.0364 -0.9858  0.6872
    8MOL   H388 3342   1.587   7.148   4.678  2.3581  1.6042 -1.9688
    8MOL   H389 3343   1.634   7.176   4.417 -0.7736  2.0329 -3.5662
    8MOL   H390 3344   1.456   7.410   4.476  0.6171  2.2553 -0.9981
    8MOL   H391 3345   1.431   7.288   4.366 -0.6437  1.7050 -0.6801
    8MOL   H392 3346   1.619   7.518   4.347 -1.4398 -0.3055  2.5784
    8MOL   H393 3347   1.658   7.375   4.255  1.0498  1.9249 -1.2207
    8MOL   H394 3348   1.382   7.502   4.245  1.3977 -0.8530  2.6685
    8MOL   H395 3349   1.508   7.557   4.136 -1.4353  0.2525 -0.4369
    8MOL   H396 3350   1.385   7.284   4.168 -0.7507  2.4604  2.2215
    8MOL   H397 3351   1.529   7.310   4.070  1.8130  1.1756  2.2635
    8MOL   H398 3352   1.280   7.482   4.019  0.9706  0.4177 -0.0735
    8MOL   H399 3353   1.306   7.324   3.944 -0.1447 -0.8715 -0.6838
    8MOL   H400 3354   1.411   7.455   3.910  0.7694 -0.2064  0.6775
    8MOL   C401 3355   1.719   7.307   4.556  0.2530 -0.3066 -0.1191
    8MOL   C402 3356   1.825   7.198   4.590  0.0348 -0.1536  0.1673
    8MOL   C403 3357   1.972   7.245   4.637  0.3424  0.9501  0.0206
    8MOL   C404 3358   2.072   7.129   4.632 -0.4587 -0.0565 -0.3061
    8MOL   C405 3359   2.044   7.021   4.738  0.2108 -0.3905 -0.1204
    8MOL   C406 3360   2.143   6.904   4.730  0.0144  0.0692  0.3020
    8MOL   C407 3361   2.147   6.798   4.840 -0.5059  0.4136  0.1656
    8MOL   H408 3362   1.692   7.348   4.653  0.3683 -0.6271  0.0483
    8MOL   H409 3363   1.770   7.384   4.497  0.0666 -0.0192  0.0934
    8MOL   H410 3364   1.830   7.133   4.503  0.2653 -0.7004  0.5881
    8MOL   H411 3365   1.962   7.282   4.739 -1.9678  0.7511 -0.1162
    8MOL   H412 3366   2.009   7.331   4.582  1.2868  1.2941  1.1615
    8MOL   H413 3367   2.170   7.173   4.651 -0.4931 -0.8805  1.9270
    8MOL   H414 3368   2.064   7.088   4.532 -1.1062  1.0703 -0.7281
    8MOL   H415 3369   2.046   7.063   4.839  1.3880 -1.2024  0.2082
    8MOL   H416 3370   1.945   6.976   4.726 -0.6397  0.7918  2.2353
    8MOL   H417 3371   2.137   6.852   4.634 -0.0383 -1.9668  1.3672
    8MOL   H418 3372   2.244   6.945   4.725 -0.1040  0.4007  0.6191
    8MOL   H419 3373   2.124   6.834   4.940 -1.1938  0.8336 -0.1415
    8MOL   H420 3374   2.246   6.752   4.840 -1.1676 -1.0283 -0.1498
    8MOL   H421 3375   2.073   6.722   4.813 -1.2238  1.7948 -1.9132
    8MOL   H422 3376   1.796   7.134   4.673 -0.0644 -2.1948 -1.4081
    9MOL     C1 3377   5.729   2.099   1.344  0.1885  0.4018  0.2204
    9MOL     C2 3378   5.689   2.201   1.459 -0.7397  0.1589 -0.9236
    9MOL     C3 3379   5.707   2.351   1.428 -0.0472 -0.7519  0.3447
    9MOL     C4 3380   5.637   2.389   1.291 -0.2819  0.1791  0.2199
    9MOL     C5 3381   5.653   2.535   1.258 -0.0856 -0.4589 -0.9324
    9MOL     C6 3382   5.620   2.576   1.109  0.3472 -0.6520 -0.0038
    9MOL     C7 3383   5.730   2.541   1.016  0.6415  0.3915  0.5869
    9MOL     H8 3384   5.833   2.109   1.313  0.1369  0.2113 -0.0186
    9MOL     H9 3385   5.664   2.107   1.257 -0.4439 -2.2068  0.4113
    9MOL    H10 3386   5.582   2.181   1.471 -0.4262 -0.8598  0.2987
    9MOL    H11 3387   5.668   2.406   1.514 -2.2700 -2.2014  0.2849
    9MOL    H12 3388   5.813   2.374   1.419 -0.4766  0.9761 -0.6728
    9MOL    H13 3389   5.705   2.335   1.225 -0.5897 -0.3137  0.3041
    9MOL    H14 3390   5.531   2.362   1.283 -0.4790  1.5031 -2.0105
    9MOL    H15 3391   5.749   2.575   1.290 -0.8987  3.7093 -3.2385
    9MOL    H16 3392   5.587   2.586   1.328  0.7080 -1.7908  0.8066
    9MOL    H17 3393   5.605   2.684   1.119 -2.8929 -1.0648  0.2003
    9MOL    H18 3394   5.529   2.542   1.060 -0.3316  0.2716  0.6061
    9MOL    H19 3395   5.821   2.513   1.070  0.6796 -1.5589 -0.4502
    9MOL    H20 3396   5.743   2.615   0.937 -2.5109 -1.0547 -1.3675
    9MOL    H21 3397   5.705   2.447   0.968  1.2292  0.8497 -0.6416
    9MOL    H22 3398   5.721   1.998   1.386  1.0578  0.9274  1.6920
    9MOL    C23 3399   5.760   2.167   1.590  0.2297 -0.4058 -0.8404
    9MOL    C24 3400   5.742   2.024   1.644 -0.6335  0.2635 -0.2642
    9MOL    C25 3401   5.596   1.973   1.642  0.3699  0.6563 -0.6415
    9MOL    C26 3402   5.490   2.066   1.710 -0.3799 -0.6769 -0.0541
    9MOL    C27 3403   5.348   2.017   1.708 -0.2129  0.3644 -0.3110
    9MOL    C28 3404   5.276   2.043   1.572 -0.4232  0.1829 -0.3001
    9MOL    C29 3405   5.137   1.994   1.559  0.6611 -0.0178 -0.3326
    9MOL    H30 3406   5.867   2.185   1.577  0.3304 -0.9306 -0.7305
    9MOL    H31 3407   5.729   2.241   1.663 -0.5684 -0.2446 -1.3388
    9MOL    H32 3408   5.789   1.950   1.579  2.4473  0.8936  1.1827
    9MOL    H33 3409   5.603   1.877   1.692  0.7489  0.3649 -1.2541
    9MOL    H34 3410   5.566   1.958   1.538 -0.2623  0.0472 -0.3698
    9MOL    H35 3411   5.488   2.163   1.661  0.5281  0.0840  1.3623
    9MOL    H36 3412   5.526   2.072   1.813 -1.5842 -2.7306  0.5093
    9MOL    H37 3413   5.293   2.055   1.795  0.6135 -1.4027  1.0162
    9MOL    H38 3414   5.344   1.909   1.725  0.1660  0.8154  3.1158
    9MOL    H39 3415   5.339   1.994   1.497  0.4141 -0.4934  0.8356
    9MOL    H40 3416   5.290   2.147   1.543 -1.8839  0.5766  0.3839
    9MOL    H41 3417   5.119   1.893   1.596 -1.7438  0.3424 -0.4147
    9MOL    H42 3418   5.079   2.047   1.635  1.5958 -1.3111  1.3208
    9MOL    H43 3419   5.097   2.003   1.458 -0.8028 -2.7114 -0.0442
    9MOL    C44 3420   5.817   1.994   1.769  0.8571  0.0038  0.1057
    9MOL    C45 3421   5.936   1.885   1.774 -0.3906 -0.8553  0.2133
    9MOL    C46 3422   5.880   1.746   1.745 -0.1697 -0.3352 -0.0895
    9MOL    C47 3423   5.978   1.632   1.776  0.3880 -0.4249 -0.5136
    9MOL    C48 3424   5.919   1.494   1.733 -0.4758 -0.0151  0.4291
    9MOL    C49 3425   6.025   1.378   1.758  0.6855  0.0677  0.3609
    9MOL    C50 3426   6.068   1.364   1.904 -0.1825 -0.0732  0.6097
    9MOL    H51 3427   5.754   1.970   1.855 -1.3535  0.9464 -1.2012
    9MOL    H52 3428   5.856   2.087   1.811 -0.5996  0.2469  0.9545
    9MOL    H53 3429   5.958   1.871   1.879  0.2456  0.1744  0.2253
    9MOL    H54 3430   5.872   1.751   1.636 -0.4557 -0.1448 -0.0617
    9MOL    H55 3431   5.782   1.725   1.787 -1.6238 -1.0756 -3.6768
    9MOL    H56 3432   6.064   1.641   1.710  0.4175 -0.9496 -0.5450
    9MOL    H57 3433   6.017   1.636   1.878 -1.2160  0.8432  0.0723
    9MOL    H58 3434   5.900   1.492   1.626  0.1690 -0.4326  0.3228
    9MOL    H59 3435   5.820   1.471   1.773 -1.3655  1.1734 -1.0371
    9MOL    H60 3436   6.114   1.402   1.698 -0.0194  0.9241 -0.3492
    9MOL    H61 3437   5.993   1.280   1.721  0.0952  0.0998  0.7876
    9MOL    H62 3438   6.131   1.276   1.919  1.2693  0.7386 -0.6545
    9MOL    H63 3439   5.984   1.360   1.974  1.0871  2.9544  2.4043
    9MOL    H64 3440   6.132   1.448   1.931  1.0394 -0.4559 -1.0140
    9MOL    C65 3441   6.055   1.933   1.683 -0.2350 -0.1096 -0.2656
    9MOL    C66 3442   6.144   2.047   1.749  0.7025 -0.0625 -0.6572
    9MOL    C67 3443   6.180   2.162   1.651  0.0536 -0.0620 -0.0467
    9MOL    C68 3444   6.224   2.296   1.722  0.0097  1.0319 -0.6224
    9MOL    C69 3445   6.218   2.403   1.620  0.4538  0.4132  0.1512
    9MOL    C70 3446   6.248   2.538   1.684 -0.3516  0.6291  0.2097
    9MOL    C71 3447   6.137   2.585   1.778 -0.2439  0.9561 -0.5030
    9MOL    H72 3448   6.115   1.847   1.651  0.5921 -0.7265  2.7262
    9MOL    H73 3449   6.015   1.970   1.589  3.8842  0.4253 -1.8928
    9MOL    H74 3450   6.069   2.097   1.811  3.2632  1.1205  1.5531
    9MOL    H75 3451   6.261   2.134   1.584  0.3661  2.5368 -0.7805
    9MOL    H76 3452   6.090   2.164   1.589  0.5657 -0.0387 -0.7980
    9MOL    H77 3453   6.154   2.311   1.805 -1.2058 -4.8133 -0.4091
    9MOL    H78 3454   6.327   2.281   1.753  0.1945  1.9025 -0.8057
    9MOL    H79 3455   6.292   2.369   1.548 -1.4517 -1.2557 -1.0555
    9MOL    H80 3456   6.117   2.406   1.579  0.2177 -1.4163  0.5516
    9MOL    H81 3457   6.261   2.615   1.608  0.6619 -0.7621 -1.0607
    9MOL    H82 3458   6.347   2.519   1.725  0.4108  0.8893 -1.4718
    9MOL    H83 3459   6.087   2.525   1.854 -0.3310 -0.8150 -1.9383
    9MOL    H84 3460   6.179   2.677   1.820  0.1941 -0.1230  1.4919
    9MOL    H85 3461   6.054   2.623   1.719 -0.0414 -0.3089 -1.6292
    9MOL    C86 3462   6.255   2.005   1.854  0.3372  0.1592  0.4032
    9MOL    C87 3463   6.352   1.887   1.810  0.2864  0.1905 -0.0465
    9MOL    C88 3464   6.412   1.911   1.663  0.2673 -0.3861  0.6332
    9MOL    C89 3465   6.518   2.021   1.643  0.3452 -0.0841 -0.1634
    9MOL    C90 3466   6.583   2.022   1.502  0.8957  0.2961 -0.0988
    9MOL    C91 3467   6.665   2.152   1.490 -0.2469 -0.3133 -0.1671
    9MOL    C92 3468   6.586   2.284   1.488  0.2834  0.4839  0.5558
    9MOL    H93 3469   6.301   2.096   1.894  1.1566 -0.9812  2.0986
    9MOL    H94 3470   6.200   1.962   1.937 -0.4832  0.3690 -0.0262
    9MOL    H95 3471   6.293   1.795   1.809 -0.3392  0.5941 -0.2984
    9MOL    H96 3472   6.473   1.824   1.645 -0.8305 -1.1757  0.6606
    9MOL    H97 3473   6.344   1.913   1.578  0.3136 -0.8436  0.5846
    9MOL    H98 3474   6.464   2.115   1.658 -1.1179 -0.8944 -0.2309
    9MOL    H99 3475   6.590   2.028   1.724  0.5571 -0.2928 -0.3334
    9MOL   H100 3476   6.508   2.019   1.423 -0.5721 -1.2517  1.3219
    9MOL   H101 3477   6.646   1.934   1.493 -2.3438 -1.9458 -1.5362
    9MOL   H102 3478   6.743   2.146   1.566 -0.8417 -1.3759  0.3620
    9MOL   H103 3479   6.719   2.152   1.396 -1.3933  0.2355 -0.8403
    9MOL   H104 3480   6.528   2.285   1.396 -0.1030 -1.1443  0.7618
    9MOL   H105 3481   6.650   2.369   1.467 -0.1984  0.2140 -2.1853
    9MOL   H106 3482   6.518   2.306   1.571  1.0581 -0.4592  1.4611
    9MOL   C107 3483   6.441   1.853   1.929 -0.8127  0.8424 -0.1081
    9MOL   C108 3484   6.516   1.719   1.920  0.3038  0.2173 -0.2222
    9MOL   C109 3485   6.660   1.719   1.984 -0.3827 -0.1899 -0.3041
    9MOL   C110 3486   6.773   1.803   1.919 -0.1139 -0.1635  0.4770
    9MOL   C111 3487   6.798   1.765   1.778  0.0619 -0.3683 -0.1514
    9MOL   C112 3488   6.932   1.814   1.719  0.0081 -0.1522 -0.3560
    9MOL   C113 3489   6.953   1.741   1.586 -0.2268 -0.3016  0.1215
    9MOL   H114 3490   6.383   1.859   2.022  0.2427 -0.3453  0.6439
    9MOL   H115 3491   6.521   1.926   1.916  1.0661 -1.5227 -2.2725
    9MOL   H116 3492   6.517   1.689   1.815  0.0690  1.4215 -0.5740
    9MOL   H117 3493   6.702   1.618   1.988 -0.0728 -0.0364  0.3641
    9MOL   H118 3494   6.655   1.753   2.087  2.6121 -0.8260  0.0980
    9MOL   H119 3495   6.736   1.905   1.920 -1.2221 -0.5637  1.0557
    9MOL   H120 3496   6.861   1.811   1.982  0.4898  2.2727 -0.6123
    9MOL   H121 3497   6.709   1.793   1.721 -1.6311 -1.0066  2.0992
    9MOL   H122 3498   6.789   1.658   1.764  1.0814 -0.3861 -0.6428
    9MOL   H123 3499   6.934   1.923   1.716  0.6547 -0.0651  2.0577
    9MOL   H124 3500   7.004   1.779   1.793 -0.7227  0.3326  0.5924
    9MOL   H125 3501   7.049   1.779   1.550 -0.4489  1.2997  1.1712
    9MOL   H126 3502   6.958   1.632   1.595 -0.1081 -0.1296  2.4665
    9MOL   H127 3503   6.875   1.768   1.515 -0.2314  0.0111  0.2471
    9MOL   C128 3504   6.429   1.597   1.983  0.7223 -0.5014  0.0843
    9MOL   C129 3505   6.487   1.456   1.975 -0.1711  0.0646  0.0045
    9MOL   C130 3506   6.523   1.417   1.823 -0.2649  0.3465  0.6486
    9MOL   C131 3507   6.405   1.438   1.723  0.0692  0.4812  0.1751
    9MOL   C132 3508   6.449   1.417   1.580  0.7055  0.6178 -0.1692
    9MOL   C133 3509   6.334   1.439   1.478 -0.3062 -0.1281  0.2561
    9MOL   C134 3510   6.271   1.578   1.487 -0.1856  0.2295 -0.1316
    9MOL   H135 3511   6.430   1.622   2.089  0.7705  0.7542 -0.2010
    9MOL   H136 3512   6.325   1.607   1.952  0.9033  2.1531  0.1722
    9MOL   H137 3513   6.582   1.446   2.028  2.3798  1.9647 -3.8890
    9MOL   H138 3514   6.554   1.312   1.821 -0.1692  0.3719  0.7808
    9MOL   H139 3515   6.610   1.476   1.797 -0.0403  0.0307  0.6748
    9MOL   H140 3516   6.368   1.540   1.734  2.1952  1.3100 -0.0520
    9MOL   H141 3517   6.321   1.381   1.764  0.3859  1.1831  1.8420
    9MOL   H142 3518   6.493   1.318   1.573  1.8716  0.8419  3.1947
    9MOL   H143 3519   6.528   1.484   1.547 -0.8027  1.4802 -2.1699
    9MOL   H144 3520   6.256   1.364   1.491  0.8373 -1.5332 -0.7759
    9MOL   H145 3521   6.368   1.428   1.375 -2.6232 -1.7855 -0.3749
    9MOL   H146 3522   6.242   1.607   1.588  0.5460  0.5663 -0.0123
    9MOL   H147 3523   6.177   1.568   1.434 -0.2980 -0.5210  0.2100
    9MOL   H148 3524   6.338   1.657   1.453 -0.3566 -0.1999 -1.4992
    9MOL   C149 3525   6.408   1.340   2.043 -0.2146  0.2503 -0.2324
    9MOL   C150 3526   6.363   1.361   2.189  0.2753 -0.8181  0.1467
    9MOL   C151 3527   6.484   1.382   2.286 -0.3823  0.2621  0.6908
    9MOL   C152 3528   6.573   1.262   2.319  0.3304 -0.5039  0.0286
    9MOL   C153 3529   6.691   1.305   2.409  0.1830  0.3186  0.0143
    9MOL   C154 3530   6.803   1.199   2.430 -0.1047  0.1238 -0.1042
    9MOL   C155 3531   6.920   1.241   2.524  0.5469  0.0986  0.0682
    9MOL   H156 3532   6.315   1.326   1.989 -1.2200  0.7211  1.3302
    9MOL   H157 3533   6.452   1.241   2.028  1.0305  0.8268 -0.4297
    9MOL   H158 3534   6.318   1.458   2.167  1.3230 -0.5114 -0.6414
    9MOL   H159 3535   6.554   1.455   2.246  1.2196 -1.2755  0.5788
    9MOL   H160 3536   6.452   1.431   2.378  2.1964  1.0695  1.2002
    9MOL   H161 3537   6.623   1.217   2.234  0.9088  1.4645 -0.7080
    9MOL   H162 3538   6.518   1.182   2.369 -0.6591  0.2575  0.1826
    9MOL   H163 3539   6.629   1.326   2.497 -1.7850 -2.0208 -0.7645
    9MOL   H164 3540   6.741   1.398   2.382  0.0793  1.0858  2.2991
    9MOL   H165 3541   6.858   1.176   2.339 -0.0016  2.7692 -0.7583
    9MOL   H166 3542   6.762   1.104   2.464  0.3644 -0.2336 -0.5443
    9MOL   H167 3543   6.984   1.156   2.546 -0.1948 -0.9938 -1.8544
    9MOL   H168 3544   6.881   1.279   2.618 -1.6650 -1.0222 -0.3589
    9MOL   H169 3545   6.972   1.321   2.470  1.2727  0.4411  1.2614
    9MOL   C170 3546   6.261   1.249   2.233  1.3191  0.2764  0.7443
    9MOL   C171 3547   6.196   1.268   2.374 -0.5935 -1.0052  0.0875
    9MOL   C172 3548   6.079   1.369   2.353  0.2987  0.6904 -0.7674
    9MOL   C173 3549   5.984   1.387   2.477 -0.1304 -0.1736  0.2657
    9MOL   C174 3550   5.883   1.504   2.479 -0.6832 -0.2615 -0.2267
    9MOL   C175 3551   5.761   1.482   2.385  0.9024 -1.3037 -0.2354
    9MOL   C176 3552   5.655   1.584   2.407 -0.5312  0.8900 -0.0886
    9MOL   H177 3553   6.316   1.155   2.224 -0.0885 -0.3514 -1.8813
    9MOL   H178 3554   6.177   1.236   2.165  2.0185 -0.5829  0.0447
    9MOL   H179 3555   6.263   1.324   2.440 -1.4493 -0.8490  0.8432
    9MOL   H180 3556   6.018   1.345   2.266 -1.0613 -0.6824  0.5419
    9MOL   H181 3557   6.127   1.461   2.321  1.3487 -0.0183 -1.2631
    9MOL   H182 3558   6.054   1.391   2.561 -0.4617 -1.9891  0.6521
    9MOL   H183 3559   5.922   1.298   2.483 -0.2702 -0.1713 -1.1079
    9MOL   H184 3560   5.943   1.595   2.470 -0.9905  0.2416  2.4793
    9MOL   H185 3561   5.851   1.507   2.583 -0.0654 -0.0830 -0.0409
    9MOL   H186 3562   5.726   1.381   2.406  2.1312 -1.6330  0.2381
    9MOL   H187 3563   5.800   1.479   2.284 -3.1793  0.9566 -1.9903
    9MOL   H188 3564   5.710   1.678   2.396 -0.0539  0.7449  0.9797
    9MOL   H189 3565   5.612   1.582   2.507  0.2334  1.8781  0.2647
    9MOL   H190 3566   5.574   1.574   2.335 -0.3349  1.2349 -0.3616
    9MOL   C191 3567   6.155   1.133   2.435 -0.0893  0.1971 -0.2604
    9MOL   C192 3568   6.266   1.038   2.484 -0.0208 -0.2603 -0.0904
    9MOL   C193 3569   6.345   1.104   2.605  0.5947  0.1313 -0.4348
    9MOL   C194 3570   6.466   1.019   2.652  0.9929  0.0107 -0.2777
    9MOL   C195 3571   6.538   1.098   2.760 -0.0751  0.3923  0.2271
    9MOL   C196 3572   6.672   1.041   2.800  0.0009 -0.0021  0.2374
    9MOL   C197 3573   6.717   1.102   2.933 -0.4316 -0.7955  0.5204
    9MOL   H198 3574   6.086   1.083   2.368  0.5936  0.7693 -1.4089
    9MOL   H199 3575   6.099   1.154   2.526 -0.0170  0.0776 -0.1864
    9MOL   H200 3576   6.344   1.011   2.413  2.5862  1.0913  2.1535
    9MOL   H201 3577   6.276   1.108   2.689  1.0802  0.6963 -0.0632
    9MOL   H202 3578   6.381   1.203   2.579  2.3769 -0.4520 -0.2746
    9MOL   H203 3579   6.535   1.005   2.568  0.7136  1.6050 -0.8030
    9MOL   H204 3580   6.440   0.920   2.688 -4.0309  0.7567 -1.4271
    9MOL   H205 3581   6.552   1.201   2.729  1.3234 -0.5038 -2.2300
    9MOL   H206 3582   6.474   1.095   2.848  0.4871  0.8459  0.6516
    9MOL   H207 3583   6.727   1.073   2.711  0.6410  2.4147  1.4681
    9MOL   H208 3584   6.669   0.933   2.814  2.7522 -0.0926  0.5327
    9MOL   H209 3585   6.668   1.061   3.021 -1.9946 -2.0083 -0.8795
    9MOL   H210 3586   6.721   1.210   2.917  0.0242 -1.0422 -1.1333
    9MOL   H211 3587   6.820   1.073   2.953  0.3416  1.4378 -0.1315
    9MOL   C212 3588   6.192   0.908   2.535 -0.5461 -0.4707 -0.4994
    9MOL   C213 3589   6.173   0.794   2.431  0.7428  0.0153  0.2330
    9MOL   C214 3590   6.304   0.697   2.429  0.5639  0.1431  0.0944
    9MOL   C215 3591   6.320   0.609   2.301  0.4911  0.1235  0.5749
    9MOL   C216 3592   6.428   0.498   2.322 -0.2279 -0.4160  0.0992
    9MOL   C217 3593   6.446   0.405   2.198  0.0923  0.4229 -0.8795
    9MOL   C218 3594   6.538   0.285   2.236  0.1955 -0.3369  0.6162
    9MOL   H219 3595   6.094   0.941   2.569  0.3811  2.3820 -0.4868
    9MOL   H220 3596   6.238   0.869   2.625  1.3207  2.7585  0.0063
    9MOL   H221 3597   6.164   0.837   2.332  1.7712 -0.3918 -0.0345
    9MOL   H222 3598   6.382   0.768   2.458  0.0762  0.9677 -0.6075
    9MOL   H223 3599   6.310   0.628   2.513  0.3116  0.4984  0.4059
    9MOL   H224 3600   6.349   0.658   2.208 -0.7274 -0.6227 -0.2004
    9MOL   H225 3601   6.220   0.570   2.283  0.7386  0.2470 -1.1228
    9MOL   H226 3602   6.523   0.548   2.343 -1.4111  1.0621  2.0865
    9MOL   H227 3603   6.412   0.435   2.409 -1.0199  0.8902  0.9125
    9MOL   H228 3604   6.352   0.370   2.156  0.2859  1.4452 -2.1988
    9MOL   H229 3605   6.493   0.463   2.119  0.8528 -0.8171 -1.3606
    9MOL   H230 3606   6.519   0.235   2.331 -1.5846  1.7515  1.4182
    9MOL   H231 3607   6.643   0.311   2.231  0.3788 -1.1167  0.2910
    9MOL   H232 3608   6.520   0.203   2.166 -0.3752  2.2246 -2.3351
    9MOL   C233 3609   6.037   0.709   2.457  0.0242 -0.1332 -0.1794
    9MOL   C234 3610   5.907   0.787   2.432  0.2793  0.3427  0.9025
    9MOL   C235 3611   5.885   0.800   2.270 -0.2935  0.1044 -0.4387
    9MOL   C236 3612   5.811   0.934   2.229 -0.3819  0.3982 -0.2477
    9MOL   C237 3613   5.838   0.976   2.088  0.5000  0.0149 -0.6979
    9MOL   C238 3614   5.745   1.083   2.034 -0.4276 -0.4634 -0.6137
    9MOL   C239 3615   5.777   1.107   1.880  0.1562 -0.4119 -1.2140
    9MOL   H240 3616   6.050   0.675   2.560 -2.3838  1.7454  0.8168
    9MOL   H241 3617   6.031   0.615   2.402  1.2800 -2.4067  3.3547
    9MOL   H242 3618   5.921   0.887   2.472 -1.5922  1.1876 -0.4771
    9MOL   H243 3619   5.826   0.718   2.230  0.0987  0.8547 -2.6054
    9MOL   H244 3620   5.979   0.805   2.216  0.2045  1.1070  0.5006
    9MOL   H245 3621   5.834   1.013   2.301  1.0050 -0.8528  0.7169
    9MOL   H246 3622   5.702   0.923   2.234 -0.1822 -1.3759  0.8544
    9MOL   H247 3623   5.831   0.888   2.023 -1.1862 -0.4886  0.1471
    9MOL   H248 3624   5.941   1.011   2.076 -0.0373  1.5033 -1.1669
    9MOL   H249 3625   5.643   1.044   2.031 -0.7297  0.4092 -2.7706
    9MOL   H250 3626   5.754   1.180   2.082 -1.5456 -1.7086  2.2246
    9MOL   H251 3627   5.753   1.014   1.827  0.2350 -1.0402 -0.1680
    9MOL   H252 3628   5.728   1.196   1.841  2.4636  0.8103 -1.3869
    9MOL   H253 3629   5.883   1.129   1.874 -0.3114  1.5801 -2.6487
    9MOL   C254 3630   5.801   0.701   2.498 -0.0571  0.5550  0.0728
    9MOL   C255 3631   5.654   0.738   2.470  1.0812  0.1472 -0.4224
    9MOL   C256 3632   5.598   0.834   2.573  0.0269  0.1706 -0.0753
    9MOL   C257 3633   5.636   0.985   2.560  0.5476  0.1739 -0.5030
    9MOL   C258 3634   5.571   1.066   2.666 -0.0166  0.1904 -0.1259
    9MOL   C259 3635   5.595   1.214   2.636 -0.1578 -0.6698  0.8523
    9MOL   C260 3636   5.536   1.319   2.737  0.4210 -0.0396  0.5340
    9MOL   H261 3637   5.802   0.704   2.607 -0.9553  1.2792  0.0638
    9MOL   H262 3638   5.822   0.601   2.460  0.2247  1.4016 -2.0664
    9MOL   H263 3639   5.644   0.779   2.370  2.0372 -0.2619 -0.6848
    9MOL   H264 3640   5.621   0.795   2.672 -0.5380 -0.0380 -0.0250
    9MOL   H265 3641   5.489   0.833   2.575  0.0378 -0.6018  0.6873
    9MOL   H266 3642   5.744   0.989   2.571  0.4411 -0.0070  0.7282
    9MOL   H267 3643   5.603   1.021   2.462 -0.6444  0.1336 -0.1278
    9MOL   H268 3644   5.623   1.028   2.754 -0.4279 -0.1777 -0.0391
    9MOL   H269 3645   5.464   1.051   2.680  0.1670  0.0162  1.1082
    9MOL   H270 3646   5.702   1.229   2.623 -0.1425 -1.9535 -0.6939
    9MOL   H271 3647   5.536   1.229   2.546  0.4632 -0.4388  0.4898
    9MOL   H272 3648   5.586   1.314   2.834  1.0996 -0.4912  0.1677
    9MOL   H273 3649   5.549   1.421   2.698  0.1169 -0.7808 -1.6027
    9MOL   H274 3650   5.434   1.287   2.754  0.2550  1.1742  1.8950
    9MOL   C275 3651   5.573   0.612   2.454 -0.2300  0.2851  0.0239
    9MOL   C276 3652   5.424   0.614   2.407  0.3253  0.9708 -0.1476
    9MOL   C277 3653   5.332   0.494   2.458 -0.2815  0.0465 -0.0004
    9MOL   C278 3654   5.181   0.520   2.476  0.4445 -0.6482  0.0844
    9MOL   C279 3655   5.091   0.408   2.529  0.1150  0.2725  0.3013
    9MOL   C280 3656   5.082   0.304   2.421  0.0956  0.2527  0.3473
    9MOL   C281 3657   4.998   0.182   2.466 -0.5179  0.3743  0.2046
    9MOL   H282 3658   5.576   0.565   2.552 -0.6964  2.8098  1.2882
    9MOL   H283 3659   5.631   0.542   2.395  1.5098  0.7493  1.1351
    9MOL   H284 3660   5.393   0.710   2.447  0.4557  0.3122  1.5554
    9MOL   H285 3661   5.347   0.401   2.403  0.6654 -1.0415  2.0212
    9MOL   H286 3662   5.375   0.461   2.553 -0.4026  1.9470  0.7332
    9MOL   H287 3663   5.133   0.581   2.399  0.7541 -1.9000 -1.1227
    9MOL   H288 3664   5.187   0.588   2.561  1.4502  1.0214 -1.2943
    9MOL   H289 3665   4.988   0.442   2.543 -0.1313 -1.0295  1.8929
    9MOL   H290 3666   5.117   0.370   2.628 -1.2842 -1.2660  0.1166
    9MOL   H291 3667   5.038   0.348   2.331 -0.4459 -0.0704  0.4515
    9MOL   H292 3668   5.184   0.280   2.392  0.8812  0.6865  2.6723
    9MOL   H293 3669   5.055   0.124   2.538  0.4013  0.6403 -0.3077
    9MOL   H294 3670   4.971   0.116   2.384  0.2760 -0.1673  0.3817
    9MOL   H295 3671   4.909   0.213   2.521  1.1929  0.4146  3.0475
    9MOL   C296 3672   5.407   0.624   2.255  0.3008 -0.1825  0.8969
    9MOL   C297 3673   5.324   0.744   2.213 -0.1354 -0.0382 -0.3965
    9MOL   C298 3674   5.277   0.727   2.074  0.0757 -0.0156 -0.2452
    9MOL   C299 3675   5.176   0.609   2.044 -0.3976  0.0228  0.0904
    9MOL   C300 3676   5.109   0.609   1.907 -0.2434  0.3860  0.2515
    9MOL   C301 3677   5.002   0.494   1.880 -0.9335 -0.4806  0.1426
    9MOL   C302 3678   4.973   0.450   1.736 -0.5062  0.1810 -0.1867
    9MOL   H303 3679   5.505   0.644   2.212 -0.4443  0.5166 -0.5326
    9MOL   H304 3680   5.376   0.526   2.219 -0.0842  0.6185 -1.0252
    9MOL   H305 3681   5.235   0.742   2.276 -0.8706 -3.9937 -1.4030
    9MOL   H306 3682   5.214   0.811   2.046 -2.9791 -1.9623  0.6205
    9MOL   H307 3683   5.359   0.712   2.004 -0.7767  0.1575 -1.2900
    9MOL   H308 3684   5.104   0.618   2.126  1.5781 -0.8308  1.9789
    9MOL   H309 3685   5.223   0.512   2.062  0.0748  0.1623 -0.3902
    9MOL   H310 3686   5.191   0.572   1.846 -0.2854 -0.5265  0.7278
    9MOL   H311 3687   5.082   0.712   1.885  0.6550 -0.0389 -3.1119
    9MOL   H312 3688   5.034   0.404   1.932 -1.8822 -1.9091 -1.7050
    9MOL   H313 3689   4.912   0.526   1.932 -0.9279  1.5333 -1.0149
    9MOL   H314 3690   4.928   0.536   1.686  0.9050  0.2133 -1.4467
    9MOL   H315 3691   5.065   0.413   1.691  0.4386  0.0398  1.8002
    9MOL   H316 3692   4.898   0.372   1.726  1.8114 -2.0319 -0.7185
    9MOL   C317 3693   5.393   0.877   2.241 -1.0570  0.5361  0.1971
    9MOL   C318 3694   5.297   0.986   2.260  0.0408 -0.1638 -0.1127
    9MOL   C319 3695   5.265   0.999   2.406  0.5435  0.3420  0.0177
    9MOL   C320 3696   5.114   1.024   2.421 -0.3669  0.4724 -0.3977
    9MOL   C321 3697   5.072   1.065   2.565  0.0667  0.3275  0.4870
    9MOL   C322 3698   4.928   1.122   2.557  0.2772 -0.3739  0.4191
    9MOL   C323 3699   4.871   1.133   2.699 -0.0338 -1.0036  0.2301
    9MOL   H324 3700   5.463   0.900   2.161  0.2393  1.8329  1.6824
    9MOL   H325 3701   5.455   0.878   2.330 -0.7643 -0.9484  0.0212
    9MOL   H326 3702   5.205   0.954   2.211 -0.6936  2.5911 -0.6307
    9MOL   H327 3703   5.317   1.074   2.466 -3.1548  2.8157  0.2956
    9MOL   H328 3704   5.288   0.905   2.455 -1.9857 -0.4567 -0.2522
    9MOL   H329 3705   5.050   0.944   2.384  0.6394 -0.3119 -0.4810
    9MOL   H330 3706   5.087   1.108   2.357  2.0792  0.2153 -1.8786
    9MOL   H331 3707   5.129   1.152   2.599 -0.8499  0.9021  0.5795
    9MOL   H332 3708   5.095   0.987   2.637  0.1936  0.3414  0.4621
    9MOL   H333 3709   4.861   1.057   2.500 -0.1709  0.3320  0.1320
    9MOL   H334 3710   4.928   1.208   2.490 -0.8594 -0.8498 -0.2044
    9MOL   H335 3711   4.914   1.208   2.766  3.4180 -1.4048 -1.4447
    9MOL   H336 3712   4.871   1.035   2.748  1.5474 -2.3143 -2.2848
    9MOL   H337 3713   4.763   1.149   2.695  0.3031  1.5941  1.0052
    9MOL   C338 3714   5.329   1.128   2.202 -0.7049  0.1411 -0.5738
    9MOL   C339 3715   5.344   1.162   2.049  0.3825 -0.2453 -0.2954
    9MOL   C340 3716   5.424   1.290   2.011 -0.2697 -0.1467 -0.0762
    9MOL   C341 3717   5.354   1.429   2.050 -0.1051  0.2217  0.5205
    9MOL   C342 3718   5.453   1.544   2.037  1.0660  0.2635 -0.0840
    9MOL   C343 3719   5.390   1.684   2.057  0.4103  0.0275 -0.1324
    9MOL   C344 3720   5.494   1.796   2.059 -0.1385 -0.2554  0.0531
    9MOL   H345 3721   5.416   1.154   2.262 -1.2630  0.6188  0.0372
    9MOL   H346 3722   5.253   1.195   2.241  0.6242  0.7369  1.0442
    9MOL   H347 3723   5.404   1.077   2.015  0.5977  0.0519 -0.6594
    9MOL   H348 3724   5.516   1.295   2.070 -0.4786 -0.0798  0.2446
    9MOL   H349 3725   5.471   1.283   1.913  2.4337 -1.4941  1.2527
    9MOL   H350 3726   5.307   1.431   2.148  0.3855 -0.2285  0.7698
    9MOL   H351 3727   5.267   1.434   1.986  0.0384 -3.1188 -0.0588
    9MOL   H352 3728   5.532   1.520   2.108 -0.1977 -2.5348  0.4310
    9MOL   H353 3729   5.504   1.537   1.941  0.5740  0.9616 -0.3990
    9MOL   H354 3730   5.324   1.698   1.972 -1.3446 -1.8451  0.8844
    9MOL   H355 3731   5.317   1.678   2.138 -1.3178 -1.7435 -1.7668
    9MOL   H356 3732   5.531   1.812   1.958  2.3215  1.3485  1.1523
    9MOL   H357 3733   5.581   1.766   2.118 -1.2444 -1.0076  1.3220
    9MOL   H358 3734   5.448   1.887   2.096 -1.7513 -1.1759  0.3450
    9MOL   C359 3735   5.205   1.156   1.980  0.1934  0.4499 -0.0862
    9MOL   C360 3736   5.205   1.130   1.823 -0.0633 -0.0373  0.8045
    9MOL   C361 3737   5.244   0.982   1.793 -0.3067 -0.1298  0.0413
    9MOL   C362 3738   5.332   0.960   1.669  0.1549  0.6055  0.1042
    9MOL   C363 3739   5.355   0.812   1.639 -0.6070 -0.4437  0.5562
    9MOL   C364 3740   5.429   0.789   1.495 -0.1380  0.0978 -1.1053
    9MOL   C365 3741   5.418   0.641   1.454  0.4054 -0.0477 -0.2919
    9MOL   H366 3742   5.159   1.251   2.006 -1.6034 -0.0575 -1.2688
    9MOL   H367 3743   5.140   1.084   2.031  0.4979  0.9687  1.0491
    9MOL   H368 3744   5.290   1.182   1.779 -0.9435 -1.9589 -3.3590
    9MOL   H369 3745   5.298   0.951   1.882  1.0297 -0.9469 -1.0338
    9MOL   H370 3746   5.157   0.916   1.792 -2.2697  2.3482 -0.0746
    9MOL   H371 3747   5.286   1.019   1.590 -1.7123  1.8788  2.0751
    9MOL   H372 3748   5.425   1.007   1.702 -0.9827  1.7421  1.8513
    9MOL   H373 3749   5.411   0.764   1.719 -0.2608 -1.9965 -0.6028
    9MOL   H374 3750   5.256   0.765   1.638 -2.6694  3.6190 -0.7198
    9MOL   H375 3751   5.386   0.852   1.417 -0.6404  1.2902  0.1096
    9MOL   H376 3752   5.529   0.831   1.488  1.4019 -2.9606  1.1565
    9MOL   H377 3753   5.458   0.569   1.526 -0.1971 -1.6602 -1.5407
    9MOL   H378 3754   5.316   0.616   1.426 -0.3971  1.3539  1.3087
    9MOL   H379 3755   5.486   0.620   1.371  5.0978  1.2389  2.9933
    9MOL   C380 3756   5.079   1.172   1.742  0.3525  0.1432  0.2965
    9MOL   C381 3757   5.060   1.321   1.711  0.1100 -0.0807 -0.1858
    9MOL   C382 3758   5.172   1.373   1.615 -0.5057  0.2024 -0.0125
    9MOL   C383 3759   5.225   1.504   1.670  0.3893  0.0409  0.1042
    9MOL   C384 3760   5.331   1.578   1.590  0.0749  0.0171 -0.2464
    9MOL   C385 3761   5.454   1.496   1.542  0.2227 -0.7318 -0.3925
    9MOL   C386 3762   5.544   1.587   1.466  0.6997  0.8084 -0.3130
    9MOL   H387 3763   5.090   1.109   1.653  3.1118 -0.0726  0.7582
    9MOL   H388 3764   4.983   1.138   1.782  1.3414 -2.3988  0.6221
    9MOL   H389 3765   5.064   1.371   1.808 -0.9076 -1.9197  0.8259
    9MOL   H390 3766   5.130   1.374   1.515  2.0592  1.7375 -1.1315
    9MOL   H391 3767   5.262   1.312   1.605 -0.5838  0.3234 -1.4754
    9MOL   H392 3768   5.142   1.571   1.689 -0.8936 -0.9447 -1.8130
    9MOL   H393 3769   5.261   1.486   1.771  1.1060 -0.7871 -0.2905
    9MOL   H394 3770   5.282   1.617   1.500  0.1998  2.0294  0.5475
    9MOL   H395 3771   5.361   1.663   1.650 -1.0636  0.2464  0.0129
    9MOL   H396 3772   5.419   1.417   1.476  0.0223 -1.2624  0.3377
    9MOL   H397 3773   5.510   1.446   1.621  0.9304  2.1151  0.9391
    9MOL   H398 3774   5.496   1.638   1.383  0.0196  0.4889 -0.1234
    9MOL   H399 3775   5.630   1.532   1.429  0.0568  0.2039 -0.9416
    9MOL   H400 3776   5.591   1.653   1.538 -0.9454 -0.2687  1.8465
    9MOL   C401 3777   4.928   1.353   1.646  0.1758  0.7076 -0.6103
    9MOL   C402 3778   4.803   1.342   1.735 -0.3374  0.3675 -0.0006
    9MOL   C403 3779   4.678   1.404   1.670 -0.5779  0.2730 -0.0974
    9MOL   C404 3780   4.659   1.552   1.695  0.2313  0.0676 -0.1091
    9MOL   C405 3781   4.530   1.602   1.637 -0.9185 -0.6579  0.1329
    9MOL   C406 3782   4.525   1.756   1.649 -0.5076 -0.4774  0.1449
    9MOL   C407 3783   4.513   1.803   1.797 -0.3100 -0.3426  0.2069
    9MOL   H408 3784   4.900   1.294   1.559 -0.1607 -0.8778  0.5690
    9MOL   H409 3785   4.935   1.457   1.612 -0.7322  0.9283 -0.1610
    9MOL   H410 3786   4.818   1.379   1.837 -0.6209 -0.7716  0.4576
    9MOL   H411 3787   4.594   1.346   1.709 -0.3880  1.2800  1.8668
    9MOL   H412 3788   4.680   1.383   1.564 -1.2537  0.2552 -0.1075
    9MOL   H413 3789   4.741   1.590   1.633 -1.3148  1.2025 -1.4801
    9MOL   H414 3790   4.677   1.583   1.798 -2.0662 -1.7967  0.8871
    9MOL   H415 3791   4.528   1.578   1.531 -0.6272 -0.2798  0.0445
    9MOL   H416 3792   4.449   1.557   1.695 -1.5201  0.0698 -0.1450
    9MOL   H417 3793   4.616   1.796   1.604 -0.0646 -0.7165  0.8354
    9MOL   H418 3794   4.445   1.797   1.587  0.3492 -0.6353 -1.0872
    9MOL   H419 3795   4.438   1.744   1.849 -0.6166 -0.3262 -0.2213
    9MOL   H420 3796   4.495   1.910   1.802  0.3617 -0.2970  2.2367
    9MOL   H421 3797   4.612   1.792   1.842 -1.7333 -0.6838  3.3757
    9MOL   H422 3798   4.774   1.237   1.734 -1.5218  0.6338  2.0545
   10MOL     C1 3799   2.761   5.170   0.236 -0.2221 -0.0250  0.1793
   10MOL     C2 3800   2.711   5.309   0.193  0.6119  0.3688 -0.2894
   10MOL     C3 3801   2.657   5.391   0.308  0.5149  0.6868 -0.4573
   10MOL     C4 3802   2.683   5.543   0.283  0.4578 -0.4424 -0.2856
   10MOL     C5 3803   2.614   5.641   0.380 -0.4000  0.3992  0.0737
   10MOL     C6 3804   2.681   5.630   0.517  0.0865  0.0804 -0.5651
   10MOL     C7 3805   2.618   5.719   0.623  0.0074  0.3556  0.1148
   10MOL     H8 3806   2.688   5.135   0.308  0.2823  0.2839  0.8411
   10MOL     H9 3807   2.861   5.172   0.278  0.1769 -3.0725 -0.5108
   10MOL    H10 3808   2.801   5.363   0.164  1.8850 -2.3262 -1.4183
   10MOL    H11 3809   2.555   5.361   0.332 -0.0016  0.4093 -2.8385
   10MOL    H12 3810   2.706   5.358   0.399  0.1733  1.1493 -0.1048
   10MOL    H13 3811   2.790   5.563   0.280  0.3026  0.3183 -1.2936
   10MOL    H14 3812   2.634   5.558   0.186  1.8930  0.5598 -0.8812
   10MOL    H15 3813   2.507   5.622   0.391 -0.1381 -1.3585 -0.2779
   10MOL    H16 3814   2.634   5.739   0.337  0.1667  0.0465 -0.4827
   10MOL    H17 3815   2.787   5.652   0.510  1.1080 -3.2548  2.5712
   10MOL    H18 3816   2.681   5.525   0.550  1.2401  1.3321  3.8265
   10MOL    H19 3817   2.510   5.706   0.624  0.0145  0.3045  0.2408
   10MOL    H20 3818   2.636   5.826   0.619 -0.3054  0.5220  2.3648
   10MOL    H21 3819   2.649   5.687   0.723 -0.4999 -0.8405 -0.1028
   10MOL    H22 3820   2.762   5.102   0.151 -1.2803 -0.1800  0.2847
   10MOL    C23 3821   2.597   5.308   0.085 -0.0557 -0.6375  0.0902
   10MOL    C24 3822   2.643   5.268   7.650 -0.1486  0.1257  0.5812
   10MOL    C25 3823   2.736   5.367   7.577 -1.0376 -0.0479 -0.2932
   10MOL    C26 3824   2.693   5.509   7.578  0.0563 -0.1048 -0.1776
   10MOL    C27 3825   2.789   5.623   7.542 -0.4917 -0.2267 -0.6857
   10MOL    C28 3826   2.710   5.759   7.541 -0.2097  0.0137  0.0871
   10MOL    C29 3827   2.798   5.883   7.508  0.5684  0.1059 -1.0284
   10MOL    H30 3828   2.517   5.241   0.117  1.3971 -1.3974  2.2385
   10MOL    H31 3829   2.541   5.401   0.081 -0.1781 -0.7408 -0.8509
   10MOL    H32 3830   2.699   5.176   7.663 -1.3116 -1.0019 -2.0534
   10MOL    H33 3831   2.771   5.338   7.478  0.7474  0.9417  0.0202
   10MOL    H34 3832   2.829   5.360   7.634 -1.0996 -0.7900 -0.2780
   10MOL    H35 3833   2.666   5.542   7.679  0.6765 -1.7372  0.5303
   10MOL    H36 3834   2.607   5.517   7.512 -0.9218  3.6999  1.4155
   10MOL    H37 3835   2.834   5.611   7.444  0.7200  0.6910 -0.2578
   10MOL    H38 3836   2.880   5.622   7.603  0.2262 -2.4110 -1.7369
   10MOL    H39 3837   2.659   5.774   7.636 -1.9636  4.1962 -1.4050
   10MOL    H40 3838   2.625   5.753   7.472  0.6299  1.3652 -1.0914
   10MOL    H41 3839   2.832   5.882   7.404  0.6693 -4.6050 -1.0580
   10MOL    H42 3840   2.737   5.974   7.514  1.5272  0.6881  0.1588
   10MOL    H43 3841   2.875   5.904   7.582 -0.6390  1.7866 -0.2177
   10MOL    C44 3842   2.515   5.233   7.567 -0.1757  1.0338  0.0860
   10MOL    C45 3843   2.535   5.186   7.419  0.0488  0.4541 -0.1740
   10MOL    C46 3844   2.470   5.050   7.396 -0.8374  0.2490 -0.5317
   10MOL    C47 3845   2.569   4.946   7.443  0.2819  0.0652 -0.2698
   10MOL    C48 3846   2.519   4.803   7.409 -0.2307 -0.4480 -0.4525
   10MOL    C49 3847   2.608   4.695   7.468  0.0656  0.0853 -0.8801
   10MOL    C50 3848   2.531   4.559   7.479  0.4069 -0.2736  0.4002
   10MOL    H51 3849   2.449   5.319   7.572 -0.9285  0.4848 -0.2083
   10MOL    H52 3850   2.456   5.157   7.618  0.0021  1.9657  1.7069
   10MOL    H53 3851   2.642   5.190   7.399  0.2334 -1.4588  0.2891
   10MOL    H54 3852   2.446   5.030   7.291  0.5303 -2.6153 -0.3373
   10MOL    H55 3853   2.376   5.029   7.446 -1.8573 -0.1915 -2.5909
   10MOL    H56 3854   2.674   4.950   7.413  0.7397 -0.6925  1.1505
   10MOL    H57 3855   2.565   4.952   7.552 -1.9556  0.5933 -0.3577
   10MOL    H58 3856   2.531   4.794   7.301 -2.4276  1.2428 -0.8838
   10MOL    H59 3857   2.413   4.791   7.434 -0.1907 -0.2309 -0.1820
   10MOL    H60 3858   2.635   4.726   7.569  0.4300 -1.4723 -0.4848
   10MOL    H61 3859   2.693   4.684   7.400 -0.5955  2.0022 -2.0772
   10MOL    H62 3860   2.598   4.475   7.498 -0.7741 -1.0033  1.3803
   10MOL    H63 3861   2.482   4.518   7.391  0.1371  0.3240  0.2681
   10MOL    H64 3862   2.446   4.545   7.545 -0.0031 -1.0040 -0.2690
   10MOL    C65 3863   2.478   5.292   7.325  0.3361 -0.0026 -0.2489
   10MOL    C66 3864   2.532   5.289   7.178  0.3889 -0.1721  0.2201
   10MOL    C67 3865   2.683   5.315   7.158  1.0852  0.0010  0.0586
   10MOL    C68 3866   2.737   5.305   7.016  0.3428 -0.2675  0.1979
   10MOL    C69 3867   2.886   5.295   6.991 -0.0794  0.0315 -0.4629
   10MOL    C70 3868   2.919   5.247   6.849  0.7398 -0.9572 -0.2562
   10MOL    C71 3869   2.885   5.098   6.823  0.4957 -0.7444 -0.5407
   10MOL    H72 3870   2.369   5.290   7.325  0.3299  0.3186 -0.3400
   10MOL    H73 3871   2.501   5.388   7.371  0.0503 -0.1143  0.1344
   10MOL    H74 3872   2.524   5.184   7.152  1.6248 -0.0881 -0.5219
   10MOL    H75 3873   2.706   5.414   7.196  2.1276  0.1089 -0.8471
   10MOL    H76 3874   2.735   5.246   7.225  0.0959  1.1162  2.0197
   10MOL    H77 3875   2.691   5.219   6.968  0.6446 -0.6328  0.5598
   10MOL    H78 3876   2.709   5.397   6.965  3.2153 -0.1934 -1.3553
   10MOL    H79 3877   2.938   5.387   7.017  1.2047 -1.1585  1.2557
   10MOL    H80 3878   2.927   5.228   7.066 -2.8999  2.4563  3.4080
   10MOL    H81 3879   3.027   5.252   6.834  0.4489  1.1741 -1.8757
   10MOL    H82 3880   2.865   5.308   6.776 -1.3871 -1.0520  1.1937
   10MOL    H83 3881   2.779   5.073   6.825  0.2004  0.5613  1.5177
   10MOL    H84 3882   2.921   5.066   6.724  0.8895 -1.3108 -0.2226
   10MOL    H85 3883   2.921   5.031   6.902  2.3093 -0.7481 -1.3396
   10MOL    C86 3884   2.438   5.382   7.089  0.1790 -0.2443  0.4435
   10MOL    C87 3885   2.285   5.336   7.070 -0.0223  0.2393 -0.7220
   10MOL    C88 3886   2.202   5.453   7.012  0.1374 -0.0095 -0.3889
   10MOL    C89 3887   2.233   5.515   6.880  0.1648 -0.2877 -0.0240
   10MOL    C90 3888   2.136   5.611   6.826  0.6152 -0.3137 -0.4111
   10MOL    C91 3889   2.121   5.737   6.912  0.0859 -0.4738 -0.9255
   10MOL    C92 3890   2.008   5.830   6.854 -0.8604  0.4680 -0.1793
   10MOL    H93 3891   2.442   5.484   7.128 -0.4192 -0.7068  1.7750
   10MOL    H94 3892   2.483   5.387   6.990  1.1858 -2.0478  0.7797
   10MOL    H95 3893   2.233   5.318   7.164  0.9053  1.7816  0.1095
   10MOL    H96 3894   2.098   5.421   7.004 -0.0643  0.8843 -1.5462
   10MOL    H97 3895   2.199   5.532   7.087  0.8325  1.2311 -1.6506
   10MOL    H98 3896   2.325   5.572   6.895  0.6899 -1.1226 -0.0637
   10MOL    H99 3897   2.263   5.448   6.799  0.3011 -1.6752  1.1697
   10MOL   H100 3898   2.042   5.560   6.807  0.8850  0.2638 -3.5460
   10MOL   H101 3899   2.180   5.636   6.730  2.0717  0.1482  0.3574
   10MOL   H102 3900   2.102   5.720   7.017 -1.9050  1.3059 -0.9624
   10MOL   H103 3901   2.208   5.803   6.917 -2.0477  2.6869 -3.0501
   10MOL   H104 3902   2.035   5.867   6.755  2.2247  2.8496  1.4715
   10MOL   H105 3903   1.985   5.922   6.908 -0.9524  0.8939 -0.9287
   10MOL   H106 3904   1.914   5.775   6.862 -2.1238  2.5768 -0.2886
   10MOL   C107 3905   2.284   5.211   6.984 -0.1538 -0.0888 -0.1103
   10MOL   C108 3906   2.161   5.118   7.001  0.2631  0.6956 -0.2747
   10MOL   C109 3907   2.135   5.028   6.878 -0.2088  0.8408 -0.5965
   10MOL   C110 3908   2.098   5.101   6.750  0.3194  0.1056 -0.4853
   10MOL   C111 3909   2.085   5.002   6.632 -0.1397  0.5745  1.3879
   10MOL   C112 3910   2.031   5.055   6.503  0.0988 -0.5411 -0.3711
   10MOL   C113 3911   2.032   4.944   6.393  0.0172 -0.0583 -0.3271
   10MOL   H114 3912   2.375   5.153   6.997 -0.8913 -1.9448 -2.8771
   10MOL   H115 3913   2.288   5.233   6.877 -1.5610  0.8789  0.0198
   10MOL   H116 3914   2.074   5.184   7.005 -1.9817 -2.2819  2.6111
   10MOL   H117 3915   2.044   4.973   6.901 -0.2074  0.3552 -1.7281
   10MOL   H118 3916   2.216   4.956   6.862 -0.8391 -0.3651  1.4184
   10MOL   H119 3917   1.995   5.135   6.754 -0.1039 -1.1809 -0.4796
   10MOL   H120 3918   2.167   5.181   6.721 -0.8668  1.1306 -0.5129
   10MOL   H121 3919   2.012   4.927   6.661 -0.0711  0.3840  1.0723
   10MOL   H122 3920   2.177   4.946   6.615  0.7990  2.2446  0.7531
   10MOL   H123 3921   1.929   5.093   6.515 -1.0596 -3.8581  0.7628
   10MOL   H124 3922   2.085   5.143   6.468 -0.5871 -0.4805 -1.2908
   10MOL   H125 3923   1.988   4.849   6.424 -0.6236 -0.6198 -2.8851
   10MOL   H126 3924   1.957   4.971   6.319 -0.2412 -0.1056 -0.0856
   10MOL   H127 3925   2.128   4.933   6.345  0.5847  0.1847  0.7292
   10MOL   C128 3926   2.174   5.022   7.124 -0.2089  0.1847 -0.2544
   10MOL   C129 3927   2.051   4.977   7.199  0.4517 -0.4559 -0.3613
   10MOL   C130 3928   1.948   4.902   7.114  0.0398 -0.4488 -0.1918
   10MOL   C131 3929   1.848   4.821   7.203  0.2345  0.1612 -0.3101
   10MOL   C132 3930   1.729   4.765   7.131  0.0706 -0.2237 -0.2104
   10MOL   C133 3931   1.642   4.670   7.210  0.5140 -0.7467 -0.0475
   10MOL   C134 3932   1.550   4.570   7.132  0.7245  0.7921  0.1621
   10MOL   H135 3933   2.233   4.933   7.101  0.9886  0.6333  0.9997
   10MOL   H136 3934   2.251   5.063   7.190 -0.6980  0.2777  0.2644
   10MOL   H137 3935   2.088   4.896   7.262  1.8498 -0.0971 -0.7059
   10MOL   H138 3936   2.003   4.831   7.053  0.4568 -0.9087  0.7033
   10MOL   H139 3937   1.893   4.977   7.058  0.2927  0.3568  0.6219
   10MOL   H140 3938   1.820   4.876   7.292 -3.7934 -3.7772  1.0451
   10MOL   H141 3939   1.896   4.734   7.248  1.3046  0.2826 -1.1712
   10MOL   H142 3940   1.764   4.711   7.043  1.9504  1.1178 -0.3279
   10MOL   H143 3941   1.667   4.848   7.097  1.4277  1.1714  0.6562
   10MOL   H144 3942   1.568   4.727   7.265  0.7111 -1.6834  1.2050
   10MOL   H145 3943   1.701   4.626   7.290  0.4289  4.1666  2.8721
   10MOL   H146 3944   1.450   4.551   7.172 -0.3726  0.5853 -2.5676
   10MOL   H147 3945   1.589   4.468   7.142  1.9520  1.2225 -0.2199
   10MOL   H148 3946   1.543   4.590   7.025  1.2650 -2.0034 -0.4434
   10MOL   C149 3947   1.987   5.092   7.277 -0.0924 -0.3705  0.1441
   10MOL   C150 3948   2.065   5.139   7.402 -0.5844  0.1327 -0.0725
   10MOL   C151 3949   2.101   5.026   7.504 -0.2690  0.2745  0.5102
   10MOL   C152 3950   1.978   4.958   7.577 -0.3028 -0.3928 -0.2771
   10MOL   C153 3951   2.021   4.846   7.672  0.1965  0.5512 -0.1398
   10MOL   C154 3952   2.081   4.720   7.601  1.3861  0.3897  0.3888
   10MOL   C155 3953   2.107   4.618   7.706 -0.4809  0.2251 -0.5659
   10MOL   H156 3954   1.986   5.177   7.208  1.8295 -0.2507  0.2359
   10MOL   H157 3955   1.883   5.074   7.303  0.1117 -1.0423  0.4928
   10MOL   H158 3956   2.166   5.167   7.370 -0.4294 -0.8880 -0.5034
   10MOL   H159 3957   2.172   4.955   7.460 -0.1046  0.8770 -0.2003
   10MOL   H160 3958   2.170   5.073   7.574 -0.0608  0.0302  0.4681
   10MOL   H161 3959   1.907   4.927   7.500  0.7563 -0.9309 -1.0511
   10MOL   H162 3960   1.927   5.029   7.642  0.6824 -1.5953  1.8485
   10MOL   H163 3961   1.924   4.811   7.707  0.4599 -0.2024 -0.1462
   10MOL   H164 3962   2.072   4.881   0.048 -0.4261  1.1562 -0.0141
   10MOL   H165 3963   2.176   4.751   7.557  0.7272  0.8732 -0.7368
   10MOL   H166 3964   2.009   4.686   7.527  1.0704 -4.4252  2.7300
   10MOL   H167 3965   2.149   4.530   7.659  1.1217  0.0623  1.1232
   10MOL   H168 3966   2.016   4.583   0.042 -2.4917  3.2530 -1.9153
   10MOL   H169 3967   2.179   4.648   0.069 -1.0350  0.2723 -0.0599
   10MOL   C170 3968   2.006   5.267   7.476  0.2327  0.3366 -0.3424
   10MOL   C171 3969   2.047   5.406   7.421  0.7374 -0.4745  0.5112
   10MOL   C172 3970   1.931   5.503   7.393 -0.9103  0.0618  0.6468
   10MOL   C173 3971   1.834   5.440   7.292  0.1482  0.0648  0.1770
   10MOL   C174 3972   1.723   5.533   7.248 -0.0859  0.4166  0.1279
   10MOL   C175 3973   1.598   5.559   7.331 -0.0113  0.0859 -0.6882
   10MOL   C176 3974   1.503   5.666   7.283 -0.0625 -0.0526 -0.2691
   10MOL   H177 3975   2.046   5.257   7.577  0.2054 -0.3551 -0.3953
   10MOL   H178 3976   1.899   5.259   7.495  0.1891 -2.0284 -1.4257
   10MOL   H179 3977   2.102   5.386   7.330  2.0607 -3.4784  1.8837
   10MOL   H180 3978   1.986   5.584   7.346  0.7043 -2.3633 -1.7834
   10MOL   H181 3979   1.903   5.539   7.492 -0.8024 -0.1074  0.7404
   10MOL   H182 3980   1.791   5.348   7.333 -0.7620  0.6876  0.6203
   10MOL   H183 3981   1.894   5.410   7.206  0.3587 -0.3340  0.4576
   10MOL   H184 3982   1.683   5.490   7.156  0.6336 -0.6922  0.3262
   10MOL   H185 3983   1.781   5.625   7.236  0.4275  0.0780 -0.0295
   10MOL   H186 3984   1.643   5.581   7.428  0.4779  0.6103 -1.0373
   10MOL   H187 3985   1.540   5.466   7.336 -1.4433  1.0498  1.9280
   10MOL   H188 3986   1.445   5.699   7.369 -0.3617 -2.6004  0.5515
   10MOL   H189 3987   1.420   5.628   7.223 -1.1115 -0.9969  1.7318
   10MOL   H190 3988   1.572   5.737   7.237 -1.0944  1.8134  1.0283
   10MOL   C191 3989   2.149   5.462   7.522  0.2394  0.1745 -0.5946
   10MOL   C192 3990   2.212   5.602   7.501 -0.0014 -0.9908  0.2862
   10MOL   C193 3991   2.319   5.646   7.620 -0.4460  0.6928  0.6486
   10MOL   C194 3992   2.262   5.727   0.027 -0.5457 -0.5906  0.0576
   10MOL   C195 3993   2.365   5.744   0.141 -0.0716  0.1868  0.0361
   10MOL   C196 3994   2.322   5.808   0.272 -0.3959  0.3633 -0.3291
   10MOL   C197 3995   2.271   5.950   0.251  0.4239 -0.0052  0.1554
   10MOL   H198 3996   2.228   5.390   7.542 -0.6924 -1.1767 -1.7339
   10MOL   H199 3997   2.089   5.468   7.613  1.1616  1.6023 -0.0582
   10MOL   H200 3998   2.120   5.661   7.506 -0.6300 -1.6961 -2.4081
   10MOL   H201 3999   2.389   5.716   7.575 -1.6438  0.7323 -1.1733
   10MOL   H202 4000   2.367   5.560   7.667  0.6904  1.3775  0.7509
   10MOL   H203 4001   2.172   5.687   0.074 -1.3616  0.7287 -0.3533
   10MOL   H204 4002   2.242   5.826   7.699  0.5012 -0.8860 -1.1415
   10MOL   H205 4003   2.417   5.651   0.163 -1.0143 -0.4496 -0.4251
   10MOL   H206 4004   2.446   5.805   0.100 -0.7768  0.5121 -0.8905
   10MOL   H207 4005   2.414   5.809   0.330 -1.1932  1.9627  0.9476
   10MOL   H208 4006   2.241   5.751   0.317  0.2716 -1.2135 -1.1028
   10MOL   H209 4007   2.219   5.991   0.338  0.5102  0.1305  0.1443
   10MOL   H210 4008   2.198   5.944   0.171  0.0108  0.8237  0.4660
   10MOL   H211 4009   2.353   6.018   0.227  2.1560 -1.6926  1.2405
   10MOL   C212 4010   2.280   5.620   7.360  0.0769 -0.5754 -0.3048
   10MOL   C213 4011   2.299   5.762   7.308  0.8816 -0.4917  0.3951
   10MOL   C214 4012   2.374   5.773   7.170  0.4256  0.8002 -0.2926
   10MOL   C215 4013   2.528   5.763   7.190  0.1421 -0.0415 -0.3668
   10MOL   C216 4014   2.598   5.767   7.056 -0.6784 -0.0346 -0.2910
   10MOL   C217 4015   2.743   5.730   7.083  0.0187  0.1120  0.0641
   10MOL   C218 4016   2.839   5.749   6.967  0.2167  0.1846 -0.4171
   10MOL   H219 4017   2.232   5.570   7.276  0.0012  2.4604 -2.1362
   10MOL   H220 4018   2.374   5.565   7.359  0.0873 -0.5539 -0.5161
   10MOL   H221 4019   2.349   5.823   7.382  0.6319 -0.4169  0.5038
   10MOL   H222 4020   2.333   5.694   7.107 -0.2123  0.7811  0.1397
   10MOL   H223 4021   2.341   5.867   7.128  0.3736  0.8590 -0.1223
   10MOL   H224 4022   2.551   5.674   7.247  1.0012  0.7934  0.6102
   10MOL   H225 4023   2.573   5.846   7.244  0.6885 -0.2396 -0.5124
   10MOL   H226 4024   2.562   5.694   6.984  0.2634 -2.2943  1.4825
   10MOL   H227 4025   2.579   5.855   6.994  0.6383 -1.1587 -2.3227
   10MOL   H228 4026   2.778   5.795   7.163 -0.4776 -0.6755  0.9258
   10MOL   H229 4027   2.756   5.635   7.134  2.6745  0.9793  1.0764
   10MOL   H230 4028   2.944   5.750   6.993 -0.2738 -0.6777  1.6909
   10MOL   H231 4029   2.818   5.844   6.917 -0.8170  1.4011  2.2121
   10MOL   H232 4030   2.809   5.665   6.904 -1.2132 -0.6866  1.3808
   10MOL   C233 4031   2.165   5.831   7.290  0.5939  0.1222 -0.2155
   10MOL   C234 4032   2.135   5.953   7.393 -0.4268  0.1336  0.3465
   10MOL   C235 4033   2.220   6.079   7.362  0.7480 -0.2816 -0.1838
   10MOL   C236 4034   2.212   6.199   7.463  0.2103 -0.4550  0.0294
   10MOL   C237 4035   2.317   6.310   7.436 -0.0417  0.1826 -0.4408
   10MOL   C238 4036   2.466   6.295   7.472  0.0470 -0.2505 -0.3053
   10MOL   C239 4037   2.487   6.240   7.614 -0.3710  0.5336 -0.3335
   10MOL   H240 4038   2.079   5.766   7.302  0.7122 -0.3532 -1.8291
   10MOL   H241 4039   2.159   5.877   7.192 -1.2366  2.2210  0.8326
   10MOL   H242 4040   2.177   5.912   7.485 -0.7003  1.0275  0.8728
   10MOL   H243 4041   2.194   6.120   7.264 -0.8269 -1.5863 -0.3450
   10MOL   H244 4042   2.325   6.057   7.347  1.5400  2.9953  0.0455
   10MOL   H245 4043   2.235   6.158   7.562 -0.0152  0.9427  0.6764
   10MOL   H246 4044   2.113   6.242   7.470  0.0935  0.1487 -4.2841
   10MOL   H247 4045   2.283   6.397   7.493 -0.8609  0.0890 -0.7777
   10MOL   H248 4046   2.310   6.331   7.329  1.9619  0.2277 -0.5855
   10MOL   H249 4047   2.506   6.226   7.397  1.2415 -1.1740  1.1542
   10MOL   H250 4048   2.525   6.385   7.461 -2.7724  1.6056 -0.8294
   10MOL   H251 4049   2.591   6.211   7.629 -1.0096 -0.9154  1.5077
   10MOL   H252 4050   2.463   6.315   7.689  2.4192 -0.1187  1.2513
   10MOL   H253 4051   2.424   6.154   7.638 -0.5909  0.5207 -0.9408
   10MOL   C254 4052   1.985   5.986   7.382  0.4580  0.1023 -0.4933
   10MOL   C255 4053   1.896   5.907   7.480  0.0270  0.5941  0.2087
   10MOL   C256 4054   1.747   5.928   7.440  0.3722  0.3336  0.0442
   10MOL   C257 4055   1.680   6.061   7.478  0.3085  0.6316 -0.0409
   10MOL   C258 4056   1.535   6.068   7.424 -0.6595 -0.3594 -0.0072
   10MOL   C259 4057   1.431   5.994   7.510 -0.5787  0.0809  0.0687
   10MOL   C260 4058   1.284   6.013   7.486 -0.2929 -0.0271  0.1907
   10MOL   H261 4059   1.949   5.977   7.280 -0.8302  0.4315 -0.0720
   10MOL   H262 4060   1.956   6.086   7.412 -1.0850 -0.6131  0.4841
   10MOL   H263 4061   1.919   5.801   7.468 -1.2356  0.4170 -0.7307
   10MOL   H264 4062   1.690   5.848   7.486 -2.5849  0.8173 -2.5609
   10MOL   H265 4063   1.744   5.923   7.331 -1.4344 -0.9978  0.1352
   10MOL   H266 4064   1.685   6.084   7.585  0.6163 -3.2266  0.8540
   10MOL   H267 4065   1.733   6.137   7.421 -1.1643  1.1780 -0.6885
   10MOL   H268 4066   1.538   6.024   7.325  1.3244 -2.6880  1.0095
   10MOL   H269 4067   1.516   6.175   7.426 -2.0680 -0.6121  1.7890
   10MOL   H270 4068   1.453   5.889   7.527 -2.5626 -0.2497  0.6919
   10MOL   H271 4069   1.441   6.026   7.614 -1.5680  2.2519 -0.4815
   10MOL   H272 4070   1.217   5.965   7.557  2.1067 -1.6237  1.4698
   10MOL   H273 4071   1.257   6.118   7.491 -0.2937  0.0200 -0.6945
   10MOL   H274 4072   1.261   6.000   7.380 -1.2352  0.1812  0.3682
   10MOL   C275 4073   1.921   5.946   7.631  0.0769  0.2855  0.0103
   10MOL   C276 4074   1.827   5.891   0.034  0.6011 -0.4961 -0.3172
   10MOL   C277 4075   1.814   5.996   0.145  0.0385 -0.0499 -0.1789
   10MOL   C278 4076   1.945   6.043   0.223  0.6963  0.0470  0.6729
   10MOL   C279 4077   1.907   6.164   0.307 -0.5830  0.0281  0.2373
   10MOL   C280 4078   2.017   6.224   0.391  0.1911 -0.0137  0.2551
   10MOL   C281 4079   1.987   6.352   0.467  0.5461 -0.3506 -0.3784
   10MOL   H282 4080   1.924   6.055   7.626 -1.7521  0.3347 -0.1513
   10MOL   H283 4081   2.017   5.908   7.667  0.1031 -0.4872 -0.8650
   10MOL   H284 4082   1.730   5.895   7.696 -1.0951 -2.0256  2.6562
   10MOL   H285 4083   1.758   6.082   0.108 -0.7725  0.8733  3.0050
   10MOL   H286 4084   1.750   5.951   0.222  1.7032 -1.6010  0.3378
   10MOL   H287 4085   2.030   6.073   0.162  0.8592 -3.0385 -0.7188
   10MOL   H288 4086   1.977   5.961   0.286 -0.9529 -0.8169  0.4096
   10MOL   H289 4087   1.827   6.140   0.377 -2.0584  0.2039 -1.3306
   10MOL   H290 4088   1.864   6.249   0.253 -1.0535 -0.9899 -1.0155
   10MOL   H291 4089   2.038   6.148   0.467  1.0512 -1.9641 -1.8964
   10MOL   H292 4090   2.110   6.235   0.336 -0.2444  0.3043 -0.4219
   10MOL   H293 4091   1.897   6.355   0.528 -0.1575 -1.4806 -1.3416
   10MOL   H294 4092   1.983   6.431   0.393 -1.4711 -0.6449 -0.6043
   10MOL   H295 4093   2.061   6.360   0.547  0.0508  1.0211 -0.0449
   10MOL   C296 4094   1.868   5.751   0.078  0.8298  0.7241  0.0777
   10MOL   C297 4095   1.762   5.663   0.152 -0.1394  0.1671 -0.8720
   10MOL   C298 4096   1.835   5.558   0.250  1.1794 -0.1769 -0.0796
   10MOL   C299 4097   1.925   5.451   0.178 -0.2658 -0.5486  0.0975
   10MOL   C300 4098   1.991   5.358   0.285  0.0342 -0.6252  0.5800
   10MOL   C301 4099   2.115   5.279   0.231 -0.2524  0.6885  0.1868
   10MOL   C302 4100   2.239   5.360   0.189  0.4558  0.3237 -0.0494
   10MOL   H303 4101   1.896   5.690   7.706 -0.1917 -2.5659  2.0230
   10MOL   H304 4102   1.957   5.766   0.140 -0.0465 -0.2979  1.6091
   10MOL   H305 4103   1.714   5.727   0.226  1.2068  1.7268 -1.3114
   10MOL   H306 4104   1.894   5.608   0.327 -0.4882  1.1250  0.3997
   10MOL   H307 4105   1.755   5.507   0.305 -0.0568  1.3248 -0.4271
   10MOL   H308 4106   2.004   5.509   0.129 -0.9673  0.4230  0.0992
   10MOL   H309 4107   1.867   5.395   0.106 -0.9845  0.4731 -0.1165
   10MOL   H310 4108   1.920   5.281   0.314 -0.5239 -0.2530  0.2085
   10MOL   H311 4109   2.019   5.408   0.378 -0.3407  1.3903 -0.3525
   10MOL   H312 4110   2.142   5.219   0.318 -1.4316  0.6881  0.5570
   10MOL   H313 4111   2.082   5.220   0.146  0.3543 -4.5057  3.3442
   10MOL   H314 4112   2.329   5.326   0.240  0.5166  2.6223  1.4528
   10MOL   H315 4113   2.263   5.365   0.082  3.2334 -1.0113  0.4540
   10MOL   H316 4114   2.234   5.466   0.212  1.0858  0.3852 -0.1755
   10MOL   C317 4115   1.665   5.596   0.059  0.2242 -0.2162 -0.6685
   10MOL   C318 4116   1.530   5.545   0.118 -0.1540  0.1612 -1.0228
   10MOL   C319 4117   1.414   5.650   0.104 -0.4794  0.2686  0.3240
   10MOL   C320 4118   1.430   5.782   0.177 -0.0516  0.1167 -1.0761
   10MOL   C321 4119   1.295   5.855   0.194 -0.5259  0.6557  0.2405
   10MOL   C322 4120   1.309   5.990   0.268  0.4941  0.4514  0.1125
   10MOL   C323 4121   1.178   6.080   0.255 -0.7137  0.4112 -0.0049
   10MOL   H324 4122   1.707   5.504   0.017 -1.6162 -1.9902  1.2478
   10MOL   H325 4123   1.646   5.669   7.694 -0.7695 -0.4927 -0.6870
   10MOL   H326 4124   1.550   5.525   0.223 -0.1292  1.2161 -0.8219
   10MOL   H327 4125   1.315   5.615   0.134 -0.3586 -0.9318 -0.6207
   10MOL   H328 4126   1.405   5.674   7.712  2.8247  0.1809 -0.0476
   10MOL   H329 4127   1.494   5.842   0.112  1.3872  0.2177  0.3901
   10MOL   H330 4128   1.491   5.776   0.268 -0.6317 -0.1213 -0.7003
   10MOL   H331 4129   1.216   5.795   0.239  1.8518 -1.7569  1.3190
   10MOL   H332 4130   1.264   5.872   0.091 -0.4083  3.2722  0.5941
   10MOL   H333 4131   1.396   6.032   0.217  1.5036 -1.3035  0.3488
   10MOL   H334 4132   1.326   5.977   0.375 -2.5184  0.8007  0.6991
   10MOL   H335 4133   1.099   6.049   0.324 -0.0794  2.9414  1.9399
   10MOL   H336 4134   1.148   6.073   0.151  0.1007 -1.7379 -0.1296
   10MOL   H337 4135   1.208   6.183   0.272 -0.6817  0.4609 -0.3695
   10MOL   C338 4136   1.477   5.421   0.048  0.6347  0.0863  0.0007
   10MOL   C339 4137   1.566   5.299   0.081 -0.2624 -0.1507 -0.0905
   10MOL   C340 4138   1.631   5.236   7.661  0.0660  0.4102 -0.3924
   10MOL   C341 4139   1.536   5.159   7.566 -0.1378  0.0744 -0.0652
   10MOL   C342 4140   1.596   5.111   7.435 -0.0728 -0.6298  0.4349
   10MOL   C343 4141   1.489   5.030   7.361 -0.0932 -0.6381  0.0730
   10MOL   C344 4142   1.381   5.107   7.293  0.5439  0.0300 -0.0054
   10MOL   H345 4143   1.478   5.435   7.653 -0.3216  1.7487  0.1898
   10MOL   H346 4144   1.377   5.398   0.085  0.2026  2.4139  0.3854
   10MOL   H347 4145   1.653   5.336   0.135 -1.5734  1.6430  0.8097
   10MOL   H348 4146   1.674   5.321   7.606  0.1077 -0.4167 -1.6539
   10MOL   H349 4147   1.714   5.173   7.693 -0.5964  0.2432  1.0532
   10MOL   H350 4148   1.436   5.200   7.554 -0.2805 -1.0808 -3.5396
   10MOL   H351 4149   1.522   5.070   7.627 -1.6839  1.7046  2.0359
   10MOL   H352 4150   1.610   5.202   7.377  1.3838 -1.3056 -0.3107
   10MOL   H353 4151   1.688   5.054   7.448  1.1158  1.5776  1.8844
   10MOL   H354 4152   1.539   4.973   7.283 -0.1245 -1.6077  0.7581
   10MOL   H355 4153   1.431   4.958   7.417  1.2228 -2.4298 -0.8078
   10MOL   H356 4154   1.327   5.027   7.243  4.7971 -3.8426  1.2398
   10MOL   H357 4155   1.417   5.173   7.215  2.4845 -1.3723 -0.3415
   10MOL   H358 4156   1.333   5.154   7.379  0.3080  1.4938 -0.9291
   10MOL   C359 4157   1.497   5.198   0.178  0.4141 -0.4966  0.1812
   10MOL   C360 4158   1.572   5.069   0.215  0.0672 -0.4727  0.1569
   10MOL   C361 4159   1.666   5.089   0.337  0.3868  0.6523  0.6938
   10MOL   C362 4160   1.783   5.002   0.335 -0.5087 -0.1511 -0.4834
   10MOL   C363 4161   1.893   5.018   0.450  0.5486  0.3367  0.9212
   10MOL   C364 4162   2.006   4.912   0.438  0.1976  0.6268 -0.0382
   10MOL   C365 4163   2.103   4.919   0.559  0.1219  0.6377  0.8131
   10MOL   H366 4164   1.401   5.182   0.129  0.1363 -0.3260  0.6676
   10MOL   H367 4165   1.476   5.257   0.267 -3.3302  0.2319 -1.1211
   10MOL   H368 4166   1.634   5.040   0.131  0.9630 -0.7121  0.8939
   10MOL   H369 4167   1.690   5.194   0.347 -3.6392  1.8607 -1.1757
   10MOL   H370 4168   1.613   5.050   0.424  0.8683  0.3868  0.8649
   10MOL   H371 4169   1.739   4.905   0.355 -1.3989  0.6373  1.5055
   10MOL   H372 4170   1.833   5.000   0.238  1.0647  0.2025  0.3214
   10MOL   H373 4171   1.926   5.122   0.451 -2.8700  1.4724  1.5661
   10MOL   H374 4172   1.854   5.017   0.552 -1.3577  1.9724  0.2373
   10MOL   H375 4173   1.972   4.811   0.419 -0.5320  1.2529 -2.2416
   10MOL   H376 4174   2.055   4.950   0.348 -1.1759 -1.1660 -1.5705
   10MOL   H377 4175   2.140   5.018   0.584 -0.5079  0.8303  0.9984
   10MOL   H378 4176   2.061   4.885   0.653  2.4307 -1.9491  0.9766
   10MOL   H379 4177   2.193   4.861   0.542 -0.9270 -1.7520  3.1605
   10MOL   C380 4178   1.470   4.949   0.243  0.5722  0.3245 -0.5021
   10MOL   C381 4179   1.416   4.890   0.117 -0.3040 -0.4655 -0.0248
   10MOL   C382 4180   1.524   4.805   0.048 -0.3770  0.2791  0.3292
   10MOL   C383 4181   1.472   4.738   7.635  0.6642  0.3868 -0.8041
   10MOL   C384 4182   1.583   4.666   7.552  0.5142 -0.5364  0.1180
   10MOL   C385 4183   1.677   4.573   7.630  0.8022  0.5017 -0.4661
   10MOL   C386 4184   1.766   4.489   7.541  1.0627  0.1696 -0.2510
   10MOL   H387 4185   1.515   4.862   0.291  0.4365 -0.3123 -1.5211
   10MOL   H388 4186   1.399   4.984   0.318  0.4991 -1.9231  0.5295
   10MOL   H389 4187   1.401   4.974   0.049  1.0230  0.6480  1.0278
   10MOL   H390 4188   1.561   4.729   0.117 -1.1275 -0.4247 -0.0328
   10MOL   H391 4189   1.603   4.871   0.013  0.7046 -1.5350 -0.7472
   10MOL   H392 4190   1.411   4.653   7.665  0.6994  0.1760 -1.3334
   10MOL   H393 4191   1.421   4.800   7.561  1.3552  1.0781 -0.7150
   10MOL   H394 4192   1.531   4.620   7.468 -2.2291  0.2984  1.3124
   10MOL   H395 4193   1.643   4.743   7.503 -0.3554  0.5031  0.6695
   10MOL   H396 4194   1.616   4.504   7.687 -1.4650  0.7210 -2.5404
   10MOL   H397 4195   1.726   4.644   7.697  2.5710  0.0532 -1.2578
   10MOL   H398 4196   1.827   4.555   7.479  0.1444  0.8769 -0.4013
   10MOL   H399 4197   1.714   4.427   7.468  0.3241  0.4034  0.0768
   10MOL   H400 4198   1.832   4.431   7.605 -0.2183  0.2231  1.1359
   10MOL   C401 4199   1.291   4.809   0.146  0.4726 -0.7903  0.2632
   10MOL   C402 4200   1.172   4.910   0.172 -0.0372 -0.8400 -0.3334
   10MOL   C403 4201   1.026   4.861   0.150 -0.9906 -0.2370  0.1457
   10MOL   C404 4202   1.002   4.717   0.217 -0.0141  0.0007  0.6239
   10MOL   C405 4203   1.013   4.721   0.371 -1.0821  0.2864 -0.6431
   10MOL   C406 4204   0.963   4.592   0.443 -0.4357  0.5025  0.2398
   10MOL   C407 4205   0.915   4.618   0.585 -0.1821  0.1498  0.9184
   10MOL   H408 4206   1.313   4.748   0.234 -0.8704  1.4973  2.2404
   10MOL   H409 4207   1.271   4.745   0.060  0.7964 -3.0863  1.8204
   10MOL   H410 4208   1.185   5.003   0.117  1.0814 -0.9691 -0.3103
   10MOL   H411 4209   1.006   4.850   0.044  1.0396  1.5587 -0.4344
   10MOL   H412 4210   0.945   4.926   0.183  0.8723  2.8836 -1.2827
   10MOL   H413 4211   1.065   4.636   0.179 -1.3440 -0.6002 -0.3475
   10MOL   H414 4212   0.904   4.685   0.181  1.3092 -2.4481 -0.9286
   10MOL   H415 4213   1.110   4.749   0.413 -1.8276  0.4522  1.0325
   10MOL   H416 4214   0.942   4.793   0.413 -1.2020 -0.5019  0.5381
   10MOL   H417 4215   0.878   4.551   0.389  0.3804 -0.2521 -0.4999
   10MOL   H418 4216   1.053   4.530   0.452 -0.5814  0.0855 -1.1057
   10MOL   H419 4217   0.819   4.671   0.588 -0.5371 -0.2896 -1.4088
   10MOL   H420 4218   0.980   4.679   0.647  0.3789 -1.2829  1.7408
   10MOL   H421 4219   0.901   4.523   0.636 -1.7512 -0.1144  0.0345
   10MOL   H422 4220   1.169   4.951   0.273 -0.4299 -1.1134 -0.2336
   11MOL     C1 4221   0.859   0.605   7.202  0.2397 -0.5879 -0.3359
   11MOL     C2 4222   0.723   0.553   7.157 -0.4131 -0.1543 -0.5807
   11MOL     C3 4223   0.705   0.403   7.194 -0.3261 -0.6419  0.6519
   11MOL     C4 4224   0.564   0.344   7.193 -0.2638  0.0974  0.6368
   11MOL     C5 4225   0.560   0.192   7.187 -0.0228 -0.4569  1.0214
   11MOL     C6 4226   0.421   0.129   7.193  0.6834  0.4136  0.9028
   11MOL     C7 4227   0.420   7.697   7.134  0.0279  0.2792  0.4171
   11MOL     H8 4228   0.939   0.566   7.140  1.7904  0.8795  0.7040
   11MOL     H9 4229   0.874   0.597   7.310  0.1995  0.1261 -0.2711
   11MOL    H10 4230   0.651   0.599   7.225 -1.0047 -1.4410 -0.3186
   11MOL    H11 4231   0.769   0.344   7.129 -0.5196  1.5764 -1.6533
   11MOL    H12 4232   0.755   0.396   7.290 -0.4534 -0.0314  0.7653
   11MOL    H13 4233   0.520   0.367   7.290  0.2972 -0.5821  1.0569
   11MOL    H14 4234   0.492   0.387   7.124 -0.3428 -0.5837  0.2914
   11MOL    H15 4235   0.609   0.153   7.276  0.1194 -0.1574  1.0772
   11MOL    H16 4236   0.605   0.153   7.096  0.5653 -1.6124  1.7986
   11MOL    H17 4237   0.354   0.200   7.144 -1.4679 -2.5332 -0.5871
   11MOL    H18 4238   0.394   0.122   7.298 -2.3501  3.2957  0.4197
   11MOL    H19 4239   0.470   7.701   7.037 -0.4937 -0.9195  0.0976
   11MOL    H20 4240   0.328   7.643   7.116  0.6660 -0.3283 -1.0711
   11MOL    H21 4241   0.483   7.633   7.196  0.1080 -0.1205 -0.0838
   11MOL    H22 4242   0.869   0.712   7.184  2.0700 -1.2342 -3.5190
   11MOL    C23 4243   0.691   0.580   7.009  0.4141  0.1172 -0.0546
   11MOL    C24 4244   0.543   0.613   6.975  0.4990  0.6139  0.1445
   11MOL    C25 4245   0.482   0.508   6.876  0.2083  0.5056  0.0897
   11MOL    C26 4246   0.324   0.505   6.863 -0.3228  0.2865 -0.0491
   11MOL    C27 4247   0.272   0.360   6.865  0.1415 -0.0641  0.5093
   11MOL    C28 4248   0.144   0.337   6.788 -0.4232 -0.0470  0.1527
   11MOL    C29 4249   0.101   0.188   6.797 -0.0681 -0.0975  0.3962
   11MOL    H30 4250   0.748   0.670   6.988  0.2190  0.1666 -0.3731
   11MOL    H31 4251   0.733   0.502   6.945  0.7861 -0.4931  0.9249
   11MOL    H32 4252   0.484   0.607   7.066 -3.7640 -0.0107 -2.4899
   11MOL    H33 4253   0.515   0.406   6.896 -0.2895 -0.1578 -2.3145
   11MOL    H34 4254   0.524   0.522   6.776  0.4520  0.8296  0.2327
   11MOL    H35 4255   0.297   0.548   6.767  0.5213  1.9557  0.4366
   11MOL    H36 4256   0.270   0.556   6.943  0.1723  2.2086 -0.9101
   11MOL    H37 4257   0.279   0.323   6.967  0.0992  0.3234  0.6575
   11MOL    H38 4258   0.349   0.306   6.810  0.5037 -0.0829  1.0282
   11MOL    H39 4259   0.180   0.359   6.688  1.0707  0.4415  0.7753
   11MOL    H40 4260   0.073   0.414   6.819 -0.4905  0.0844 -0.3352
   11MOL    H41 4261   0.063   0.179   6.899 -0.2835  0.2747  0.3496
   11MOL    H42 4262   0.024   0.165   6.724  1.1659  0.4862 -1.1120
   11MOL    H43 4263   0.187   0.122   6.794  0.7998  1.0531 -0.3306
   11MOL    C44 4264   0.519   0.759   6.926  0.3848  0.6688 -0.4879
   11MOL    C45 4265   0.540   0.870   7.023 -0.2522  0.4803  0.2992
   11MOL    C46 4266   0.556   0.998   6.946  0.4881 -0.2820  0.2540
   11MOL    C47 4267   0.701   1.009   6.890  0.7949 -0.5267  0.1785
   11MOL    C48 4268   0.736   1.143   6.844  0.7466 -0.2649  0.0048
   11MOL    C49 4269   0.867   1.159   6.760 -0.0988  0.9293  0.2173
   11MOL    C50 4270   0.997   1.126   6.833  0.5218  0.6954 -0.5496
   11MOL    H51 4271   0.417   0.767   6.887  0.6601  1.2282 -1.1030
   11MOL    H52 4272   0.571   0.780   6.833 -1.8415  1.0598 -1.6923
   11MOL    H53 4273   0.635   0.850   7.073  0.1171  0.7714 -0.2796
   11MOL    H54 4274   0.543   1.089   7.005  0.2254  1.5100 -2.4686
   11MOL    H55 4275   0.486   1.010   6.864 -0.6538  0.0512  1.2608
   11MOL    H56 4276   0.781   0.973   6.954  1.7441  1.1360 -0.0396
   11MOL    H57 4277   0.711   0.947   6.801  2.8016 -0.2877  0.2133
   11MOL    H58 4278   0.745   1.209   6.929 -0.7400 -1.4573  1.1227
   11MOL    H59 4279   0.654   1.175   6.780 -0.1657  0.1174  1.3532
   11MOL    H60 4280   0.861   1.264   6.731 -2.3831  0.8767  0.4043
   11MOL    H61 4281   0.858   1.087   6.680 -0.5124  0.5157  0.6318
   11MOL    H62 4282   1.054   1.217   6.851  1.3263  0.7903 -3.4017
   11MOL    H63 4283   1.057   1.050   6.783  0.5967  0.8325 -0.6695
   11MOL    H64 4284   0.973   1.077   6.927  0.2014 -0.1489 -1.0686
   11MOL    C65 4285   0.426   0.878   7.126 -0.8513  0.2036 -0.5545
   11MOL    C66 4286   0.451   0.944   7.267 -0.1086  0.5993 -0.5784
   11MOL    C67 4287   0.537   0.857   7.356 -0.6534  0.2667 -0.2398
   11MOL    C68 4288   0.583   0.927   7.490  0.3707 -0.0987  0.1179
   11MOL    C69 4289   0.691   0.840   7.567  0.0140  0.7895  0.2360
   11MOL    C70 4290   0.775   0.923   7.667 -0.6321  0.3656  0.0415
   11MOL    C71 4291   0.703   0.954   0.082 -1.2427 -0.2208  0.9461
   11MOL    H72 4292   0.347   0.941   7.087 -0.7373  1.4606  1.1695
   11MOL    H73 4293   0.391   0.776   7.144  2.0067 -0.8502 -0.5758
   11MOL    H74 4294   0.506   1.035   7.243  0.9396 -0.5229 -2.5728
   11MOL    H75 4295   0.507   0.758   7.392  1.5770 -0.3048  0.1134
   11MOL    H76 4296   0.622   0.832   7.292  0.6226  0.7548  1.2531
   11MOL    H77 4297   0.600   1.035   7.492 -0.7197  0.0654  1.6016
   11MOL    H78 4298   0.498   0.922   7.558 -1.3371 -0.1867 -1.9917
   11MOL    H79 4299   0.656   0.743   7.605  2.0459  0.0964  0.3843
   11MOL    H80 4300   0.759   0.802   7.492  1.6703  0.3868  1.8927
   11MOL    H81 4301   0.799   1.017   7.617 -2.3754  2.0031  2.1398
   11MOL    H82 4302   0.864   0.866   7.691 -0.6665  0.6051  0.7634
   11MOL    H83 4303   0.767   1.007   0.152 -1.3411  0.5754  0.4441
   11MOL    H84 4304   0.605   1.001   0.070 -0.5897  1.2389  1.2515
   11MOL    H85 4305   0.684   0.857   0.126  0.9421 -0.6908  0.9169
   11MOL    C86 4306   0.316   0.992   7.319 -0.7371  0.5853  0.2953
   11MOL    C87 4307   0.316   1.134   7.396  0.4546  0.5680 -0.3474
   11MOL    C88 4308   0.338   1.248   7.286  1.0676  0.7219  0.1872
   11MOL    C89 4309   0.372   1.382   7.359  0.3651  0.2581 -0.5880
   11MOL    C90 4310   0.385   1.501   7.272  0.3271  0.3803 -0.9422
   11MOL    C91 4311   0.408   1.630   7.365 -0.6096  0.0086  0.0932
   11MOL    C92 4312   0.284   1.682   7.433 -1.0257 -0.0793 -0.2872
   11MOL    H93 4313   0.235   0.997   7.247  0.3021 -2.2678 -1.1706
   11MOL    H94 4314   0.273   0.914   7.382 -0.4574 -0.8832 -1.2872
   11MOL    H95 4315   0.399   1.142   7.466 -0.0735 -1.2460  0.5288
   11MOL    H96 4316   0.409   1.230   7.206 -0.7077 -0.2592 -1.1983
   11MOL    H97 4317   0.248   1.243   7.225  0.4928 -0.8324  1.1391
   11MOL    H98 4318   0.297   1.389   7.438 -0.4800 -1.0028 -1.2467
   11MOL    H99 4319   0.465   1.376   7.416  0.7589  1.0837 -1.1376
   11MOL   H100 4320   0.300   1.510   7.205  0.8195  1.0122 -1.4778
   11MOL   H101 4321   0.469   1.478   7.207 -0.5437  1.2113 -2.3820
   11MOL   H102 4322   0.477   1.609   7.447  0.7980 -0.7103 -1.2649
   11MOL   H103 4323   0.459   1.701   7.300 -3.5853  1.0566 -1.1849
   11MOL   H104 4324   0.264   1.623   7.522 -1.4111  2.6783  1.5162
   11MOL   H105 4325   0.191   1.690   7.377 -1.9382 -1.9875  0.9141
   11MOL   H106 4326   0.301   1.787   7.457  0.3188 -0.4076  0.2451
   11MOL   C107 4327   0.176   1.145   7.459  0.7136  0.1586  0.7265
   11MOL   C108 4328   0.149   1.093   7.597  0.2274 -0.2331 -0.3968
   11MOL   C109 4329   0.228   1.164   7.708  0.3078  0.0873  0.3682
   11MOL   C110 4330   0.195   1.313   0.025  0.8172 -0.0235  0.8408
   11MOL   C111 4331   0.239   1.354   0.166 -0.4471 -0.4879 -0.0719
   11MOL   C112 4332   0.230   1.507   0.195 -0.8608  0.6363 -0.5971
   11MOL   C113 4333   0.335   1.597   0.134  0.1119  0.4424 -0.1641
   11MOL   H114 4334   0.114   1.091   7.388 -1.5288  2.9668  0.4974
   11MOL   H115 4335   0.148   1.250   7.456  0.9667  0.2361  1.0077
   11MOL   H116 4336   0.191   0.993   7.609 -0.0736 -0.2778  0.3492
   11MOL   H117 4337   0.336   1.164   7.695  0.3296 -0.6627  0.5061
   11MOL   H118 4338   0.213   1.113   0.090  0.7242  3.6405  2.4074
   11MOL   H119 4339   0.242   1.372   7.659 -0.6190 -1.0829 -0.8547
   11MOL   H120 4340   0.090   1.342   0.010  0.7573 -1.4562 -1.9002
   11MOL   H121 4341   0.343   1.321   0.173 -0.3100  0.5885  4.4732
   11MOL   H122 4342   0.178   1.301   0.238 -0.2797  1.4344  1.5178
   11MOL   H123 4343   0.139   1.551   0.154 -0.3769  1.0050 -1.2694
   11MOL   H124 4344   0.226   1.517   0.304 -2.5500 -0.0303 -0.5854
   11MOL   H125 4345   0.433   1.558   0.163  0.7139  2.2929  0.4095
   11MOL   H126 4346   0.331   1.604   0.025 -1.0859 -3.1186 -0.4055
   11MOL   H127 4347   0.333   1.696   0.179 -2.8980  0.0461  0.6760
   11MOL   C128 4348   0.001   1.075   7.632  0.1837  0.2480 -0.2617
   11MOL   C129 4349   7.687   0.962   0.027 -0.4001  0.0138  0.2944
   11MOL   C130 4350   0.053   0.824   7.712  0.0677  0.6695  0.1780
   11MOL   C131 4351   0.033   0.766   7.571 -0.8724  0.3052 -0.1023
   11MOL   C132 4352   0.139   0.665   7.518 -0.1133  0.0140  0.3194
   11MOL   C133 4353   0.085   0.574   7.406  0.2166 -0.3715  0.2212
   11MOL   C134 4354   0.191   0.481   7.351 -0.1433  0.4423 -0.1713
   11MOL   H135 4355   7.673   1.174   7.650  0.5894  0.5343 -0.8480
   11MOL   H136 4356   7.653   1.034   7.552 -2.0670  2.1132  0.4494
   11MOL   H137 4357   0.020   1.003   0.117  2.7330 -0.2997 -1.1070
   11MOL   H138 4358   7.711   0.760   0.068 -1.4941 -0.0347 -1.6728
   11MOL   H139 4359   0.157   0.823   0.032  0.5935  1.2001 -1.3837
   11MOL   H140 4360   0.023   0.841   7.493  0.4139 -0.3083 -0.8789
   11MOL   H141 4361   7.648   0.720   7.558 -1.1489  0.4765  1.2818
   11MOL   H142 4362   0.170   0.595   7.596 -0.4394 -2.5957 -1.7836
   11MOL   H143 4363   0.229   0.722   7.494 -0.2206  0.3427  0.7057
   11MOL   H144 4364   0.037   0.632   7.327 -1.3863 -0.2164  1.2887
   11MOL   H145 4365   0.001   0.516   7.443  0.5238 -0.6820  0.4333
   11MOL   H146 4366   0.277   0.546   7.331 -0.6252  1.5074  1.1803
   11MOL   H147 4367   0.166   0.424   7.262  1.8171 -0.6233 -0.0838
   11MOL   H148 4368   0.221   0.412   7.430  0.6102  1.7452  0.7166
   11MOL   C149 4369   7.529   0.944   0.037 -0.0492  0.4855  0.0173
   11MOL   C150 4370   7.442   1.072   0.073  0.2648  0.3712  0.4685
   11MOL   C151 4371   7.501   1.167   0.173  0.1444 -0.3162  0.0311
   11MOL   C152 4372   7.481   1.129   0.322  0.4518  0.0398  0.4366
   11MOL   C153 4373   7.545   1.230   0.417 -0.6921  0.3635  0.1982
   11MOL   C154 4374   7.444   1.339   0.472  0.4565 -0.2499  0.1371
   11MOL   C155 4375   7.489   1.394   0.607  0.6967 -0.3236  0.2745
   11MOL   H156 4376   7.488   0.914   7.654 -2.0121  1.1645  0.6050
   11MOL   H157 4377   7.511   0.872   0.117  3.0114  1.7030  1.9231
   11MOL   H158 4378   7.438   1.128   7.693  3.0489  0.1416  0.1580
   11MOL   H159 4379   7.606   1.184   0.149 -0.3889 -0.1707 -2.3540
   11MOL   H160 4380   7.456   1.263   0.146  0.3536  0.1317  1.2807
   11MOL   H161 4381   7.531   1.033   0.329 -1.1568 -0.9713 -1.4852
   11MOL   H162 4382   7.380   1.099   0.352  1.4195 -0.5038  3.3006
   11MOL   H163 4383   7.639   1.260   0.371 -0.7575  1.1627  0.5861
   11MOL   H164 4384   7.585   1.162   0.493 -0.3183 -0.2833 -0.5605
   11MOL   H165 4385   7.350   1.287   0.489  1.4217 -2.1388 -0.2375
   11MOL   H166 4386   7.427   1.416   0.397 -0.1102  0.9377  1.4653
   11MOL   H167 4387   7.416   1.467   0.643  0.7682 -0.0940 -0.0380
   11MOL   H168 4388   7.578   1.454   0.591  0.1618  0.5373  0.4874
   11MOL   H169 4389   7.512   1.321   0.684  1.4012 -0.9867 -0.5565
   11MOL   C170 4390   7.290   1.034   0.100 -0.4809  0.0461  0.2785
   11MOL   C171 4391   7.186   1.146   0.103 -0.0994 -0.0905  0.2981
   11MOL   C172 4392   7.189   1.214   7.679 -0.7939 -0.0570  0.0186
   11MOL   C173 4393   7.183   1.138   7.551  0.2521 -0.5074 -0.3463
   11MOL   C174 4394   7.170   1.236   7.435 -1.2448  0.1729 -0.4802
   11MOL   C175 4395   7.135   1.165   7.303 -0.0600  0.0467 -0.4985
   11MOL   C176 4396   7.122   1.263   7.187  0.1506 -0.3077  0.6123
   11MOL   H177 4397   7.276   0.980   0.193  0.9213 -1.9477 -0.6284
   11MOL   H178 4398   7.265   0.967   0.018 -0.1335  2.0270 -1.4787
   11MOL   H179 4399   7.223   1.213   0.180 -2.3054  2.9920 -1.2307
   11MOL   H180 4400   7.279   1.275   7.677  0.7948 -2.2506  1.9787
   11MOL   H181 4401   7.111   1.290   7.673 -0.8149 -0.2347 -3.2220
   11MOL   H182 4402   7.102   1.065   7.544 -2.4198  2.4716 -1.8183
   11MOL   H183 4403   7.277   1.084   7.546  1.0114  0.9872 -2.8094
   11MOL   H184 4404   7.264   1.290   7.425 -0.6042 -0.5534  1.2388
   11MOL   H185 4405   7.088   1.304   7.456  1.2969  3.4038 -0.5282
   11MOL   H186 4406   7.048   1.100   7.314  1.9353 -2.8075 -1.1267
   11MOL   H187 4407   7.217   1.106   7.263 -0.7651 -2.7448  2.0065
   11MOL   H188 4408   7.095   1.198   7.103  2.5555 -1.6912  0.8581
   11MOL   H189 4409   7.215   1.318   7.169  0.2376 -0.5742  0.2246
   11MOL   H190 4410   7.048   1.339   7.212  1.1180  0.6753  0.5526
   11MOL   C191 4411   7.043   1.096   0.131  0.4110  0.7191  0.1386
   11MOL   C192 4412   7.001   1.102   0.281  0.2506 -0.7404  0.3069
   11MOL   C193 4413   7.043   0.989   0.374  0.3782 -0.2347  0.3176
   11MOL   C194 4414   6.985   0.982   0.517 -0.5191  0.2076  1.0337
   11MOL   C195 4415   6.839   0.932   0.537 -0.1631  0.0616  0.2477
   11MOL   C196 4416   6.799   0.901   0.681  0.3261  0.1383 -0.4919
   11MOL   C197 4417   6.810   1.012   0.783  0.1454 -0.1814  0.2292
   11MOL   H198 4418   7.042   0.989   0.113 -1.3156  0.5322  1.2006
   11MOL   H199 4419   6.967   1.148   0.072  1.4506  1.3096 -0.6811
   11MOL   H200 4420   6.893   1.086   0.288  0.4002 -0.9596  2.5565
   11MOL   H201 4421   7.152   0.990   0.383  0.6272  0.9558 -2.2439
   11MOL   H202 4422   7.015   0.891   0.335 -0.5302  0.1800 -0.0770
   11MOL   H203 4423   7.000   1.077   0.569 -0.7586 -0.1672  1.7956
   11MOL   H204 4424   7.043   0.908   0.572 -0.2787 -0.0545  0.4210
   11MOL   H205 4425   6.760   0.997   0.498  0.2971  2.2955  2.8714
   11MOL   H206 4426   6.841   0.844   0.474 -1.6434 -0.2842  0.6599
   11MOL   H207 4427   6.863   0.819   0.713 -1.6307 -1.6393 -1.0029
   11MOL   H208 4428   6.701   0.853   0.688 -0.1098  1.3360  2.3259
   11MOL   H209 4429   6.751   1.101   0.762  1.3644  0.9588  1.5063
   11MOL   H210 4430   6.915   1.032   0.805  0.2576 -0.1590 -0.3389
   11MOL   H211 4431   6.771   0.981   0.880  0.9641  2.0530  1.3118
   11MOL   C212 4432   7.018   1.245   0.344 -0.3302  0.0131  0.0746
   11MOL   C213 4433   6.930   1.362   0.287  0.2557 -0.3100  0.0317
   11MOL   C214 4434   6.782   1.341   0.304  0.4711 -0.5026 -0.4272
   11MOL   C215 4435   6.689   1.441   0.224 -0.2173 -0.5125  0.4444
   11MOL   C216 4436   6.682   1.403   0.076  0.3696  0.0356 -0.2357
   11MOL   C217 4437   6.586   1.499   7.710 -0.0027  0.5410  0.2154
   11MOL   C218 4438   6.574   1.465   7.566 -0.0267 -0.4656 -0.4234
   11MOL   H219 4439   7.122   1.273   0.334 -0.9852  2.0303 -1.4565
   11MOL   H220 4440   7.003   1.237   0.451  1.2145  1.4810  0.4156
   11MOL   H221 4441   6.945   1.370   0.180 -3.0489  0.7784 -0.4032
   11MOL   H222 4442   6.759   1.237   0.280  1.3837 -0.7914 -0.0645
   11MOL   H223 4443   6.758   1.351   0.410  0.4241  0.1129 -0.4934
   11MOL   H224 4444   6.710   1.548   0.223 -1.6034 -0.2034  2.1088
   11MOL   H225 4445   6.595   1.453   0.278 -0.3283 -2.5440  0.7365
   11MOL   H226 4446   6.780   1.394   0.029  0.7629  1.1134  0.3500
   11MOL   H227 4447   6.638   1.303   0.074  2.2207 -0.8035 -0.8864
   11MOL   H228 4448   6.488   1.470   0.034 -0.0024 -1.2411 -1.0942
   11MOL   H229 4449   6.615   1.603   0.010  0.1020  0.2072  2.9475
   11MOL   H230 4450   6.543   1.364   7.539  0.1759 -0.4904 -0.5625
   11MOL   H231 4451   6.675   1.465   7.526  1.0376 -3.2299  2.0178
   11MOL   H232 4452   6.504   1.528   7.511 -1.1874  1.9470  3.6061
   11MOL   C233 4453   6.974   1.503   0.343 -0.1762  0.3033  0.5870
   11MOL   C234 4454   7.117   1.565   0.301 -1.0904  0.0122 -0.1846
   11MOL   C235 4455   7.155   1.546   0.152 -0.2331 -0.3075 -0.1832
   11MOL   C236 4456   7.088   1.635   0.053  0.2657 -0.0668  0.5954
   11MOL   C237 4457   7.143   1.629   7.620  0.4622 -0.6029  0.0506
   11MOL   C238 4458   7.037   1.689   7.520  0.2649  0.1198  0.3906
   11MOL   C239 4459   6.917   1.601   7.491 -0.9209  0.1643  0.3872
   11MOL   H240 4460   6.978   1.495   0.451  1.9944  1.0629  0.5779
   11MOL   H241 4461   6.897   1.580   0.332 -1.2938 -0.9989 -0.9162
   11MOL   H242 4462   7.185   1.501   0.358  1.2439  1.7955 -0.8851
   11MOL   H243 4463   7.146   1.443   0.117 -2.4880 -0.2962  0.2865
   11MOL   H244 4464   7.264   1.553   0.149 -0.2559 -0.0727 -0.5057
   11MOL   H245 4465   7.089   1.739   0.087  0.3164 -0.7215  2.6507
   11MOL   H246 4466   6.981   1.617   0.048  0.3783 -1.0041  1.3969
   11MOL   H247 4467   7.174   1.529   7.588 -0.8112 -1.3060  0.9460
   11MOL   H248 4468   7.221   1.705   7.615 -0.2556  0.0953 -0.7927
   11MOL   H249 4469   7.003   1.786   7.557 -1.1492 -0.9032  1.8322
   11MOL   H250 4470   7.083   1.706   7.423 -0.1157 -0.6490  0.0678
   11MOL   H251 4471   6.938   1.558   7.393  0.3185  0.4296  0.5250
   11MOL   H252 4472   6.902   1.520   7.562 -1.3784  0.1467  0.2731
   11MOL   H253 4473   6.827   1.653   7.461 -0.8843  0.1295  0.2170
   11MOL   C254 4474   7.129   1.707   0.354  0.2191 -0.4423  0.1299
   11MOL   C255 4475   7.260   1.788   0.330  0.7440  0.8697 -0.0937
   11MOL   C256 4476   7.354   1.741   0.442 -0.2038 -0.3265 -0.1106
   11MOL   C257 4477   7.492   1.804   0.414 -0.3964  0.1043  0.2384
   11MOL   C258 4478   7.607   1.726   0.481 -0.4698  0.4832 -0.0924
   11MOL   C259 4479   0.028   1.770   0.415 -0.3639  1.2088  0.1856
   11MOL   C260 4480   0.145   1.710   0.486 -0.6017  0.1237 -0.7431
   11MOL   H261 4481   7.113   1.700   0.462  1.5143 -0.4597  0.3292
   11MOL   H262 4482   7.047   1.760   0.305  0.9283  0.4480 -0.1107
   11MOL   H263 4483   7.309   1.763   0.236  0.8715 -1.1802  0.4825
   11MOL   H264 4484   7.368   1.632   0.440  1.0630 -0.2349  1.6714
   11MOL   H265 4485   7.325   1.761   0.545  0.0799  1.2049 -0.3224
   11MOL   H266 4486   7.516   1.787   0.309 -0.7412 -3.3595  0.6494
   11MOL   H267 4487   7.507   1.910   0.437 -1.4187  0.5846 -1.2722
   11MOL   H268 4488   7.604   1.619   0.459  0.1812  0.3197  0.6028
   11MOL   H269 4489   7.605   1.746   0.588  1.0418 -0.0253  0.0494
   11MOL   H270 4490   0.031   1.756   0.307  1.2377 -0.3632  0.4177
   11MOL   H271 4491   0.039   1.877   0.430  2.3258  0.7440  1.8834
   11MOL   H272 4492   0.143   1.740   0.591 -3.6490  1.6400 -1.1668
   11MOL   H273 4493   0.142   1.602   0.473  0.0933 -0.2401  1.8440
   11MOL   H274 4494   0.241   1.756   0.464 -0.2871 -0.6094 -0.8849
   11MOL   C275 4495   7.231   1.944   0.331 -0.3060 -0.1744  0.4924
   11MOL   C276 4496   7.141   2.004   0.223 -1.0084  0.3813  0.1651
   11MOL   C277 4497   7.232   2.033   0.099 -1.1516  0.4198  0.3686
   11MOL   C278 4498   7.163   2.088   7.685 -0.9793  0.2003  0.4978
   11MOL   C279 4499   7.231   2.041   7.554 -0.0238  0.0358 -0.6435
   11MOL   C280 4500   7.344   2.129   7.503 -0.1647 -0.1492  0.4142
   11MOL   C281 4501   7.285   2.255   7.439  0.9016  0.0230  0.0621
   11MOL   H282 4502   7.319   2.007   0.340 -0.0797 -0.4945  0.5054
   11MOL   H283 4503   7.198   1.951   0.435 -2.1659  1.2835 -0.1675
   11MOL   H284 4504   7.073   1.925   0.188  0.8024  0.1100 -2.8609
   11MOL   H285 4505   7.314   2.098   0.128 -0.3091 -0.7933  0.7139
   11MOL   H286 4506   7.278   1.937   0.075  1.9184  1.6002  1.3386
   11MOL   H287 4507   7.155   2.196   7.699 -2.2185  0.2830 -0.7288
   11MOL   H288 4508   7.062   2.048   7.670 -0.5086  0.1164 -2.8815
   11MOL   H289 4509   7.158   2.047   7.474 -2.9446  0.0147  1.9213
   11MOL   H290 4510   7.272   1.944   7.580  0.4486  0.2349 -0.6404
   11MOL   H291 4511   7.397   2.157   7.594 -0.0648 -1.2323  0.6992
   11MOL   H292 4512   7.407   2.071   7.435 -2.9672 -1.7849 -0.8743
   11MOL   H293 4513   7.218   2.302   7.512  0.6951 -1.7355  1.0251
   11MOL   H294 4514   7.236   2.232   7.344  0.5151 -0.4154  0.3686
   11MOL   H295 4515   7.367   2.326   7.428  2.0081 -0.8471  2.3980
   11MOL   C296 4516   7.064   2.134   0.266  0.6683 -0.5145 -0.6281
   11MOL   C297 4517   6.941   2.090   0.357 -0.6030  0.2413  0.7849
   11MOL   C298 4518   6.806   2.060   0.288 -0.2420  0.4578 -0.3957
   11MOL   C299 4519   6.808   2.000   0.146 -0.2361 -0.4639  0.6555
   11MOL   C300 4520   6.668   1.942   0.119  0.0162  0.6996 -0.0592
   11MOL   C301 4521   6.661   1.870   7.691  0.2083  0.1265 -0.3212
   11MOL   C302 4522   6.685   1.952   7.565  0.1461 -0.4055  0.2604
   11MOL   H303 4523   7.133   2.189   0.330 -0.0930 -0.5698  0.2501
   11MOL   H304 4524   7.031   2.193   0.180 -0.7483  0.7480  0.7571
   11MOL   H305 4525   6.966   2.001   0.415  1.4770  0.7477  0.7255
   11MOL   H306 4526   6.745   2.000   0.355  0.2093 -0.0238 -0.4085
   11MOL   H307 4527   6.753   2.154   0.278  0.2422  0.7036 -0.7027
   11MOL   H308 4528   6.863   1.906   0.142 -1.1175 -0.9057 -2.7119
   11MOL   H309 4529   6.849   2.064   0.068 -1.3263 -0.2754  0.2310
   11MOL   H310 4530   6.593   2.020   0.114 -0.5366  0.1114 -0.9904
   11MOL   H311 4531   6.636   1.871   0.196  0.8249  0.6900  0.2782
   11MOL   H312 4532   6.736   1.790   7.691  0.0455 -0.0253  0.9741
   11MOL   H313 4533   6.564   1.823   7.676  0.5608 -0.7231  0.0103
   11MOL   H314 4534   6.617   2.038   7.563  1.0158  0.3206  1.3906
   11MOL   H315 4535   6.786   1.991   7.554 -0.5112  0.9743 -0.9678
   11MOL   H316 4536   6.666   1.896   7.473  0.3640  0.2866 -0.2095
   11MOL   C317 4537   6.932   2.200   0.463  0.2893 -0.8686 -0.4375
   11MOL   C318 4538   6.823   2.178   0.570 -0.2464  0.9082  0.1529
   11MOL   C319 4539   6.841   2.042   0.649  0.5276 -0.2322 -0.0335
   11MOL   C320 4540   6.976   2.015   0.712 -0.7466 -1.1348 -0.1255
   11MOL   C321 4541   6.997   1.866   0.748 -0.9297 -0.4483  0.1412
   11MOL   C322 4542   7.137   1.845   0.812  0.4897  0.2580  0.2334
   11MOL   C323 4543   7.182   1.931   0.930 -0.1211 -0.1374 -0.4364
   11MOL   H324 4544   6.924   2.294   0.409  0.9339  0.8471  2.3673
   11MOL   H325 4545   7.030   2.201   0.511  1.8642 -0.6192 -3.5542
   11MOL   H326 4546   6.727   2.174   0.518  0.0260  1.3518 -0.3940
   11MOL   H327 4547   6.825   1.956   0.584  1.7189  0.6444 -1.5165
   11MOL   H328 4548   6.764   2.015   0.721 -0.3458  1.7933 -0.1753
   11MOL   H329 4549   6.984   2.073   0.804  1.5395  2.5345 -2.5113
   11MOL   H330 4550   7.053   2.053   0.645 -0.8065 -0.8949 -0.0591
   11MOL   H331 4551   6.989   1.791   0.669  1.4883 -0.6061  0.0074
   11MOL   H332 4552   6.923   1.844   0.825 -0.9357 -1.0788 -0.0448
   11MOL   H333 4553   7.213   1.839   0.733 -1.8108 -1.6966 -1.9137
   11MOL   H334 4554   7.141   1.743   0.851  0.2152 -0.1955 -0.8901
   11MOL   H335 4555   7.273   1.884   0.968 -0.7809 -0.8345  0.2972
   11MOL   H336 4556   7.111   1.911   1.010 -1.9983  0.4088 -1.9132
   11MOL   H337 4557   7.193   2.038   0.912  0.3765  0.1042  1.2344
   11MOL   C338 4558   6.818   2.300   0.659 -0.8395 -0.2633  0.4544
   11MOL   C339 4559   6.715   2.304   0.765 -0.1949  0.1719  0.4311
   11MOL   C340 4560   6.575   2.277   0.713  0.3969 -0.1358  0.0694
   11MOL   C341 4561   6.517   2.386   0.614 -0.0154 -0.0775 -0.7749
   11MOL   C342 4562   6.373   2.349   0.573  0.2362  0.2317 -0.4196
   11MOL   C343 4563   6.305   2.463   0.490 -0.9260  0.2711  0.4154
   11MOL   C344 4564   6.271   2.591   0.576 -0.4714  0.8044  0.1887
   11MOL   H345 4565   6.804   2.388   0.597  1.0991  1.1315  1.9434
   11MOL   H346 4566   6.915   2.311   0.708 -0.4203  0.5887 -0.5373
   11MOL   H347 4567   6.727   2.218   0.832  0.2235 -1.6256 -1.8816
   11MOL   H348 4568   6.564   2.179   0.667 -0.3361 -0.5762  1.1324
   11MOL   H349 4569   6.511   2.273   0.802  0.2495  1.2136  0.0223
   11MOL   H350 4570   6.582   2.402   0.528 -0.7010  1.5385 -1.0282
   11MOL   H351 4571   6.529   2.481   0.666 -0.0439  0.7147 -2.1702
   11MOL   H352 4572   6.374   2.258   0.512 -0.2822  0.6359 -1.0411
   11MOL   H353 4573   6.307   2.328   0.657 -0.4601  1.5993 -0.6259
   11MOL   H354 4574   6.352   2.492   0.396  0.4411  0.9467  1.2800
   11MOL   H355 4575   6.208   2.420   0.466 -0.4697 -0.7664  0.4145
   11MOL   H356 4576   6.364   2.645   0.592  0.7291 -1.7737  2.1531
   11MOL   H357 4577   6.234   2.557   0.672  0.9297  0.6248  0.6780
   11MOL   H358 4578   6.203   2.655   0.519  1.7175  2.1170 -1.0551
   11MOL   C359 4579   6.738   2.433   0.848 -0.3748  0.4462 -0.5968
   11MOL   C360 4580   6.682   2.424   0.989 -0.2878  0.1837  0.2139
   11MOL   C361 4581   6.792   2.403   1.098 -0.1433 -0.4449 -0.2879
   11MOL   C362 4582   6.875   2.275   1.075  0.0467 -0.4205 -0.0000
   11MOL   C363 4583   6.784   2.145   1.107  0.0415  0.2653  0.1608
   11MOL   C364 4584   6.868   2.029   1.165  0.2022  0.2555 -0.5219
   11MOL   C365 4585   6.803   1.892   1.140  0.2989  0.2345  0.7280
   11MOL   H366 4586   6.693   2.518   0.796 -0.7668  0.7528  0.2362
   11MOL   H367 4587   6.842   2.463   0.860  0.0436 -1.5767  1.0612
   11MOL   H368 4588   6.608   2.344   0.994  1.3239 -1.4018 -0.6841
   11MOL   H369 4589   6.855   2.492   1.090 -0.6917 -0.0809 -0.6323
   11MOL   H370 4590   6.749   2.404   1.198  2.2251 -1.7096  0.7770
   11MOL   H371 4591   6.922   2.261   0.978  0.9936 -1.8231  0.6552
   11MOL   H372 4592   6.955   2.286   1.148  1.0111 -1.0581 -0.9590
   11MOL   H373 4593   6.716   2.171   1.188 -0.3233 -1.5813  0.4701
   11MOL   H374 4594   6.724   2.114   1.022 -1.0423 -1.9673  1.6998
   11MOL   H375 4595   6.965   2.023   1.116 -0.3672 -3.7195 -1.4054
   11MOL   H376 4596   6.894   2.066   1.264 -0.4327  0.4094 -0.4084
   11MOL   H377 4597   6.864   1.812   1.181  1.0994  0.7818  0.6068
   11MOL   H378 4598   6.708   1.879   1.193 -0.2706 -0.1436 -0.3747
   11MOL   H379 4599   6.796   1.876   1.032 -1.3990 -1.4467  1.0442
   11MOL   C380 4600   6.620   2.562   1.021 -0.4845  0.3924  0.7405
   11MOL   C381 4601   6.468   2.586   0.966 -1.2531  0.3685  0.1426
   11MOL   C382 4602   6.365   2.508   1.048  0.0339  0.3614  0.1661
   11MOL   C383 4603   6.237   2.479   0.970 -0.0687  0.1148 -0.0223
   11MOL   C384 4604   6.152   2.361   1.027 -0.2474 -0.4346 -0.2834
   11MOL   C385 4605   6.033   2.335   0.941 -0.0585 -0.4466  0.4197
   11MOL   C386 4606   5.938   2.227   0.983  0.0112 -0.0975 -0.0041
   11MOL   H387 4607   6.618   2.568   1.130  0.7446  0.9353  0.7373
   11MOL   H388 4608   6.690   2.638   0.987  0.6111 -1.5761 -1.6180
   11MOL   H389 4609   6.467   2.555   0.861  0.6326  1.3811 -0.1900
   11MOL   H390 4610   6.352   2.549   1.148 -0.3846  0.0521  0.2411
   11MOL   H391 4611   6.402   2.406   1.052  1.3319  0.7750 -1.1673
   11MOL   H392 4612   6.175   2.568   0.963 -0.1464  0.0428 -0.2600
   11MOL   H393 4613   6.267   2.460   0.867 -0.0917 -2.3717  0.3945
   11MOL   H394 4614   6.212   2.271   1.039  0.2972 -0.0640 -0.2350
   11MOL   H395 4615   6.127   2.378   1.132  1.7509  0.2091  0.1136
   11MOL   H396 4616   6.076   2.287   0.853  0.0181  0.7145 -0.1767
   11MOL   H397 4617   5.983   2.427   0.911  0.8586  0.0081  0.2745
   11MOL   H398 4618   5.973   2.124   0.995  1.6821  0.6115  1.6322
   11MOL   H399 4619   5.861   2.226   0.907  0.3415  3.4033 -0.4684
   11MOL   H400 4620   5.888   2.253   1.076 -0.1814 -0.6462  0.0460
   11MOL   C401 4621   6.435   2.736   0.958  0.3048  0.2734 -1.0081
   11MOL   C402 4622   6.508   2.789   0.838 -0.2906 -0.0329 -0.4802
   11MOL   C403 4623   6.477   2.935   0.827 -0.3467  0.0891  0.3514
   11MOL   C404 4624   6.545   2.990   0.696  0.2548 -0.6808 -0.0794
   11MOL   C405 4625   6.487   3.131   0.664  1.0532 -0.1109 -0.0417
   11MOL   C406 4626   6.504   3.241   0.776  0.6230 -0.2320  0.6716
   11MOL   C407 4627   6.463   3.380   0.721 -0.3867  0.8846 -0.6905
   11MOL   H408 4628   6.458   2.784   1.053 -0.0156 -0.3622 -0.6051
   11MOL   H409 4629   6.331   2.759   0.940  0.9801  2.7147 -1.9704
   11MOL   H410 4630   6.461   2.739   0.754 -0.9473  0.0731 -0.1800
   11MOL   H411 4631   6.522   2.991   0.909  0.9650 -2.6281  1.5571
   11MOL   H412 4632   6.370   2.958   0.825 -0.8359 -2.1150 -0.0780
   11MOL   H413 4633   6.529   2.925   0.610 -1.7740 -0.8822  0.4166
   11MOL   H414 4634   6.649   2.982   0.727 -0.4104 -2.2973  1.8435
   11MOL   H415 4635   6.537   3.155   0.570  1.7076  0.0150  0.3428
   11MOL   H416 4636   6.382   3.136   0.634  1.7634 -1.0288 -2.8587
   11MOL   H417 4637   6.455   3.225   0.872  3.0578  0.9133  2.1397
   11MOL   H418 4638   6.610   3.248   0.799  0.2762  1.0130  1.9348
   11MOL   H419 4639   6.518   3.413   0.633  0.2966  1.4243 -0.0609
   11MOL   H420 4640   6.467   3.462   0.792  2.0132  0.8241 -0.7268
   11MOL   H421 4641   6.358   3.379   0.690 -0.8728 -0.6643  0.9363
   11MOL   H422 4642   6.615   2.770   0.830  0.1945  2.0794  0.4973
   12MOL     C1 4643   0.623   2.716   0.834 -0.6437 -0.0567  0.9855
   12MOL     C2 4644   0.518   2.814   0.899 -0.0700 -0.1914  0.9286
   12MOL     C3 4645   0.420   2.728   0.991 -0.7746 -0.2473  0.4572
   12MOL     C4 4646   0.471   2.639   1.098  0.1778 -0.3492  0.5090
   12MOL     C5 4647   0.361   2.561   1.174 -0.0941 -0.0892 -0.3362
   12MOL     C6 4648   0.420   2.457   1.275  0.2632 -0.2610 -0.0091
   12MOL     C7 4649   0.477   2.533   1.394  0.0091  0.2614  0.2237
   12MOL     H8 4650   0.650   2.745   0.732  0.0322 -1.5679  0.7344
   12MOL     H9 4651   0.574   2.619   0.826 -1.2363  0.2026  1.4398
   12MOL    H10 4652   0.570   2.874   0.973 -2.3827 -0.2048  2.6202
   12MOL    H11 4653   0.360   2.805   1.038 -1.0453 -1.4645  2.1509
   12MOL    H12 4654   0.369   2.659   0.922  2.2487 -3.1923  1.0161
   12MOL    H13 4655   0.538   2.563   1.059 -0.9982 -1.8407  1.2996
   12MOL    H14 4656   0.519   2.705   1.170  0.9870  0.0360 -0.3743
   12MOL    H15 4657   0.295   2.516   1.099 -0.4867  0.2613 -0.2018
   12MOL    H16 4658   0.315   2.641   1.231  0.8931 -0.1519  0.5647
   12MOL    H17 4659   0.502   2.400   1.232  0.7592 -0.8109  1.6194
   12MOL    H18 4660   0.343   2.392   1.317  1.4380 -2.0039 -0.4833
   12MOL    H19 4661   0.576   2.568   1.365  0.4532 -1.4157 -0.3337
   12MOL    H20 4662   0.489   2.460   1.475  3.3094 -2.8410 -2.8309
   12MOL    H21 4663   0.421   2.610   1.447  0.5926  1.3141 -0.6786
   12MOL    H22 4664   0.715   2.711   0.892  0.5100 -1.3838 -0.9348
   12MOL    C23 4665   0.448   2.902   0.802 -0.0815 -0.0193  0.0142
   12MOL    C24 4666   0.526   3.007   0.719 -0.2295 -0.5999 -0.0888
   12MOL    C25 4667   0.618   3.098   0.802 -0.4930  0.6505 -0.3332
   12MOL    C26 4668   0.673   3.230   0.729  0.6894  0.4700  0.2105
   12MOL    C27 4669   0.755   3.318   0.825 -0.0025  0.0208  0.1380
   12MOL    C28 4670   0.822   3.448   0.767 -0.3484 -0.2751 -0.0136
   12MOL    C29 4671   0.953   3.497   0.834  0.1626 -0.4643 -0.7349
   12MOL    H30 4672   0.395   2.840   0.729  0.3842  0.1585 -0.4743
   12MOL    H31 4673   0.366   2.956   0.849  0.5269  1.7908 -0.9632
   12MOL    H32 4674   0.601   2.963   0.654 -1.7461 -0.7877 -1.7594
   12MOL    H33 4675   0.707   3.047   0.840 -0.8836  1.7970  2.2072
   12MOL    H34 4676   0.556   3.123   0.887  0.1922 -3.1736  1.4066
   12MOL    H35 4677   0.599   3.297   0.686 -0.5600 -0.5102  0.8102
   12MOL    H36 4678   0.735   3.198   0.645 -0.4370 -3.5633  0.7839
   12MOL    H37 4679   0.829   3.246   0.859  0.3328  0.7833  1.0421
   12MOL    H38 4680   0.691   3.351   0.907 -2.8501  0.3177 -2.1051
   12MOL    H39 4681   0.754   3.533   0.759 -0.7864 -0.3017  2.8470
   12MOL    H40 4682   0.841   3.423   0.662 -0.6981  0.4413 -0.2571
   12MOL    H41 4683   0.926   3.550   0.925 -0.1048  1.5946 -1.9886
   12MOL    H42 4684   1.019   3.414   0.859 -1.5689 -1.6465  0.0164
   12MOL    H43 4685   0.998   3.569   0.766  1.9123 -1.3231 -0.5086
   12MOL    C44 4686   0.435   3.093   0.633  0.0461 -0.4766  0.0925
   12MOL    C45 4687   0.482   3.111   0.491  0.1684 -0.7236  0.0263
   12MOL    C46 4688   0.443   2.980   0.413  0.0517 -0.3513  0.3410
   12MOL    C47 4689   0.295   2.976   0.353  0.3801  0.0138 -0.1571
   12MOL    C48 4690   0.275   2.859   0.261  0.7348 -0.6603 -0.0224
   12MOL    C49 4691   0.142   2.869   0.184  0.1355 -0.6869  0.0009
   12MOL    C50 4692   0.073   2.742   0.144  0.6601 -0.1239  0.0302
   12MOL    H51 4693   0.410   3.189   0.680 -0.8726 -0.4174 -0.4876
   12MOL    H52 4694   0.334   3.052   0.634 -0.6787  1.2434 -0.5917
   12MOL    H53 4695   0.591   3.111   0.497  0.2105  1.0942 -0.5186
   12MOL    H54 4696   0.454   2.893   0.477  1.8790  0.1444  0.7479
   12MOL    H55 4697   0.520   2.965   0.337  0.5139 -2.3724  1.1934
   12MOL    H56 4698   0.218   2.984   0.431  1.1053  0.6058  0.5032
   12MOL    H57 4699   0.299   3.059   0.283 -1.3753  0.3651  0.1334
   12MOL    H58 4700   0.275   2.766   0.317 -1.4092 -0.8239 -0.2214
   12MOL    H59 4701   0.354   2.848   0.187 -0.3783 -0.4750 -1.2874
   12MOL    H60 4702   0.166   2.923   0.093  0.2386 -1.0189 -0.1687
   12MOL    H61 4703   0.074   2.930   0.244  2.8580 -0.4142  2.9836
   12MOL    H62 4704   0.103   2.700   0.048 -1.5726 -2.9787  0.5228
   12MOL    H63 4705   7.682   2.769   0.128  0.7000 -0.8247 -1.5173
   12MOL    H64 4706   0.073   2.661   0.217 -0.0450  0.3513  0.5594
   12MOL    C65 4707   0.444   3.256   0.439 -0.5440 -0.2248  1.5437
   12MOL    C66 4708   0.500   3.281   0.290  0.1837 -0.0475  0.2326
   12MOL    C67 4709   0.654   3.251   0.273 -0.2312  0.2180  0.3655
   12MOL    C68 4710   0.751   3.351   0.343  0.6816 -0.2504  0.1798
   12MOL    C69 4711   0.894   3.323   0.313 -0.8940  0.6888 -0.6582
   12MOL    C70 4712   0.993   3.416   0.385  0.2354 -0.2418  0.5093
   12MOL    C71 4713   1.137   3.383   0.363 -0.2139  0.4656 -0.2785
   12MOL    H72 4714   0.335   3.262   0.440 -0.6191 -0.4177 -0.8902
   12MOL    H73 4715   0.497   3.332   0.496 -0.1706  1.1999 -0.6380
   12MOL    H74 4716   0.462   3.197   0.232 -1.2411 -0.9307  2.3534
   12MOL    H75 4717   0.675   3.155   0.320  0.4766  0.0302 -0.3241
   12MOL    H76 4718   0.687   3.247   0.170 -1.0214 -1.8743  0.1746
   12MOL    H77 4719   0.723   3.453   0.318  0.0906  0.0345  1.8733
   12MOL    H78 4720   0.727   3.351   0.450 -0.6036 -0.5042 -0.0985
   12MOL    H79 4721   0.903   3.219   0.345 -1.5473  0.4740 -1.1654
   12MOL    H80 4722   0.917   3.332   0.207 -0.9383  1.5179 -0.6013
   12MOL    H81 4723   0.988   3.418   0.494  1.6473 -1.5106  0.6039
   12MOL    H82 4724   0.967   3.519   0.359 -3.0368 -1.0438  0.3799
   12MOL    H83 4725   1.165   3.368   0.258 -2.5184 -1.3659 -0.6757
   12MOL    H84 4726   1.221   3.437   0.407 -0.1159 -1.1995  1.6245
   12MOL    H85 4727   1.156   3.289   0.414 -0.7791  0.7984  0.5504
   12MOL    C86 4728   0.448   3.414   0.226 -0.4894 -0.0380 -0.1501
   12MOL    C87 4729   0.499   3.450   0.086 -0.2647  0.1755 -0.0438
   12MOL    C88 4730   0.425   3.373   7.694 -0.1925  0.2818  0.0758
   12MOL    C89 4731   0.499   3.359   7.561  0.1574 -0.4531 -0.9028
   12MOL    C90 4732   0.623   3.284   7.569  0.0524 -0.2496  0.2872
   12MOL    C91 4733   0.678   3.242   7.435 -0.6069 -0.3581  0.5534
   12MOL    C92 4734   0.817   3.176   7.446  0.0252 -0.0387 -0.8193
   12MOL    H93 4735   0.339   3.408   0.228 -0.6753  2.8365  1.2052
   12MOL    H94 4736   0.472   3.498   0.291  0.4986  1.2624 -2.1675
   12MOL    H95 4737   0.603   3.417   0.078 -0.6306 -1.1283  0.3981
   12MOL    H96 4738   0.417   3.268   0.009 -1.0899  0.5703  0.9043
   12MOL    H97 4739   0.322   3.403   7.676  0.2489 -0.0415 -3.2711
   12MOL    H98 4740   0.423   3.307   7.502  1.0163 -3.0104  0.1994
   12MOL    H99 4741   0.522   3.453   7.509 -0.6963 -0.4526 -1.3028
   12MOL   H100 4742   0.623   3.199   7.637 -2.1069  0.0528  0.6826
   12MOL   H101 4743   0.691   3.356   7.615 -0.1104  0.5822 -0.7567
   12MOL   H102 4744   0.613   3.180   7.373 -0.3449 -0.3506  0.2698
   12MOL   H103 4745   0.680   3.340   7.389 -1.8739  0.1016  1.4777
   12MOL   H104 4746   0.886   3.230   7.512  1.1786  0.7396 -2.6279
   12MOL   H105 4747   0.857   3.180   7.345 -3.3058  0.0086 -2.1764
   12MOL   H106 4748   0.812   3.073   7.481 -0.0211 -0.2834 -1.5481
   12MOL   C107 4749   0.476   3.605   0.055 -0.2867  0.4340  0.3521
   12MOL   C108 4750   0.602   3.684   0.055 -0.1493  0.2569 -0.3496
   12MOL   C109 4751   0.712   3.656   7.665  0.2160 -0.5778 -0.6541
   12MOL   C110 4752   0.843   3.619   0.020 -0.1047  0.0766  0.4466
   12MOL   C111 4753   0.949   3.584   7.626 -0.6726  0.2701 -0.4468
   12MOL   C112 4754   1.087   3.526   7.675 -0.1079 -0.1391 -0.2624
   12MOL   C113 4755   1.173   3.640   0.015 -0.0381  0.7942  0.1391
   12MOL   H114 4756   0.406   3.648   0.127 -1.3012 -0.3045 -0.1689
   12MOL   H115 4757   0.431   3.616   7.670  1.2821 -0.3254 -0.4689
   12MOL   H116 4758   0.643   3.652   0.150  1.0547 -2.4060 -1.7102
   12MOL   H117 4759   0.728   3.735   7.591  0.9061 -1.4180 -1.4193
   12MOL   H118 4760   0.682   3.569   7.606  0.3869 -1.8521  1.1109
   12MOL   H119 4761   0.877   3.711   0.068 -2.7187  1.7650 -0.8206
   12MOL   H120 4762   0.834   3.534   0.088 -0.0236 -0.3960 -0.1366
   12MOL   H121 4763   0.962   3.666   7.555  0.0829  0.4948 -0.0538
   12MOL   H122 4764   0.896   3.510   7.566 -1.6204  0.0183  0.6922
   12MOL   H123 4765   1.078   3.452   0.041 -0.3354 -1.8723 -1.8602
   12MOL   H124 4766   1.137   3.468   7.598  0.2198 -1.2413  0.7642
   12MOL   H125 4767   1.271   3.597   0.037 -0.4475  0.4691  1.3407
   12MOL   H126 4768   1.189   3.708   7.644  1.0199 -0.6497 -0.8660
   12MOL   H127 4769   1.132   3.680   0.107  1.1238  1.3763  0.4195
   12MOL   C128 4770   0.572   3.834   0.065  0.0790 -0.1986  0.2971
   12MOL   C129 4771   0.540   3.883   0.210 -0.4177  0.4208 -0.3174
   12MOL   C130 4772   0.449   4.009   0.206 -0.5889 -0.0180 -0.4039
   12MOL   C131 4773   0.514   4.129   0.128  0.3722 -0.4604 -0.5886
   12MOL   C132 4774   0.428   4.255   0.165 -0.3196 -0.1381 -0.5307
   12MOL   C133 4775   0.490   4.384   0.132  0.0359 -0.6635 -0.3255
   12MOL   C134 4776   0.393   4.491   0.154  0.3656 -0.4569  0.4798
   12MOL   H135 4777   0.659   3.889   0.028 -0.2173  1.0135  1.4079
   12MOL   H136 4778   0.495   3.851   7.703  0.2389 -0.6450  0.0280
   12MOL   H137 4779   0.471   3.811   0.254 -1.1043  1.1029 -0.2688
   12MOL   H138 4780   0.418   4.035   0.307  0.4216  0.8227 -0.2974
   12MOL   H139 4781   0.358   3.976   0.156 -1.0481  0.9992 -0.2292
   12MOL   H140 4782   0.516   4.118   0.020  2.3550 -1.1730 -0.4913
   12MOL   H141 4783   0.614   4.154   0.165 -0.5743 -0.4018  2.0629
   12MOL   H142 4784   0.399   4.264   0.269 -0.9315  0.1962 -0.7329
   12MOL   H143 4785   0.328   4.248   0.124 -1.1710  1.5187  1.2174
   12MOL   H144 4786   0.521   4.386   0.027  0.0677  0.4653 -0.2963
   12MOL   H145 4787   0.583   4.392   0.189  0.6437 -1.1244 -1.2229
   12MOL   H146 4788   0.426   4.593   0.133  3.9069 -1.4303  1.0860
   12MOL   H147 4789   0.360   4.475   0.257 -1.8158 -0.6907 -0.2198
   12MOL   H148 4790   0.301   4.484   0.096 -1.6591 -0.4096  3.5756
   12MOL   C149 4791   0.668   3.893   0.297  0.5075 -0.3002  0.2027
   12MOL   C150 4792   0.650   3.911   0.445 -0.1403 -0.1935  0.3164
   12MOL   C151 4793   0.776   3.963   0.519 -0.8948 -0.6519 -0.3114
   12MOL   C152 4794   0.833   4.100   0.472 -0.1608  0.0409  0.6997
   12MOL   C153 4795   0.952   4.153   0.559 -0.5675 -0.2775 -0.1505
   12MOL   C154 4796   0.914   4.218   0.687  0.0119 -0.0461  0.1711
   12MOL   C155 4797   1.028   4.290   0.757 -1.0459 -0.0267 -0.1774
   12MOL   H156 4798   0.734   3.809   0.276 -2.3363 -2.3339 -1.0051
   12MOL   H157 4799   0.718   3.981   0.258  0.5298 -0.6956 -0.6590
   12MOL   H158 4800   0.576   3.987   0.470 -0.3087 -0.8190  1.7584
   12MOL   H159 4801   0.753   3.966   0.626 -1.2394  0.3404 -0.4029
   12MOL   H160 4802   0.862   3.898   0.507 -0.6338 -0.5177  0.7830
   12MOL   H161 4803   0.759   4.178   0.460  0.6235  0.8572  1.0835
   12MOL   H162 4804   0.874   4.087   0.372 -0.4293  0.3805  0.5447
   12MOL   H163 4805   1.009   4.223   0.497  0.1294 -1.3003 -0.6907
   12MOL   H164 4806   1.020   4.071   0.585  1.8198  1.0026 -2.1967
   12MOL   H165 4807   0.847   4.162   0.751  0.7474 -1.8990 -0.6524
   12MOL   H166 4808   0.834   4.287   0.662  0.6770  0.9326  0.7004
   12MOL   H167 4809   1.082   4.348   0.683  0.3803 -1.6356 -0.4112
   12MOL   H168 4810   1.089   4.215   0.807 -0.3888 -0.0563 -1.0263
   12MOL   H169 4811   0.989   4.354   0.837 -0.6393  1.8058 -1.4198
   12MOL   C170 4812   0.609   3.785   0.518  0.2699  0.0333  0.4594
   12MOL   C171 4813   0.463   3.790   0.564 -0.5115  0.2360 -0.4809
   12MOL   C172 4814   0.426   3.639   0.593  0.9227 -0.5215  0.2299
   12MOL   C173 4815   0.290   3.622   0.667 -0.1666  0.0796  0.4128
   12MOL   C174 4816   0.256   3.471   0.689  0.1102 -0.4485 -0.0520
   12MOL   C175 4817   0.113   3.437   0.741  0.3628  0.5560  0.3282
   12MOL   C176 4818   0.094   3.288   0.726  0.5238 -0.3817 -0.1138
   12MOL   H177 4819   0.676   3.764   0.602  1.7984 -0.7267 -0.9212
   12MOL   H178 4820   0.625   3.702   0.449  0.1024  0.6199 -0.2946
   12MOL   H179 4821   0.400   3.824   0.482 -0.1274 -2.2495 -1.8838
   12MOL   H180 4822   0.508   3.609   0.659  1.3996  1.8249  0.7624
   12MOL   H181 4823   0.413   3.573   0.508 -3.7398 -0.8102  1.0471
   12MOL   H182 4824   0.200   3.649   0.612  0.0932 -0.0470 -0.0725
   12MOL   H183 4825   0.310   3.674   0.761  1.9956  1.5347 -0.8283
   12MOL   H184 4826   0.335   3.433   0.755  1.2448  0.0795 -1.0771
   12MOL   H185 4827   0.265   3.424   0.591  0.3734  0.9626 -0.7317
   12MOL   H186 4828   0.044   3.492   0.677  0.3668  0.5382  0.3083
   12MOL   H187 4829   0.093   3.468   0.844 -1.2507  1.5880 -0.2771
   12MOL   H188 4830   0.054   3.272   0.626  0.3082 -0.2666 -0.0458
   12MOL   H189 4831   0.032   3.258   0.811 -2.2075  1.8626 -1.2374
   12MOL   H190 4832   0.184   3.226   0.730 -0.1726 -1.3222  2.0161
   12MOL   C191 4833   0.451   3.886   0.685  1.2124  0.2346 -0.1743
   12MOL   C192 4834   0.316   3.952   0.710 -0.1962  0.0695 -0.3986
   12MOL   C193 4835   0.309   4.025   0.849 -0.3727 -0.1535 -0.3310
   12MOL   C194 4836   0.274   3.927   0.959 -0.0001 -0.2271  0.0579
   12MOL   C195 4837   0.300   3.984   1.100 -0.1149  0.8493 -0.4752
   12MOL   C196 4838   0.292   3.870   1.204 -0.0732 -0.0846 -0.9585
   12MOL   C197 4839   0.334   3.920   1.344 -0.0964  0.6728  0.0401
   12MOL   H198 4840   0.531   3.960   0.676  0.9102  0.8184  1.7336
   12MOL   H199 4841   0.489   3.826   0.768 -0.2508 -2.8606 -1.6826
   12MOL   H200 4842   0.243   3.871   0.714  1.8784 -1.7855  1.1811
   12MOL   H201 4843   0.245   4.113   0.851 -1.3592 -0.8371 -1.5367
   12MOL   H202 4844   0.410   4.062   0.869 -1.0832  1.1416  0.9853
   12MOL   H203 4845   0.329   3.837   0.934  1.5398  0.9377 -0.8593
   12MOL   H204 4846   0.175   3.883   0.956 -0.0197 -0.0795 -1.5397
   12MOL   H205 4847   0.400   4.027   1.111  0.1881  0.1839 -0.5894
   12MOL   H206 4848   0.236   4.068   1.127  0.3732  1.1832 -0.3423
   12MOL   H207 4849   0.359   3.790   1.170  0.5959  0.1164 -0.1311
   12MOL   H208 4850   0.194   3.824   1.199  0.2916 -0.7789 -2.0352
   12MOL   H209 4851   0.331   3.843   1.421  0.6576  0.5396 -0.0584
   12MOL   H210 4852   0.273   4.006   1.374  0.8312  1.2561  0.3043
   12MOL   H211 4853   0.438   3.953   1.338  0.0536  0.6870  2.2028
   12MOL   C212 4854   0.276   4.055   0.599  0.3969 -0.5966 -0.3021
   12MOL   C213 4855   0.129   4.051   0.562 -0.5249 -0.5232  0.3245
   12MOL   C214 4856   0.084   4.193   0.507  0.2362 -0.3355  0.4382
   12MOL   C215 4857   0.122   4.216   0.361  0.2891 -1.0683 -0.3832
   12MOL   C216 4858   0.081   4.361   0.307  0.1143  0.6069 -1.1903
   12MOL   C217 4859   7.644   4.374   0.289  0.2420  0.2265  0.1068
   12MOL   C218 4860   7.598   4.518   0.265  0.1289  0.1965  0.2897
   12MOL   H219 4861   0.338   4.021   0.516 -0.5118  1.4191 -1.8331
   12MOL   H220 4862   0.316   4.155   0.611 -0.9694 -0.0915  0.2268
   12MOL   H221 4863   0.071   4.031   0.652 -1.7082 -2.3398 -0.8060
   12MOL   H222 4864   7.691   4.210   0.523  0.3496  0.5932  0.2088
   12MOL   H223 4865   0.142   4.267   0.561  2.6623 -1.8763  0.0221
   12MOL   H224 4866   0.090   4.136   0.293  1.2338 -0.1851 -1.9182
   12MOL   H225 4867   0.230   4.202   0.356  0.2611 -0.7840 -2.5055
   12MOL   H226 4868   0.128   4.436   0.371 -1.0244 -1.6571  2.4957
   12MOL   H227 4869   0.110   4.369   0.203  3.0211 -0.3600 -0.4949
   12MOL   H228 4870   7.601   4.319   0.206 -0.1567 -0.0483  0.4937
   12MOL   H229 4871   7.593   4.345   0.381  0.6017  0.4945  0.3964
   12MOL   H230 4872   7.490   4.534   0.270 -0.0140 -0.8493  0.6763
   12MOL   H231 4873   7.628   4.568   0.173  2.2597 -2.8950 -0.7759
   12MOL   H232 4874   7.636   4.576   0.349  1.7339  0.8538 -0.8642
   12MOL   C233 4875   0.097   3.936   0.456  0.9277 -0.2243  0.3565
   12MOL   C234 4876   7.662   3.909   0.423  0.2931 -0.4787  0.0807
   12MOL   C235 4877   7.658   3.859   0.273 -0.4127  0.0362  0.2599
   12MOL   C236 4878   0.020   3.729   0.245 -0.0010 -0.3333 -0.7966
   12MOL   C237 4879   7.713   3.662   0.107  0.0317 -0.5011 -0.4620
   12MOL   C238 4880   0.089   3.537   0.079  0.0712  0.6674 -0.0589
   12MOL   C239 4881   0.066   3.472   7.660  0.3380 -0.4730 -0.1954
   12MOL   H240 4882   0.145   3.851   0.505  0.2008  1.1083  3.4741
   12MOL   H241 4883   0.158   3.960   0.370  1.6396  1.3187  1.2760
   12MOL   H242 4884   7.614   4.006   0.434  1.4118  0.2579 -1.2676
   12MOL   H243 4885   7.691   3.941   0.209 -0.0607  0.2193  0.6690
   12MOL   H244 4886   7.554   3.851   0.244 -0.1340  0.0654 -0.7492
   12MOL   H245 4887   7.704   3.651   0.316 -0.3063 -0.1424 -0.7131
   12MOL   H246 4888   0.127   3.737   0.264 -0.1896  0.6472 -0.1355
   12MOL   H247 4889   0.021   3.732   0.026 -0.0672  0.6985  0.5361
   12MOL   H248 4890   7.605   3.650   0.093 -0.8321  3.1360  2.5036
   12MOL   H249 4891   0.193   3.569   0.093 -0.0801  0.6772  1.1006
   12MOL   H250 4892   0.057   3.477   0.164  0.7109 -0.4570 -0.5991
   12MOL   H251 4893   7.672   3.473   7.642  0.6974 -1.0168 -2.5361
   12MOL   H252 4894   0.118   3.536   7.590  0.0452  2.7836  2.4567
   12MOL   H253 4895   0.103   3.370   7.647  0.1239 -0.4549 -0.9598
   12MOL   C254 4896   7.601   3.799   0.514 -0.1420  0.2101  0.0342
   12MOL   C255 4897   7.537   3.831   0.647 -0.3170  0.2191  0.0064
   12MOL   C256 4898   7.601   3.724   0.749 -0.1569 -0.6647 -0.0578
   12MOL   C257 4899   7.544   3.734   0.894 -0.0675  0.1730  0.3156
   12MOL   C258 4900   7.617   3.649   0.994 -0.0700 -0.1287 -0.1685
   12MOL   C259 4901   7.555   3.640   1.140  0.2225  0.5109 -0.0436
   12MOL   C260 4902   7.534   3.781   1.217  0.0173  0.1847  0.2934
   12MOL   H261 4903   7.684   3.731   0.532  0.9358  0.3500 -3.9207
   12MOL   H262 4904   7.527   3.752   0.450 -1.9789  0.6531  1.7750
   12MOL   H263 4905   7.563   3.933   0.676 -1.8224  1.7627 -3.7106
   12MOL   H264 4906   7.709   3.738   0.751 -0.0669 -1.3007 -0.4637
   12MOL   H265 4907   7.580   3.625   0.710 -0.3336  0.4989 -3.0517
   12MOL   H266 4908   7.543   3.837   0.928 -2.7119  0.2113  0.2609
   12MOL   H267 4909   7.443   3.694   0.905  0.4068 -1.2396 -0.2886
   12MOL   H268 4910   0.005   3.688   1.000 -1.2956  2.8868  2.7619
   12MOL   H269 4911   7.614   3.551   0.946  0.6485  0.1652 -0.8201
   12MOL   H270 4912   7.462   3.583   1.130  0.8943 -0.7509  0.7036
   12MOL   H271 4913   7.618   3.582   1.208  0.3386  0.8291  0.1252
   12MOL   H272 4914   7.516   3.765   1.323  0.3867  1.3868  0.5447
   12MOL   H273 4915   7.615   3.854   1.211 -0.2518  0.4438 -0.1701
   12MOL   H274 4916   7.444   3.820   1.170  2.4182  2.1708 -2.7975
   12MOL   C275 4917   7.383   3.820   0.637 -1.4228  1.2576  0.8632
   12MOL   C276 4918   7.308   3.930   0.547 -0.4244  0.1375  0.1641
   12MOL   C277 4919   7.354   4.076   0.570 -0.5037  0.5388  0.2691
   12MOL   C278 4920   7.310   4.177   0.460 -0.1757 -0.2979 -0.1670
   12MOL   C279 4921   7.340   4.155   0.308 -0.5263  0.3736  0.5091
   12MOL   C280 4922   7.280   4.272   0.231 -0.3419  0.4005  0.5422
   12MOL   C281 4923   7.127   4.307   0.247 -0.9617  0.8500 -0.3984
   12MOL   H282 4924   7.322   3.803   0.725 -0.0102 -1.4473  1.3967
   12MOL   H283 4925   7.361   3.726   0.585  0.6397  0.8375  0.6815
   12MOL   H284 4926   7.340   3.915   0.444  1.3977  0.1430  0.7204
   12MOL   H285 4927   7.312   4.101   0.668 -1.3242  0.5542 -0.0826
   12MOL   H286 4928   7.462   4.088   0.581 -0.1260 -1.9271 -0.4803
   12MOL   H287 4929   7.355   4.273   0.485  1.5796 -0.6013 -2.0549
   12MOL   H288 4930   7.209   4.212   0.479 -0.2428 -0.3492 -0.4273
   12MOL   H289 4931   7.277   4.071   0.278 -1.0471  0.7419  0.5557
   12MOL   H290 4932   7.438   4.134   0.266 -0.2191  0.3510  1.2222
   12MOL   H291 4933   7.334   4.362   0.259  0.0499  0.1037  0.7496
   12MOL   H292 4934   7.305   4.251   0.127 -1.9665 -0.4324  0.2911
   12MOL   H293 4935   7.095   4.371   0.164  0.0961  1.2539 -0.5114
   12MOL   H294 4936   7.103   4.360   0.339  2.4884  0.1298  0.9913
   12MOL   H295 4937   7.069   4.215   0.245  2.9075 -1.7119 -1.2637
   12MOL   C296 4938   7.159   3.926   0.562 -0.4141 -0.1976 -0.2985
   12MOL   C297 4939   7.089   3.791   0.545  0.4781 -0.3986 -0.6318
   12MOL   C298 4940   7.108   3.742   0.397 -0.7710 -0.5074  0.4948
   12MOL   C299 4941   7.062   3.597   0.359  0.1771  0.5703 -0.0878
   12MOL   C300 4942   7.106   3.563   0.219  0.9237  0.4344 -0.3008
   12MOL   C301 4943   7.249   3.581   0.172  0.6941 -0.1833 -0.6063
   12MOL   C302 4944   7.281   3.485   0.052  0.4075 -0.0027 -0.1562
   12MOL   H303 4945   7.121   3.962   0.658 -1.9512 -0.8989 -0.6158
   12MOL   H304 4946   7.108   4.004   0.506  1.6394  1.6614  0.3791
   12MOL   H305 4947   7.144   3.717   0.603  0.1329  0.7203  1.1708
   12MOL   H306 4948   7.060   3.810   0.326 -0.6618 -2.7265 -1.7876
   12MOL   H307 4949   7.214   3.756   0.375 -1.2856  1.6665 -0.6995
   12MOL   H308 4950   6.953   3.599   0.361  0.1853  0.6827  0.5060
   12MOL   H309 4951   7.091   3.522   0.433  2.0184  1.2310 -0.1065
   12MOL   H310 4952   7.036   3.613   0.152 -0.7388  0.1452  1.1879
   12MOL   H311 4953   7.084   3.458   0.198 -1.4072  0.3768  2.1454
   12MOL   H312 4954   7.273   3.684   0.143 -0.3265  0.8423  2.0620
   12MOL   H313 4955   7.311   3.547   0.255 -2.3036  0.2848  1.9238
   12MOL   H314 4956   7.207   3.504   7.688  0.2584  0.9726  0.2211
   12MOL   H315 4957   7.375   3.511   0.003 -0.7609 -1.0322 -3.0217
   12MOL   H316 4958   7.289   3.379   0.074  0.0416 -0.0361 -0.1838
   12MOL   C317 4959   6.945   3.788   0.589 -0.4717 -0.3994  0.4720
   12MOL   C318 4960   6.920   3.781   0.742  0.2194  0.6886  0.1194
   12MOL   C319 4961   6.802   3.868   0.799 -0.3383 -0.4373 -0.3341
   12MOL   C320 4962   6.666   3.824   0.750  0.1002 -0.0589  0.3900
   12MOL   C321 4963   6.564   3.924   0.798  0.3412 -1.0733  0.6936
   12MOL   C322 4964   6.420   3.894   0.760 -0.0588 -0.0814 -0.1168
   12MOL   C323 4965   6.353   3.772   0.836  0.5288 -0.3253  0.0229
   12MOL   H324 4966   6.897   3.701   0.544 -2.7889  1.2363 -0.2952
   12MOL   H325 4967   6.895   3.879   0.557 -0.1737 -0.3071  0.2635
   12MOL   H326 4968   7.008   3.827   0.788  0.5918  2.2989 -2.1268
   12MOL   H327 4969   6.812   3.969   0.759  0.8066 -0.9133 -1.2793
   12MOL   H328 4970   6.802   3.870   0.908 -0.7723  1.2974 -0.3567
   12MOL   H329 4971   6.649   3.723   0.789 -1.0564  0.0514  0.1783
   12MOL   H330 4972   6.667   3.826   0.641 -2.9685  0.4112  0.3325
   12MOL   H331 4973   6.580   4.022   0.754 -0.3689 -1.6717 -0.9339
   12MOL   H332 4974   6.576   3.940   0.905 -0.5716  0.1570  0.6277
   12MOL   H333 4975   6.400   3.857   0.659 -0.0349 -3.1795  0.9658
   12MOL   H334 4976   6.360   3.981   0.784  0.6694 -0.3945  3.0210
   12MOL   H335 4977   6.408   3.753   0.929  0.7363 -0.9648 -0.2274
   12MOL   H336 4978   6.354   3.681   0.776 -2.8760 -1.9503  2.2431
   12MOL   H337 4979   6.249   3.800   0.846  0.6541  0.7803 -1.7180
   12MOL   C338 4980   6.921   3.628   0.783 -0.0186  0.1987  0.0666
   12MOL   C339 4981   6.908   3.596   0.934  0.1287  0.4614 -0.1350
   12MOL   C340 4982   7.039   3.539   0.996  0.4585 -0.6855 -0.9285
   12MOL   C341 4983   7.167   3.640   1.000  0.0806 -0.7579  0.3302
   12MOL   C342 4984   7.151   3.749   1.110  0.2938  0.7347  0.2125
   12MOL   C343 4985   7.169   3.700   1.246  0.0347  0.6315 -0.6427
   12MOL   C344 4986   7.159   3.809   1.350  0.6789  0.2041  0.0284
   12MOL   H345 4987   7.015   3.591   0.743 -0.1688 -0.3927  0.2570
   12MOL   H346 4988   6.840   3.581   0.727 -0.2384 -0.4896  0.9458
   12MOL   H347 4989   6.886   3.689   0.986 -0.5135  1.3467 -1.9286
   12MOL   H348 4990   7.021   3.497   1.095 -1.0711  1.5040 -0.2447
   12MOL   H349 4991   7.066   3.446   0.945  0.4850 -1.5898  0.6777
   12MOL   H350 4992   7.198   3.680   0.903  0.4039  0.5422  0.9588
   12MOL   H351 4993   7.254   3.580   1.025  0.2486 -0.6164  0.0925
   12MOL   H352 4994   7.236   3.818   1.105  1.6062 -0.8050  0.7280
   12MOL   H353 4995   7.055   3.799   1.099 -1.0262 -1.8316 -0.2180
   12MOL   H354 4996   7.099   3.621   1.271 -1.0640  1.1857 -1.8806
   12MOL   H355 4997   7.256   3.634   1.246 -1.3484 -1.3409 -3.8421
   12MOL   H356 4998   7.173   3.758   1.445 -2.2288 -0.7863 -0.0269
   12MOL   H357 4999   7.058   3.850   1.349  0.5335 -0.1584 -0.1434
   12MOL   H358 5000   7.226   3.895   1.349 -0.0581  0.8108 -3.1672
   12MOL   C359 5001   6.788   3.505   0.964  0.8050  0.1508 -0.3694
   12MOL   C360 5002   6.750   3.463   1.107  0.7690  0.0857 -0.1613
   12MOL   C361 5003   6.761   3.577   1.208 -1.2586 -0.1207 -0.3099
   12MOL   C362 5004   6.650   3.685   1.208 -0.0316 -0.2727  0.5087
   12MOL   C363 5005   6.672   3.781   1.325  0.1165  0.1957 -0.0103
   12MOL   C364 5006   6.561   3.882   1.348  0.4115 -0.3426 -0.0351
   12MOL   C365 5007   6.589   3.984   1.460  0.3957 -0.4644 -0.2587
   12MOL   H366 5008   6.813   3.417   0.906  0.7310 -0.8404  1.0682
   12MOL   H367 5009   6.701   3.532   0.904 -1.1217  0.3031  2.3676
   12MOL   H368 5010   6.822   3.387   1.138  1.0413  0.3025 -0.2665
   12MOL   H369 5011   6.757   3.534   1.308  1.6117 -0.6072 -0.3557
   12MOL   H370 5012   6.853   3.634   1.198 -1.9232  0.7291 -1.5299
   12MOL   H371 5013   6.655   3.734   1.111 -0.4865  0.1856  0.7141
   12MOL   H372 5014   6.553   3.635   1.208  1.1881 -2.7231 -0.8561
   12MOL   H373 5015   6.698   3.728   1.417 -0.4026 -0.5044 -0.2592
   12MOL   H374 5016   6.763   3.832   1.293 -0.1305 -0.8835 -2.5245
   12MOL   H375 5017   6.540   3.943   1.260  0.1600  1.4413  1.2277
   12MOL   H376 5018   6.467   3.828   1.355  0.7155 -1.1051 -1.6961
   12MOL   H377 5019   6.697   4.001   1.464 -0.0736  2.8191 -0.4561
   12MOL   H378 5020   6.560   4.086   1.435 -0.6802 -0.3088  1.5648
   12MOL   H379 5021   6.545   3.953   1.555 -0.7732 -0.2258 -0.7082
   12MOL   C380 5022   6.622   3.375   1.114  0.7940  0.0372 -0.1225
   12MOL   C381 5023   6.572   3.312   1.252 -0.4208 -0.4097 -1.0485
   12MOL   C382 5024   6.437   3.245   1.247 -1.1160 -0.7165  0.0483
   12MOL   C383 5025   6.383   3.205   1.387  0.3865 -0.8150  0.1880
   12MOL   C384 5026   6.228   3.192   1.392  0.3490  0.1438  0.0339
   12MOL   C385 5027   6.167   3.158   1.529 -0.3838 -0.5386  0.3807
   12MOL   C386 5028   6.210   3.011   1.568  0.1152 -0.0241  0.2244
   12MOL   H387 5029   6.542   3.436   1.074 -0.1733  0.2580  2.0428
   12MOL   H388 5030   6.640   3.282   1.059 -1.6834 -1.2909  1.2238
   12MOL   H389 5031   6.556   3.408   1.301 -0.5201 -0.3854 -1.1276
   12MOL   H390 5032   6.440   3.146   1.200 -0.3181  0.0535 -1.5407
   12MOL   H391 5033   6.366   3.301   1.187 -1.3573 -0.4896  0.5441
   12MOL   H392 5034   6.422   3.106   1.412  1.1228 -0.5584  0.0691
   12MOL   H393 5035   6.413   3.275   1.465  1.6472 -0.5606 -0.5090
   12MOL   H394 5036   6.181   3.287   1.366  2.2584  1.6201  1.7750
   12MOL   H395 5037   6.202   3.119   1.316 -0.0902 -1.9470  2.1510
   12MOL   H396 5038   6.058   3.159   1.526 -0.3467  1.1562 -1.1187
   12MOL   H397 5039   6.205   3.226   1.605  2.2833 -0.9587 -0.5385
   12MOL   H398 5040   6.157   2.980   1.657 -1.3010  1.3055 -0.1380
   12MOL   H399 5041   6.317   2.997   1.588 -0.0121 -0.3263  0.6921
   12MOL   H400 5042   6.179   2.935   1.496 -1.9246 -0.4618  1.5488
   12MOL   C401 5043   6.684   3.220   1.319 -0.7811 -0.3833  0.2628
   12MOL   C402 5044   6.715   3.097   1.235 -0.0867  0.0841  0.3483
   12MOL   C403 5045   6.764   2.975   1.311 -0.4617  0.1082  0.8284
   12MOL   C404 5046   6.660   2.910   1.404  0.4456  0.0759  0.5480
   12MOL   C405 5047   6.716   2.789   1.476 -0.5158  0.4425  0.3794
   12MOL   C406 5048   6.606   2.706   1.544 -0.1317  0.5574 -0.3749
   12MOL   C407 5049   6.670   2.598   1.643 -0.1118 -0.2343 -0.2001
   12MOL   H408 5050   6.665   3.193   1.423  0.5509  1.1035  0.9099
   12MOL   H409 5051   6.776   3.278   1.324 -0.0742 -1.3366 -1.2103
   12MOL   H410 5052   6.798   3.139   1.177 -0.5548  0.1947 -0.2470
   12MOL   H411 5053   6.859   2.995   1.361  0.7269 -0.6044 -1.0788
   12MOL   H412 5054   6.789   2.892   1.244  0.9176  0.8498  0.4074
   12MOL   H413 5055   6.569   2.886   1.349  0.3946 -0.8471  1.0327
   12MOL   H414 5056   6.616   2.972   1.483  1.1465  0.1855  0.8549
   12MOL   H415 5057   6.784   2.736   1.410 -0.8427  0.2918  0.1650
   12MOL   H416 5058   6.781   2.833   1.552  0.6558  0.0811 -0.3957
   12MOL   H417 5059   6.560   2.786   1.602  0.9233  0.6567  0.3325
   12MOL   H418 5060   6.537   2.660   1.474 -1.0491  1.6129 -0.1665
   12MOL   H419 5061   6.590   2.533   1.678 -1.7268  1.3113 -0.9445
   12MOL   H420 5062   6.698   2.649   1.735 -2.4508 -3.5602  2.4564
   12MOL   H421 5063   6.749   2.544   1.592  1.1589  1.6859 -0.3112
   12MOL   H422 5064   6.648   3.071   1.153  1.8442  0.4593 -1.4182
   13MOL     C1 5065   7.017   5.823   3.638  0.6236 -0.3205 -0.5721
   13MOL     C2 5066   6.898   5.823   3.734  0.0284  0.4514 -0.2104
   13MOL     C3 5067   6.803   5.950   3.720 -0.0886  0.2791 -0.3168
   13MOL     C4 5068   6.760   5.968   3.572 -0.0188  0.7662  0.4645
   13MOL     C5 5069   6.645   6.065   3.540  0.1228  0.2585  0.4464
   13MOL     C6 5070   6.644   6.122   3.390 -0.6376  0.0545  0.1403
   13MOL     C7 5071   6.508   6.174   3.351 -0.2621  0.2169 -0.5046
   13MOL     H8 5072   7.067   5.726   3.645  0.0851 -0.6136 -0.7626
   13MOL     H9 5073   7.094   5.897   3.661 -0.8500 -0.0970  4.2522
   13MOL    H10 5074   6.843   5.731   3.715 -1.3892  1.1704  0.3478
   13MOL    H11 5075   6.717   5.946   3.787 -0.0940 -1.1054 -0.3899
   13MOL    H12 5076   6.862   6.036   3.752 -0.0958  0.0967  0.1831
   13MOL    H13 5077   6.851   6.008   3.528 -0.3486  2.0526  0.9224
   13MOL    H14 5078   6.740   5.871   3.528  1.5411  1.0196 -0.8455
   13MOL    H15 5079   6.646   6.144   3.615 -3.0832 -0.1628  1.0180
   13MOL    H16 5080   6.546   6.023   3.557  0.0634 -1.2316 -3.1816
   13MOL    H17 5081   6.671   6.050   3.313  0.5442  1.0584 -0.4010
   13MOL    H18 5082   6.722   6.198   3.386  1.6475 -2.2707 -0.8082
   13MOL    H19 5083   6.494   6.263   3.412  1.4500  0.7430 -0.8404
   13MOL    H20 5084   6.437   6.096   3.379 -0.3229  0.3531 -0.2818
   13MOL    H21 5085   6.504   6.191   3.243  2.5032  0.7461 -0.5659
   13MOL    H22 5086   6.982   5.833   3.536 -0.2805 -2.5381 -0.5290
   13MOL    C23 5087   6.953   5.815   3.876 -0.2540 -0.3843  0.2803
   13MOL    C24 5088   7.034   5.699   3.932 -0.0634 -0.0710  0.0140
   13MOL    C25 5089   6.951   5.569   3.909 -0.3642  0.7549  0.1769
   13MOL    C26 5090   6.813   5.572   3.982 -0.6007 -0.7746 -0.0123
   13MOL    C27 5091   6.789   5.441   4.054 -0.3826  0.1111 -0.2671
   13MOL    C28 5092   6.791   5.300   3.967 -0.2163 -0.1263 -0.5718
   13MOL    C29 5093   6.800   5.180   4.056  0.2917 -0.3004  0.7763
   13MOL    H30 5094   7.018   5.900   3.897 -0.1241 -0.5334  0.4853
   13MOL    H31 5095   6.866   5.837   3.937  0.2921  0.1489  0.8836
   13MOL    H32 5096   7.120   5.687   3.867  1.8109  0.5659  2.2867
   13MOL    H33 5097   7.015   5.488   3.946 -0.2616  0.7682  0.0316
   13MOL    H34 5098   6.927   5.557   3.803 -2.8684  0.5252  0.7595
   13MOL    H35 5099   6.738   5.579   3.903 -0.7772 -1.6537  0.0738
   13MOL    H36 5100   6.801   5.659   4.046 -1.4536 -1.2558  0.4966
   13MOL    H37 5101   6.692   5.438   4.103  0.3361  0.5810  1.2092
   13MOL    H38 5102   6.864   5.428   4.132  0.1283 -2.1655 -1.1111
   13MOL    H39 5103   6.868   5.294   3.890  2.8088  0.3100  2.3327
   13MOL    H40 5104   6.700   5.298   3.907 -1.7392  1.4302  1.6409
   13MOL    H41 5105   6.903   5.161   4.085  0.5731  0.0939  0.0574
   13MOL    H42 5106   6.748   5.189   4.151 -0.6621 -0.1141  0.2446
   13MOL    H43 5107   6.758   5.092   4.007  0.8757 -0.6058  0.8154
   13MOL    C44 5108   7.086   5.721   4.080  0.3885  0.3282 -0.3721
   13MOL    C45 5109   7.201   5.625   4.126 -0.1431 -0.1818 -0.2871
   13MOL    C46 5110   7.337   5.658   4.062 -0.0384  0.1316 -0.4077
   13MOL    C47 5111   7.445   5.544   4.063  0.3416 -0.1026  0.2205
   13MOL    C48 5112   7.580   5.577   3.997  0.1907  0.7731 -0.2449
   13MOL    C49 5113   7.670   5.456   3.976  0.6821 -0.4288 -0.0721
   13MOL    C50 5114   0.023   5.398   4.102  0.4085  0.0785  0.3394
   13MOL    H51 5115   6.999   5.725   4.145 -0.0060  0.9888 -0.9336
   13MOL    H52 5116   7.128   5.820   4.096  0.9827  0.0457 -0.1404
   13MOL    H53 5117   7.188   5.522   4.093  1.8173 -0.8956  1.0356
   13MOL    H54 5118   7.386   5.753   4.084  0.3785 -0.5957  1.9178
   13MOL    H55 5119   7.318   5.668   3.955  2.7105  0.4572 -0.8923
   13MOL    H56 5120   7.462   5.517   4.167 -1.2734  1.2986  0.8774
   13MOL    H57 5121   7.393   5.468   4.004  0.8303 -0.3296  0.0777
   13MOL    H58 5122   7.648   5.648   4.046  1.5570 -0.0147 -0.9616
   13MOL    H59 5123   7.554   5.626   3.904 -2.0916 -1.4202 -0.7944
   13MOL    H60 5124   0.025   5.476   3.894 -2.0385 -0.2041 -2.3593
   13MOL    H61 5125   7.606   5.375   3.940  1.2823 -0.4213 -1.1745
   13MOL    H62 5126   0.077   5.306   4.083  0.5635 -0.0356  1.2847
   13MOL    H63 5127   7.659   5.392   4.179  1.0925  2.0113  1.2228
   13MOL    H64 5128   0.084   5.477   4.145  1.4120  1.5380 -3.5739
   13MOL    C65 5129   7.209   5.618   4.282 -0.6579 -0.3672  0.0230
   13MOL    C66 5130   7.201   5.751   4.359 -0.1773 -0.2788  0.2343
   13MOL    C67 5131   7.295   5.863   4.324 -0.1507  0.1404  0.4431
   13MOL    C68 5132   7.452   5.838   4.335  0.0134 -0.3933 -0.3101
   13MOL    C69 5133   7.558   5.929   4.258  0.0920 -0.0007 -0.0326
   13MOL    C70 5134   7.699   5.864   4.263  0.3040 -0.4268  0.5359
   13MOL    C71 5135   0.088   5.943   4.190  0.2764 -0.0024 -0.5003
   13MOL    H72 5136   7.125   5.560   4.319 -1.0159  0.7995  1.0852
   13MOL    H73 5137   7.300   5.563   4.306 -0.5382  0.1232  0.7031
   13MOL    H74 5138   7.097   5.785   4.358  0.3666  1.4289  0.8633
   13MOL    H75 5139   7.276   5.900   4.223  1.8748  1.0234  0.3494
   13MOL    H76 5140   7.276   5.960   4.370  1.3853  0.3453  0.6839
   13MOL    H77 5141   7.471   5.840   4.442  0.6919 -2.0464 -0.3808
   13MOL    H78 5142   7.465   5.734   4.306  3.1398  0.3950 -1.9997
   13MOL    H79 5143   7.532   5.935   4.152  1.4560  1.1581 -0.3143
   13MOL    H80 5144   7.554   6.030   4.298 -1.8462 -0.1602  0.2306
   13MOL    H81 5145   7.705   5.769   4.209  0.8158 -0.9990  1.5750
   13MOL    H82 5146   0.026   5.841   4.362  0.0895 -1.9122  0.2953
   13MOL    H83 5147   0.181   5.889   4.175  0.9738  1.5454 -1.9314
   13MOL    H84 5148   0.048   5.972   4.093  1.3431  0.1779 -0.8907
   13MOL    H85 5149   0.129   6.033   4.236 -1.4273  0.2485  0.6006
   13MOL    C86 5150   7.205   5.722   4.506  0.1980 -0.3788 -0.3587
   13MOL    C87 5151   7.165   5.833   4.606 -0.4687  0.5607  0.5155
   13MOL    C88 5152   7.290   5.904   4.660  0.2194 -0.0746 -0.1747
   13MOL    C89 5153   7.288   5.984   4.793 -0.1477 -0.2540 -0.6127
   13MOL    C90 5154   7.424   6.062   4.816 -0.0592  0.1291  0.2125
   13MOL    C91 5155   7.421   6.169   4.923 -0.3384  0.0748  0.4012
   13MOL    C92 5156   7.558   6.234   4.953  0.3298 -0.2918  0.2070
   13MOL    H93 5157   7.146   5.632   4.522  0.4897 -0.1417  2.2010
   13MOL    H94 5158   7.304   5.683   4.530  0.7653  1.8431  1.0044
   13MOL    H95 5159   7.135   5.766   4.687  0.6547 -0.1648  0.3451
   13MOL    H96 5160   7.368   5.830   4.676 -1.3861 -2.2957 -2.2957
   13MOL    H97 5161   7.326   5.967   4.579  1.7000  1.1408  1.4035
   13MOL    H98 5162   7.197   6.044   4.801  0.7624  1.1059 -0.2964
   13MOL    H99 5163   7.269   5.912   4.873  1.1015 -1.0871 -1.0374
   13MOL   H100 5164   7.462   6.114   4.728 -1.5957 -1.2428 -1.2734
   13MOL   H101 5165   7.504   5.990   4.836  0.6051  0.8145  0.0675
   13MOL   H102 5166   7.339   6.237   4.903  0.5424  1.2376  0.6566
   13MOL   H103 5167   7.395   6.120   5.017 -1.2615 -1.1969 -0.5008
   13MOL   H104 5168   7.629   6.152   4.955  0.9165  0.2274  0.6215
   13MOL   H105 5169   7.565   6.293   5.044 -1.3423  0.1628  0.0646
   13MOL   H106 5170   7.584   6.302   4.872  0.3989 -0.5735 -0.0113
   13MOL   C107 5171   7.047   5.922   4.561 -0.2930  0.6689  0.5261
   13MOL   C108 5172   6.901   5.865   4.558  0.3210  0.0575 -0.5816
   13MOL   C109 5173   6.859   5.816   4.692  0.2989 -0.2481  0.0427
   13MOL   C110 5174   6.853   5.929   4.807 -0.2547  0.0355 -0.5622
   13MOL   C111 5175   6.873   5.870   4.950  0.3601 -0.0522  0.5271
   13MOL   C112 5176   6.768   5.764   4.988 -0.4806 -0.8240  0.5121
   13MOL   C113 5177   6.774   5.715   5.128 -0.3141 -0.0446  0.4410
   13MOL   H114 5178   7.073   5.962   4.463 -3.3294 -1.6934 -1.3375
   13MOL   H115 5179   7.060   6.005   4.631 -0.0809 -1.4346  3.0491
   13MOL   H116 5180   6.900   5.783   4.487  1.0165  1.4525 -2.2405
   13MOL   H117 5181   6.921   5.732   4.724 -1.0108 -0.5866  1.7776
   13MOL   H118 5182   6.762   5.769   4.681 -1.1222  2.6056 -0.2101
   13MOL   H119 5183   6.938   5.995   4.790 -0.6623  0.3866 -1.2973
   13MOL   H120 5184   6.756   5.977   4.797  0.8082  2.0821 -1.3857
   13MOL   H121 5185   6.865   5.949   5.025  1.2604 -0.9976  1.6539
   13MOL   H122 5186   6.970   5.821   4.960 -0.1921 -1.4807 -0.8294
   13MOL   H123 5187   6.668   5.798   4.961 -0.0121 -0.9813 -1.5082
   13MOL   H124 5188   6.788   5.673   4.930 -2.0595 -1.2726  0.6355
   13MOL   H125 5189   6.790   5.799   5.195 -0.7638  0.8829 -0.6040
   13MOL   H126 5190   6.682   5.664   5.159 -1.2589  2.2079  1.4155
   13MOL   H127 5191   6.862   5.654   5.149  0.2827  0.4691 -0.6033
   13MOL   C128 5192   6.817   5.974   4.492 -0.1083  0.1868  0.2093
   13MOL   C129 5193   6.671   5.935   4.451  0.7913 -0.6074 -0.0569
   13MOL   C130 5194   6.660   5.826   4.343 -0.3643  0.3938 -0.2625
   13MOL   C131 5195   6.596   5.703   4.406  0.3161 -0.2800 -0.0718
   13MOL   C132 5196   6.447   5.739   4.440  0.2980  0.1300  0.3585
   13MOL   C133 5197   6.351   5.620   4.440  0.0880 -0.4946  0.3546
   13MOL   C134 5198   6.207   5.659   4.454  0.0456  0.0278 -0.3364
   13MOL   H135 5199   6.805   6.056   4.562 -0.0810 -0.2519  0.7318
   13MOL   H136 5200   6.865   6.013   4.402 -2.7281  0.6751 -1.0184
   13MOL   H137 5201   6.630   5.894   4.543  0.2873  0.9921  0.4435
   13MOL   H138 5202   6.762   5.800   4.314 -0.7119  1.3168 -2.4327
   13MOL   H139 5203   6.616   5.866   4.252 -0.8844  2.3746  0.8342
   13MOL   H140 5204   6.651   5.671   4.494  1.1508 -0.5337 -0.6782
   13MOL   H141 5205   6.610   5.623   4.333  1.5591 -0.5305  0.4199
   13MOL   H142 5206   6.403   5.814   4.375  0.7913  0.5463  0.5051
   13MOL   H143 5207   6.439   5.781   4.541 -0.9839 -2.2725  1.3164
   13MOL   H144 5208   6.381   5.556   4.523 -0.4055  0.8293  1.5716
   13MOL   H145 5209   6.356   5.548   4.358  0.9075  1.2704 -1.1806
   13MOL   H146 5210   6.178   5.728   4.374  1.5107 -0.3321 -1.1938
   13MOL   H147 5211   6.182   5.701   4.551  1.4711 -1.1844  0.5708
   13MOL   H148 5212   6.144   5.572   4.438 -0.6955  0.9975 -2.9234
   13MOL   C149 5213   6.590   6.058   4.415 -0.1177 -0.7187  0.0728
   13MOL   C150 5214   6.543   6.159   4.518  0.2404 -0.4299 -0.4190
   13MOL   C151 5215   6.423   6.097   4.589 -1.1553 -0.2194  0.7358
   13MOL   C152 5216   6.395   6.133   4.729 -0.0309  0.3108  0.6265
   13MOL   C153 5217   6.264   6.075   4.773 -0.2909  0.1907  0.6140
   13MOL   C154 5218   6.149   6.124   4.688  0.4588  0.7688  0.3229
   13MOL   C155 5219   6.083   6.017   4.598  0.4744  0.4500 -0.1924
   13MOL   H156 5220   6.654   6.117   4.349  2.9681 -2.0385  1.7919
   13MOL   H157 5221   6.507   6.027   4.350  0.3274 -0.3310 -0.6819
   13MOL   H158 5222   6.618   6.163   4.597 -0.3554  3.3387  0.0653
   13MOL   H159 5223   6.341   6.121   4.522 -2.6222  1.5543  3.0763
   13MOL   H160 5224   6.438   5.990   4.601  0.5117 -0.4125 -2.5454
   13MOL   H161 5225   6.396   6.241   4.743 -1.9433  0.3182  0.8181
   13MOL   H162 5226   6.474   6.087   4.789  1.2508  0.8380 -0.6415
   13MOL   H163 5227   6.231   6.094   4.875 -1.3978  1.1811  0.0856
   13MOL   H164 5228   6.270   5.967   4.756  0.2415  0.2852  0.1849
   13MOL   H165 5229   6.171   6.214   4.632 -0.3082  2.8146  3.1728
   13MOL   H166 5230   6.073   6.164   4.756 -1.5552  0.4654 -1.6889
   13MOL   H167 5231   6.018   6.057   4.521  0.7390  1.2200 -0.0211
   13MOL   H168 5232   6.022   5.944   4.650  0.4063  1.3709  1.0555
   13MOL   H169 5233   6.154   5.955   4.543  0.9277 -1.4975  2.4888
   13MOL   C170 5234   6.521   6.295   4.459  0.3576  0.1097 -0.3994
   13MOL   C171 5235   6.547   6.413   4.551  0.3062 -0.0270 -0.0040
   13MOL   C172 5236   6.698   6.437   4.573 -0.2770  0.4763  0.3184
   13MOL   C173 5237   6.755   6.525   4.687 -0.0609 -0.2087 -0.0544
   13MOL   C174 5238   6.701   6.469   4.821  0.0668 -0.6884  0.2910
   13MOL   C175 5239   6.754   6.327   4.846  0.6433  0.5354 -0.1925
   13MOL   C176 5240   6.696   6.271   4.974  0.1222  0.8739 -0.0925
   13MOL   H177 5241   6.418   6.300   4.422  0.1326 -0.1008  0.1956
   13MOL   H178 5242   6.583   6.306   4.369  0.3495  0.6623 -0.3401
   13MOL   H179 5243   6.506   6.382   4.647  0.2281 -0.2500 -0.1068
   13MOL   H180 5244   6.760   6.460   4.486 -3.1966 -0.2887 -2.0359
   13MOL   H181 5245   6.735   6.336   4.595 -0.9145  0.2857  0.5102
   13MOL   H182 5246   6.730   6.629   4.669 -0.2585  0.1592  2.1488
   13MOL   H183 5247   6.864   6.522   4.689 -0.0957 -3.1676 -0.5217
   13MOL   H184 5248   6.594   6.481   4.835  0.0433 -0.4478 -0.0877
   13MOL   H185 5249   6.746   6.539   4.891  0.3704 -1.0129  0.4257
   13MOL   H186 5250   6.862   6.333   4.861  0.7407  2.4832 -1.4892
   13MOL   H187 5251   6.723   6.251   4.775  0.2877 -1.1291  1.6934
   13MOL   H188 5252   6.589   6.288   4.979  0.0632 -0.1903  3.3425
   13MOL   H189 5253   6.733   6.313   5.067 -0.4206  2.1717 -0.4557
   13MOL   H190 5254   6.695   6.162   4.977 -0.6126  0.9124  2.3923
   13MOL   C191 5255   6.485   6.536   4.479  0.0342 -0.0085  0.3532
   13MOL   C192 5256   6.425   6.640   4.578 -0.3213  0.4285  0.4574
   13MOL   C193 5257   6.448   6.787   4.517 -0.2632 -0.4924  0.5564
   13MOL   C194 5258   6.588   6.847   4.518  0.0369 -0.1758  0.2636
   13MOL   C195 5259   6.642   6.878   4.666 -0.6071  0.1154  0.7092
   13MOL   C196 5260   6.791   6.912   4.674 -0.4931  0.0855 -0.5396
   13MOL   C197 5261   6.835   6.929   4.822  0.4712  0.0208 -0.2710
   13MOL   H198 5262   6.407   6.516   4.405 -0.5671 -2.2469  1.5656
   13MOL   H199 5263   6.568   6.585   4.427 -0.0256  0.6986  0.9318
   13MOL   H200 5264   6.491   6.644   4.664  2.8581  0.1800 -1.8820
   13MOL   H201 5265   6.388   6.863   4.568  0.4565  1.1433 -0.9801
   13MOL   H202 5266   6.402   6.784   4.418  1.1587 -2.2131 -0.0800
   13MOL   H203 5267   6.582   6.945   4.470 -0.1842 -0.5835 -0.5485
   13MOL   H204 5268   6.661   6.790   4.462 -1.5845 -1.5360 -0.5013
   13MOL   H205 5269   6.596   6.969   4.705 -2.3479 -0.1570 -0.6705
   13MOL   H206 5270   6.610   6.797   4.731 -2.0297  0.8522  0.9515
   13MOL   H207 5271   6.803   7.007   4.621  0.8320  0.5272  0.5233
   13MOL   H208 5272   6.845   6.834   4.620 -0.0888 -1.2394  1.7143
   13MOL   H209 5273   6.943   6.941   4.815  0.2922  1.9889 -0.0221
   13MOL   H210 5274   6.824   6.842   4.886  1.8407  0.0077 -0.0499
   13MOL   H211 5275   6.784   7.012   4.872  0.6062  1.0927 -1.8732
   13MOL   C212 5276   6.276   6.608   4.615 -0.6762 -0.0503 -0.1138
   13MOL   C213 5277   6.237   6.650   4.757  0.1675 -0.2230  0.2121
   13MOL   C214 5278   6.084   6.679   4.777 -0.1756  0.1252  0.5459
   13MOL   C215 5279   6.034   6.784   4.679 -0.3768 -0.1996  0.5600
   13MOL   C216 5280   5.902   6.860   4.719 -0.0529 -0.0426 -0.3776
   13MOL   C217 5281   5.840   6.919   4.596 -0.2742  0.8782  1.3728
   13MOL   C218 5282   5.783   6.815   4.489  0.0850 -0.1834  0.4402
   13MOL   H219 5283   6.250   6.503   4.598 -1.3993  0.1512 -0.2964
   13MOL   H220 5284   6.216   6.653   4.535 -1.0109  0.8756  0.6525
   13MOL   H221 5285   6.300   6.737   4.772 -0.6331  0.4323 -0.2151
   13MOL   H222 5286   6.036   6.581   4.767 -0.5347  0.5086 -1.6442
   13MOL   H223 5287   6.065   6.721   4.876 -0.0712  0.8441  0.2568
   13MOL   H224 5288   6.022   6.733   4.584  0.9584 -1.5206  1.0692
   13MOL   H225 5289   6.116   6.855   4.667 -0.4662 -0.3128 -0.7311
   13MOL   H226 5290   5.836   6.784   4.762  2.1960 -2.9345 -1.8698
   13MOL   H227 5291   5.912   6.941   4.792  1.4797  0.5352 -1.2223
   13MOL   H228 5292   5.746   6.971   4.611 -1.3921 -0.0403 -1.9089
   13MOL   H229 5293   5.905   6.996   4.554  0.3733 -0.6299 -0.4605
   13MOL   H230 5294   5.861   6.754   4.444 -0.5613 -0.7571  0.0945
   13MOL   H231 5295   5.738   6.864   4.403 -0.5753 -0.9531  0.3393
   13MOL   H232 5296   5.706   6.752   4.534 -0.7426 -0.4826 -1.3503
   13MOL   C233 5297   6.287   6.540   4.855 -0.3311 -0.0667  0.1367
   13MOL   C234 5298   6.316   6.587   5.001  0.0226 -0.3851 -0.1905
   13MOL   C235 5299   6.316   6.469   5.098 -0.4551 -0.7329 -0.0095
   13MOL   C236 5300   6.184   6.401   5.135  0.4378 -0.6180  0.0171
   13MOL   C237 5301   6.102   6.477   5.231  0.2068  0.1312  0.1048
   13MOL   C238 5302   5.967   6.420   5.276  0.0977 -0.6566  0.4089
   13MOL   C239 5303   5.865   6.447   5.160 -0.0840 -0.4526  0.1135
   13MOL   H240 5304   6.381   6.508   4.810  0.0944  1.3915 -0.0457
   13MOL   H241 5305   6.219   6.455   4.847 -0.0734 -0.2742  0.1834
   13MOL   H242 5306   6.229   6.640   5.039  0.0896  0.3440 -1.0263
   13MOL   H243 5307   6.333   6.519   5.193  1.0554 -0.1884 -0.5567
   13MOL   H244 5308   6.393   6.398   5.070  0.2251  0.7823 -2.1416
   13MOL   H245 5309   6.200   6.298   5.166  1.2921 -0.9498 -1.4973
   13MOL   H246 5310   6.126   6.390   5.043 -0.7223 -0.2781  0.6950
   13MOL   H247 5311   6.078   6.577   5.194  0.8856 -0.6843 -2.6136
   13MOL   H248 5312   6.164   6.494   5.319 -0.4280 -0.9911  0.7706
   13MOL   H249 5313   5.972   6.318   5.315  1.1588 -1.4443 -1.7141
   13MOL   H250 5314   5.937   6.489   5.355 -0.7957 -0.3572 -0.1914
   13MOL   H251 5315   5.879   6.551   5.131  3.8989 -1.4897 -1.9741
   13MOL   H252 5316   5.878   6.378   5.077 -0.9137  0.9802 -1.2324
   13MOL   H253 5317   5.762   6.429   5.190  0.2532 -1.0890  0.9266
   13MOL   C254 5318   6.448   6.664   5.007 -0.0178 -0.1656  0.0892
   13MOL   C255 5319   6.458   6.765   5.123 -0.6114  0.4909  0.4056
   13MOL   C256 5320   6.372   6.886   5.089 -0.3394  0.2654 -0.5914
   13MOL   C257 5321   6.339   6.977   5.211  0.1190  0.4117  0.6813
   13MOL   C258 5322   6.228   7.065   5.177 -0.1110 -0.6418 -0.2272
   13MOL   C259 5323   6.201   7.168   5.281  0.1580  0.9597 -0.5959
   13MOL   C260 5324   6.103   7.261   5.232 -0.3482  0.2498  0.3358
   13MOL   H261 5325   6.461   6.724   4.917  0.8467 -0.9813 -0.3391
   13MOL   H262 5326   6.531   6.594   5.018 -0.1390 -0.0959  1.5450
   13MOL   H263 5327   6.423   6.714   5.213  0.6769 -1.7126 -0.2925
   13MOL   H264 5328   6.277   6.843   5.057 -0.9961  0.2844  1.3029
   13MOL   H265 5329   6.412   6.946   5.007 -1.6207  1.5309 -0.2973
   13MOL   H266 5330   6.308   6.920   5.299  1.6953  0.9964  1.6506
   13MOL   H267 5331   6.436   7.018   5.241  0.3950 -0.1076  0.5099
   13MOL   H268 5332   6.140   7.000   5.165  1.0827 -2.8342  2.2861
   13MOL   H269 5333   6.248   7.115   5.083  0.9432  1.1218  0.9105
   13MOL   H270 5334   6.143   7.121   5.361 -2.1719  1.4293 -1.9477
   13MOL   H271 5335   6.287   7.223   5.318 -2.0170  2.7294  2.0392
   13MOL   H272 5336   6.007   7.220   5.199 -0.5943 -1.0574  2.6144
   13MOL   H273 5337   6.073   7.332   5.309 -0.4990  2.4257 -1.6669
   13MOL   H274 5338   6.139   7.331   5.156  1.2385  1.4687  2.1843
   13MOL   C275 5339   6.603   6.803   5.157  0.5713  0.0670  0.4392
   13MOL   C276 5340   6.651   6.748   5.292  0.2726 -0.0166  0.5698
   13MOL   C277 5341   6.776   6.819   5.355 -0.3848 -0.4813  0.2079
   13MOL   C278 5342   6.907   6.809   5.271  0.2044 -0.2241  0.1671
   13MOL   C279 5343   7.010   6.898   5.333 -0.1512 -0.3709  0.1290
   13MOL   C280 5344   7.137   6.895   5.256 -0.4312  0.6472  0.6803
   13MOL   C281 5345   7.257   6.960   5.331 -0.8808  0.2080 -0.4034
   13MOL   H282 5346   6.616   6.911   5.169 -0.5072  0.1949  0.4912
   13MOL   H283 5347   6.679   6.779   5.083 -0.8325 -2.3136 -0.2880
   13MOL   H284 5348   6.572   6.767   5.365  1.9379  0.5880  2.2709
   13MOL   H285 5349   6.753   6.925   5.358  0.7520 -0.2595  1.3931
   13MOL   H286 5350   6.782   6.784   5.458 -2.0771 -2.7204 -0.4003
   13MOL   H287 5351   6.885   6.839   5.169  0.4489 -0.3925  0.0673
   13MOL   H288 5352   6.944   6.709   5.291  1.5692  0.6214  2.0795
   13MOL   H289 5353   7.032   6.851   5.430 -0.2756  0.9119  0.7912
   13MOL   H290 5354   6.976   6.998   5.358  0.3979 -0.0958 -0.2253
   13MOL   H291 5355   7.154   6.788   5.246  2.0101  0.9629  1.1147
   13MOL   H292 5356   7.118   6.949   5.163  2.1486 -0.3760 -0.4902
   13MOL   H293 5357   7.234   7.067   5.338  0.1087  0.4535 -0.7624
   13MOL   H294 5358   7.347   6.958   5.269 -0.1644 -0.3044  0.6299
   13MOL   H295 5359   7.276   6.919   5.430  0.4792  0.6821 -0.4484
   13MOL   C296 5360   6.662   6.594   5.278 -0.4856  0.5962 -0.3858
   13MOL   C297 5361   6.705   6.507   5.401  0.0725 -0.6355  0.1136
   13MOL   C298 5362   6.715   6.359   5.356 -0.6611 -0.2247  0.1167
   13MOL   C299 5363   6.578   6.288   5.326 -0.2132  0.5585  0.1374
   13MOL   C300 5364   6.600   6.136   5.300  0.1550 -0.4637  0.7657
   13MOL   C301 5365   6.478   6.081   5.224  0.6116  0.2802 -0.2299
   13MOL   C302 5366   6.481   5.931   5.241 -0.0296  0.2324 -0.2020
   13MOL   H303 5367   6.563   6.555   5.257 -0.0019 -1.3171  0.7062
   13MOL   H304 5368   6.731   6.576   5.196 -0.4923  1.8181 -0.6667
   13MOL   H305 5369   6.801   6.548   5.431  0.0316 -1.0602  0.8599
   13MOL   H306 5370   6.777   6.348   5.267 -2.5355 -1.6882 -1.0467
   13MOL   H307 5371   6.766   6.300   5.432 -0.0881 -1.8266 -1.4893
   13MOL   H308 5372   6.531   6.336   5.240 -1.2413 -0.7790 -0.0676
   13MOL   H309 5373   6.495   6.302   5.396  1.2855  1.3949  1.7626
   13MOL   H310 5374   6.634   6.080   5.388  3.5040 -0.7184 -0.6199
   13MOL   H311 5375   6.682   6.126   5.229  0.0009  0.5191  0.4468
   13MOL   H312 5376   6.386   6.116   5.271  0.3741  0.8785 -1.1338
   13MOL   H313 5377   6.474   6.111   5.119  0.0746 -2.3610 -1.0169
   13MOL   H314 5378   6.413   5.898   5.163  0.3695 -2.1748  0.4330
   13MOL   H315 5379   6.568   5.881   5.201  0.4149  0.5760  0.3265
   13MOL   H316 5380   6.468   5.877   5.335  3.2858  1.1454  0.8338
   13MOL   C317 5381   6.606   6.527   5.520  0.3642 -0.1965 -0.4363
   13MOL   C318 5382   6.619   6.436   5.642  0.4035 -0.2626  0.6460
   13MOL   C319 5383   6.759   6.427   5.696 -0.6113 -0.2162  0.2606
   13MOL   C320 5384   6.814   6.286   5.730 -0.4822 -0.5525  0.2445
   13MOL   C321 5385   6.957   6.294   5.780  0.1657  0.1989  0.0553
   13MOL   C322 5386   7.034   6.160   5.786 -0.6642  0.0827 -0.0039
   13MOL   C323 5387   7.179   6.179   5.744  0.3366  0.0833  0.3402
   13MOL   H324 5388   6.502   6.519   5.488 -0.0613 -0.9381  1.1147
   13MOL   H325 5389   6.619   6.633   5.541  0.6497  0.0160 -1.6426
   13MOL   H326 5390   6.589   6.337   5.608  1.0120  0.0650 -0.8473
   13MOL   H327 5391   6.773   6.493   5.782 -1.6080 -0.4089  0.5757
   13MOL   H328 5392   6.834   6.466   5.627 -1.9772  0.3307 -0.9402
   13MOL   H329 5393   6.832   6.235   5.635 -0.0810 -1.1286  0.6277
   13MOL   H330 5394   6.747   6.231   5.796  0.1478  1.2952  2.5139
   13MOL   H331 5395   6.952   6.336   5.880 -1.5513  0.3290 -0.0738
   13MOL   H332 5396   7.014   6.365   5.720  1.3287 -2.1630 -1.7490
   13MOL   H333 5397   6.989   6.086   5.718 -0.6305  0.2473 -0.2070
   13MOL   H334 5398   7.019   6.124   5.887 -0.9705  0.5634  0.1221
   13MOL   H335 5399   7.245   6.236   5.810  0.9279 -0.7132  0.4445
   13MOL   H336 5400   7.184   6.221   5.644  2.0600 -1.7939 -0.3966
   13MOL   H337 5401   7.227   6.082   5.751 -0.2092 -0.0527  2.4909
   13MOL   C338 5402   6.515   6.474   5.751  0.2740  0.3641  0.3267
   13MOL   C339 5403   6.464   6.363   5.841 -0.1642  1.7074 -0.6626
   13MOL   C340 5404   6.378   6.247   5.781  0.5246 -0.1219  0.2279
   13MOL   C341 5405   6.265   6.293   5.690  0.8623 -0.0760 -0.5437
   13MOL   C342 5406   6.164   6.183   5.661  0.5710  0.3184 -0.0866
   13MOL   C343 5407   6.062   6.223   5.560 -0.2315  0.3355 -0.0477
   13MOL   C344 5408   5.957   6.119   5.532  0.6046 -0.3828  0.5904
   13MOL   H345 5409   6.436   6.531   5.703  0.0984 -0.4372 -0.3509
   13MOL   H346 5410   6.564   6.545   5.818  1.0858  0.3040 -0.1994
   13MOL   H347 5411   6.550   6.305   5.875 -0.9522  1.4974  1.0078
   13MOL   H348 5412   6.451   6.182   5.732  0.0266 -1.9791  1.8514
   13MOL   H349 5413   6.340   6.192   5.867  1.6884 -2.0096 -0.4247
   13MOL   H350 5414   6.298   6.336   5.595 -0.8151  1.4540 -0.4573
   13MOL   H351 5415   6.209   6.372   5.738  1.2856  0.0059 -0.1789
   13MOL   H352 5416   6.226   6.098   5.634  1.1097  0.7341 -0.1682
   13MOL   H353 5417   6.119   6.149   5.754  1.8396 -2.3318 -0.3995
   13MOL   H354 5418   6.019   6.311   5.608  2.0344  1.0452  0.7888
   13MOL   H355 5419   6.114   6.259   5.471  0.4032 -0.7094 -0.1061
   13MOL   H356 5420   5.915   6.069   5.619 -0.6157  0.9514  0.7988
   13MOL   H357 5421   5.997   6.041   5.467 -0.0326  0.5662 -0.9798
   13MOL   H358 5422   5.865   6.156   5.485 -0.8401 -1.1752  2.7335
   13MOL   C359 5423   6.397   6.422   5.975 -0.5251 -0.8232 -0.2219
   13MOL   C360 5424   6.491   6.405   6.098 -0.0422  0.3664 -0.1012
   13MOL   C361 5425   6.615   6.500   6.094 -0.2575  0.3716  0.0656
   13MOL   C362 5426   6.728   6.459   6.201 -0.1671 -0.1809 -0.3448
   13MOL   C363 5427   6.788   6.322   6.190  0.4825  0.3770 -0.5653
   13MOL   C364 5428   6.881   6.293   6.305  0.7001 -0.1152 -0.0264
   13MOL   C365 5429   6.937   6.148   6.282 -0.4250  0.0286 -0.5770
   13MOL   H366 5430   6.306   6.372   6.006 -0.8555 -0.0033  0.1450
   13MOL   H367 5431   6.370   6.528   5.976  1.3111 -0.3319  0.3377
   13MOL   H368 5432   6.530   6.304   6.088  0.1505  0.4584 -0.2733
   13MOL   H369 5433   6.659   6.523   5.997  0.5684 -0.3225  0.2703
   13MOL   H370 5434   6.582   6.601   6.120 -0.2479  0.2341  0.6250
   13MOL   H371 5435   6.805   6.537   6.196  1.3075 -1.5719  0.1504
   13MOL   H372 5436   6.687   6.474   6.301 -0.8916 -1.3008 -0.4643
   13MOL   H373 5437   6.705   6.252   6.180  0.2093  0.7300 -0.7871
   13MOL   H374 5438   6.849   6.317   6.100  3.0376 -1.0599  1.1651
   13MOL   H375 5439   6.963   6.361   6.283  1.4726 -1.1338 -0.3623
   13MOL   H376 5440   6.833   6.302   6.402  0.5134 -2.5102  0.1389
   13MOL   H377 5441   7.005   6.122   6.363  0.3403 -0.3197 -1.3248
   13MOL   H378 5442   6.862   6.070   6.263  1.0822 -1.4925 -0.4456
   13MOL   H379 5443   6.993   6.153   6.188  0.5680  1.1985  0.0661
   13MOL   C380 5444   6.416   6.400   6.233  0.1535 -0.3074  0.0874
   13MOL   C381 5445   6.332   6.272   6.260  0.5873  0.0927 -0.4272
   13MOL   C382 5446   6.399   6.131   6.274  0.4658 -0.2374 -0.0495
   13MOL   C383 5447   6.499   6.127   6.392 -0.0510  0.4790  0.1154
   13MOL   C384 5448   6.547   5.985   6.414 -0.7572 -0.3475 -0.2072
   13MOL   C385 5449   6.612   5.972   6.555 -0.0573 -0.0378 -0.3698
   13MOL   C386 5450   6.509   5.958   6.667  0.3445  0.1402  0.0206
   13MOL   H387 5451   6.485   6.401   6.318  2.8254 -2.9378 -1.9247
   13MOL   H388 5452   6.358   6.491   6.240  1.1857  0.4433 -1.0271
   13MOL   H389 5453   6.271   6.263   6.170  0.2839 -1.4004 -0.0938
   13MOL   H390 5454   6.458   6.119   6.183 -0.7617 -0.1587 -0.8665
   13MOL   H391 5455   6.336   6.042   6.271  1.1532 -0.8019  1.7553
   13MOL   H392 5456   6.582   6.195   6.370 -0.3064  1.1479  1.1891
   13MOL   H393 5457   6.438   6.154   6.478 -1.7067 -1.7263 -0.3296
   13MOL   H394 5458   6.471   5.907   6.408 -0.9743 -0.3282  1.8937
   13MOL   H395 5459   6.613   5.949   6.335  0.5450 -0.1282  0.7763
   13MOL   H396 5460   6.679   6.058   6.564  1.4447 -1.3561  1.5403
   13MOL   H397 5461   6.678   5.885   6.556 -1.0088 -0.7681  0.8394
   13MOL   H398 5462   6.450   5.867   6.664 -0.6639  0.7984 -0.3295
   13MOL   H399 5463   6.446   6.047   6.666  0.9916  0.6061 -1.0642
   13MOL   H400 5464   6.567   5.958   6.760  0.9175 -0.3660 -0.3352
   13MOL   C401 5465   6.218   6.300   6.371  0.6509  0.4827  0.0678
   13MOL   C402 5466   6.112   6.187   6.389  0.0880 -0.7301  0.5532
   13MOL   C403 5467   6.129   6.116   6.515  0.1813  0.1839 -0.1304
   13MOL   C404 5468   6.019   6.005   6.552 -0.0910  0.2756  0.6387
   13MOL   C405 5469   6.027   5.961   6.699  0.2583 -0.6070  0.4032
   13MOL   C406 5470   5.931   5.839   6.734  0.1034  0.1748  0.6865
   13MOL   C407 5471   5.948   5.789   6.872 -0.1471  0.8634 -0.3735
   13MOL   H408 5472   6.171   6.397   6.357  0.2517 -0.0423 -2.3343
   13MOL   H409 5473   6.256   6.319   6.472 -1.3752  0.8702  0.7922
   13MOL   H410 5474   6.106   6.122   6.302 -0.4346  0.3167 -0.1945
   13MOL   H411 5475   6.111   6.193   6.589  0.2916 -0.2958  0.3968
   13MOL   H412 5476   6.221   6.069   6.548 -0.5240 -1.2486 -0.1654
   13MOL   H413 5477   6.038   5.919   6.487 -1.4286  1.7249 -1.7427
   13MOL   H414 5478   5.915   6.026   6.527 -0.1754 -0.8441 -0.0193
   13MOL   H415 5479   6.133   5.943   6.717  0.1624 -1.1117  0.4761
   13MOL   H416 5480   6.001   6.049   6.758 -0.3733 -0.6644  0.2118
   13MOL   H417 5481   5.833   5.880   6.710  0.2613  1.2890  1.8979
   13MOL   H418 5482   5.947   5.760   6.661 -2.8569 -0.2612  0.4640
   13MOL   H419 5483   6.049   5.748   6.878  0.3851  2.2318  0.2355
   13MOL   H420 5484   5.880   5.705   6.879  1.2688 -0.2538  0.2199
   13MOL   H421 5485   5.923   5.872   6.938 -1.7259 -0.2755  0.4935
   13MOL   H422 5486   6.014   6.236   6.393  1.3964  2.3195 -2.3803
   14MOL     C1 5487   0.445   6.320   0.380 -0.4528 -0.5663 -0.2312
   14MOL     C2 5488   0.559   6.283   0.465  0.3748 -0.3624  0.8690
   14MOL     C3 5489   0.518   6.315   0.617  0.3267 -0.0375  0.3437
   14MOL     C4 5490   0.401   6.229   0.670 -0.4892 -0.0882  0.1837
   14MOL     C5 5491   0.384   6.234   0.822 -1.2763  0.0365  0.3128
   14MOL     C6 5492   0.258   6.149   0.856 -0.0665  0.5011  0.0472
   14MOL     C7 5493   0.244   6.128   1.013  0.2400 -0.2558 -0.1891
   14MOL     H8 5494   0.475   6.329   0.276  1.2888 -3.4892 -0.0271
   14MOL     H9 5495   0.403   6.419   0.394  2.5477  0.7827 -0.3443
   14MOL    H10 5496   0.556   6.174   0.454 -0.2541 -0.0762 -2.3042
   14MOL    H11 5497   0.600   6.275   0.676  1.8970  0.3435 -1.5387
   14MOL    H12 5498   0.511   6.422   0.634  1.0164  0.7100 -3.7498
   14MOL    H13 5499   0.317   6.274   0.618 -1.1515  0.2140  1.5068
   14MOL    H14 5500   0.403   6.126   0.635  1.0454 -0.1047  0.2717
   14MOL    H15 5501   0.370   6.335   0.860  0.0730  0.4837 -0.3527
   14MOL    H16 5502   0.478   6.203   0.868 -0.7688  1.6680  0.4013
   14MOL    H17 5503   0.271   6.049   0.816 -0.3525  0.3840  0.2456
   14MOL    H18 5504   0.168   6.192   0.812 -0.5776  1.8069  2.2502
   14MOL    H19 5505   0.152   6.073   1.033 -0.2704  1.1952  1.5931
   14MOL    H20 5506   0.225   6.225   1.058 -0.4468 -0.1698 -0.6567
   14MOL    H21 5507   0.330   6.077   1.057  2.3202  2.4165 -0.9938
   14MOL    H22 5508   0.360   6.252   0.387 -0.4031 -0.4899  1.3984
   14MOL    C23 5509   0.698   6.355   0.416  0.4194  0.1459 -0.0081
   14MOL    C24 5510   0.825   6.307   0.494  0.3146  0.6144  0.0940
   14MOL    C25 5511   0.962   6.362   0.431 -0.2216  0.7135  0.1726
   14MOL    C26 5512   0.973   6.515   0.446  0.4266  0.1850 -0.2931
   14MOL    C27 5513   1.080   6.573   0.352 -0.3803 -0.7878  0.5547
   14MOL    C28 5514   1.099   6.725   0.374  0.1729  0.3980 -0.7179
   14MOL    C29 5515   1.184   6.788   0.266 -1.0226 -0.6407  0.1476
   14MOL    H30 5516   0.706   6.333   0.309  2.0243  0.2211  0.0944
   14MOL    H31 5517   0.694   6.464   0.420 -1.1424  0.0806  0.8074
   14MOL    H32 5518   0.813   6.340   0.598 -0.2227 -0.4400  0.3778
   14MOL    H33 5519   0.970   6.330   0.327 -1.8858  1.5342 -0.2257
   14MOL    H34 5520   1.052   6.326   0.481 -1.5468 -1.2929  1.2029
   14MOL    H35 5521   0.999   6.541   0.548 -0.6853 -1.6787  0.4885
   14MOL    H36 5522   0.880   6.563   0.416 -0.4291 -1.8171 -0.9323
   14MOL    H37 5523   1.057   6.553   0.248 -1.1221 -1.0785  0.7711
   14MOL    H38 5524   1.180   6.531   0.366 -0.0669  0.4147  2.0550
   14MOL    H39 5525   1.137   6.734   0.475  3.3675  2.3171 -2.0048
   14MOL    H40 5526   1.000   6.771   0.383 -0.0788 -0.1874 -0.5231
   14MOL    H41 5527   1.204   6.894   0.280  2.1849 -1.0500 -1.0020
   14MOL    H42 5528   1.283   6.744   0.268  0.3712  2.3162 -0.7997
   14MOL    H43 5529   1.157   6.780   0.161  1.5635  1.4512 -0.7385
   14MOL    C44 5530   0.844   6.154   0.498  0.2599  0.1943  0.2587
   14MOL    C45 5531   0.934   6.112   0.621  0.3145  0.0715  0.0088
   14MOL    C46 5532   0.882   6.142   0.764  0.1736 -0.2364 -0.1721
   14MOL    C47 5533   0.804   6.029   0.826 -0.2832 -0.3558  0.0873
   14MOL    C48 5534   0.743   6.071   0.960 -0.0906  0.2019  0.0414
   14MOL    C49 5535   0.711   5.952   1.053 -0.5786  0.1160  0.3881
   14MOL    C50 5536   0.615   5.844   0.991 -1.1464  0.3965  0.8130
   14MOL    H51 5537   0.886   6.119   0.404  0.3881  2.0266 -0.3876
   14MOL    H52 5538   0.746   6.108   0.507  0.0237  0.5894 -0.2817
   14MOL    H53 5539   1.028   6.167   0.623  0.6366 -0.4849  0.6037
   14MOL    H54 5540   0.818   6.228   0.780  0.8994  0.4516 -0.9617
   14MOL    H55 5541   0.974   6.159   0.821  1.4698 -0.2194 -2.2406
   14MOL    H56 5542   0.723   5.997   0.760  1.5687 -1.4773 -1.7231
   14MOL    H57 5543   0.876   5.948   0.838  0.6720  0.5077  0.2481
   14MOL    H58 5544   0.654   6.132   0.944 -1.2498 -1.6954 -0.9711
   14MOL    H59 5545   0.811   6.125   1.026 -0.3995 -0.8619  1.2524
   14MOL    H60 5546   0.659   6.000   1.137 -3.3470 -1.1021 -0.5904
   14MOL    H61 5547   0.799   5.907   1.099  0.7214  0.0537 -2.0892
   14MOL    H62 5548   0.657   5.785   0.909 -0.0255  1.2152  0.7838
   14MOL    H63 5549   0.519   5.883   0.957 -1.0881 -0.5205 -0.4190
   14MOL    H64 5550   0.602   5.753   1.051 -2.8648 -1.6006 -2.4381
   14MOL    C65 5551   0.978   5.962   0.597 -0.3002 -0.1029 -0.0120
   14MOL    C66 5552   1.103   5.921   0.680  0.0460 -0.4020  0.0829
   14MOL    C67 5553   1.232   5.998   0.635 -0.4184  0.2764  0.1328
   14MOL    C68 5554   1.299   6.080   0.745 -0.7748  0.6988  0.3713
   14MOL    C69 5555   1.444   6.094   0.709  0.4996  0.3252 -0.0964
   14MOL    C70 5556   1.460   6.225   0.639 -0.4194 -0.9410 -0.6062
   14MOL    C71 5557   1.604   6.284   0.645  0.0604 -0.1959  0.1052
   14MOL    H72 5558   0.901   5.885   0.605  2.1616 -2.4863  1.6534
   14MOL    H73 5559   0.995   5.948   0.491 -0.5829  2.1119 -0.3695
   14MOL    H74 5560   1.084   5.939   0.786 -2.4278  0.0470 -0.4126
   14MOL    H75 5561   1.297   5.930   0.580  0.4317  0.6592  0.6606
   14MOL    H76 5562   1.206   6.073   0.560  0.0159  1.7954  1.4946
   14MOL    H77 5563   1.249   6.175   0.763 -1.0294  0.6751 -0.2005
   14MOL    H78 5564   1.305   6.016   0.833  1.9774  2.5387  1.5921
   14MOL    H79 5565   1.512   6.089   0.794 -1.3987  1.1056  1.4955
   14MOL    H80 5566   1.493   6.018   0.648  1.2107 -0.9351  2.0218
   14MOL    H81 5567   1.399   6.306   0.681 -0.4177 -1.7542  1.0251
   14MOL    H82 5568   1.432   6.206   0.536 -0.9025  0.4951 -0.7519
   14MOL    H83 5569   1.672   6.218   0.591 -0.0488 -0.7460  0.6389
   14MOL    H84 5570   1.600   6.384   0.601  0.8181  0.5615  1.7267
   14MOL    H85 5571   1.636   6.282   0.749  0.3109  0.5361  0.0476
   14MOL    C86 5572   1.115   5.764   0.662 -0.2539  0.4069  0.3117
   14MOL    C87 5573   1.229   5.693   0.742 -0.0170  0.2120 -0.1515
   14MOL    C88 5574   1.203   5.703   0.894  0.2638  0.3829  0.0179
   14MOL    C89 5575   1.059   5.639   0.948  0.3444  0.4119  0.7029
   14MOL    C90 5576   1.033   5.658   1.096 -0.4053  0.0350  0.6265
   14MOL    C91 5577   0.904   5.594   1.152 -0.0810 -0.2688  0.9761
   14MOL    C92 5578   0.890   5.617   1.297  0.7124  0.4485 -0.5949
   14MOL    H93 5579   1.022   5.710   0.681 -0.3121  0.4664  0.1985
   14MOL    H94 5580   1.135   5.735   0.559 -1.8483 -0.7789  0.3199
   14MOL    H95 5581   1.319   5.754   0.739 -0.5661  1.1355  1.5970
   14MOL    H96 5582   1.294   5.655   0.929  0.3051  1.3922  1.3185
   14MOL    H97 5583   1.197   5.808   0.922 -2.8072  0.6257 -1.3019
   14MOL    H98 5584   0.981   5.683   0.886  0.7022 -0.7407 -0.5913
   14MOL    H99 5585   1.062   5.531   0.934 -1.5744  0.3337  0.7582
   14MOL   H100 5586   1.021   5.766   1.106 -1.5102 -0.0001 -0.2805
   14MOL   H101 5587   1.116   5.622   1.156 -1.4519 -1.9687  0.9070
   14MOL   H102 5588   0.817   5.634   1.100 -0.2536 -2.8080 -0.7512
   14MOL   H103 5589   0.915   5.488   1.128 -0.7919 -0.4112  1.2709
   14MOL   H104 5590   0.977   5.572   1.345  0.4528 -1.5926 -1.9806
   14MOL   H105 5591   0.806   5.582   1.358  0.8913  0.7021 -0.1956
   14MOL   H106 5592   0.883   5.726   1.304 -0.5636  0.2917  0.9413
   14MOL   C107 5593   1.274   5.553   0.690  0.1642  0.7447 -0.1970
   14MOL   C108 5594   1.347   5.550   0.556  0.5574  0.3157  0.7140
   14MOL   C109 5595   1.484   5.603   0.556 -0.4063 -0.3845  1.1242
   14MOL   C110 5596   1.595   5.529   0.629 -0.3880 -0.1619 -0.2799
   14MOL   C111 5597   1.732   5.601   0.623 -1.0731  0.2029  0.0335
   14MOL   C112 5598   1.840   5.517   0.686 -0.4982  0.1348 -0.1546
   14MOL   C113 5599   1.969   5.596   0.679 -0.0482 -0.2081 -0.3859
   14MOL   H114 5600   1.191   5.483   0.691  0.7945  0.0044  2.1258
   14MOL   H115 5601   1.342   5.511   0.764  0.0898  1.7878  0.4782
   14MOL   H116 5602   1.288   5.621   0.499 -0.1428  1.8393  3.2294
   14MOL   H117 5603   1.476   5.699   0.607 -2.2946  0.4983 -0.7769
   14MOL   H118 5604   1.507   5.621   0.451  0.8774 -1.3885  1.2192
   14MOL   H119 5605   1.564   5.533   0.733  1.9176  0.1290  0.4177
   14MOL   H120 5606   1.605   5.421   0.615 -1.1042 -0.2589 -0.0592
   14MOL   H121 5607   1.732   5.699   0.670  1.5181  0.6414 -0.8457
   14MOL   H122 5608   1.753   5.624   0.519  0.7948  0.1885  0.3933
   14MOL   H123 5609   1.811   5.492   0.788  2.0096  0.1909  0.6037
   14MOL   H124 5610   1.871   5.427   0.633  1.6946  0.1388  1.0666
   14MOL   H125 5611   2.033   5.533   0.741 -1.6404 -1.7968 -0.3061
   14MOL   H126 5612   2.009   5.602   0.577 -2.9984  0.5411 -1.5544
   14MOL   H127 5613   1.977   5.690   0.734 -0.8724 -0.3670  0.0040
   14MOL   C128 5614   1.334   5.418   0.481  0.0966  0.3150  0.2613
   14MOL   C129 5615   1.190   5.384   0.432  0.6392 -0.2873  0.5502
   14MOL   C130 5616   1.171   5.228   0.435  0.0746 -0.0171 -0.3144
   14MOL   C131 5617   1.111   5.183   0.568 -0.3204 -1.6352 -0.9754
   14MOL   C132 5618   1.086   5.031   0.588 -0.8153  0.1704  0.4932
   14MOL   C133 5619   1.038   5.004   0.730  1.0625  0.2663  0.0179
   14MOL   C134 5620   1.125   4.905   0.810 -0.4941  0.4427  0.0385
   14MOL   H135 5621   1.406   5.404   0.401  0.8091  1.3124  0.7131
   14MOL   H136 5622   1.367   5.339   0.549 -3.7424  0.5087  2.4998
   14MOL   H137 5623   1.115   5.425   0.500 -0.7899 -0.1689 -1.0713
   14MOL   H138 5624   1.266   5.179   0.415  0.5660  0.0139  1.7897
   14MOL   H139 5625   1.110   5.191   0.352  0.4924 -0.5728 -0.3754
   14MOL   H140 5626   1.020   5.236   0.598 -2.1151 -4.7302 -0.7323
   14MOL   H141 5627   1.181   5.206   0.648 -2.0155 -0.8636  0.3161
   14MOL   H142 5628   1.179   4.980   0.562  0.4203  1.0339  3.0075
   14MOL   H143 5629   1.014   4.987   0.519  0.1595 -0.9451  0.1491
   14MOL   H144 5630   0.945   4.947   0.730  1.7829 -0.9702  1.7218
   14MOL   H145 5631   1.020   5.096   0.785  0.4010  1.7523 -2.6011
   14MOL   H146 5632   1.075   4.900   0.907 -1.6308 -0.1294 -0.5674
   14MOL   H147 5633   1.228   4.940   0.814  0.5091 -2.2268 -1.1776
   14MOL   H148 5634   1.120   4.803   0.771  0.5319  0.1534  0.6291
   14MOL   C149 5635   1.151   5.446   0.299  0.9781  0.1363  0.1655
   14MOL   C150 5636   0.995   5.444   0.276 -0.0140 -0.0514  0.3282
   14MOL   C151 5637   0.962   5.438   0.129 -0.0162 -0.1294 -0.2317
   14MOL   C152 5638   0.931   5.294   0.095 -0.7789 -0.6135 -0.4291
   14MOL   C153 5639   0.880   5.271   7.665 -0.2103 -0.0910  0.9829
   14MOL   C154 5640   0.993   5.270   7.564 -0.4135 -0.6036  0.6137
   14MOL   C155 5641   1.053   5.134   7.560 -0.0225 -0.1094 -0.2158
   14MOL   H156 5642   1.182   5.550   0.293 -2.5054  1.2252 -0.0725
   14MOL   H157 5643   1.201   5.389   0.221  1.1199  2.3304 -1.4244
   14MOL   H158 5644   0.959   5.354   0.326  1.3295  0.3200  2.0043
   14MOL   H159 5645   0.878   5.501   0.101 -0.9682 -1.1712  0.2381
   14MOL   H160 5646   1.040   5.487   0.071 -1.5391  1.0439 -1.3558
   14MOL   H161 5647   0.851   5.261   0.161 -1.0797  3.0067  1.1257
   14MOL   H162 5648   1.016   5.228   0.112 -0.3816  0.0948  0.3579
   14MOL   H163 5649   0.800   5.337   7.631  2.1452  2.2258 -0.1917
   14MOL   H164 5650   0.825   5.177   7.670 -1.0375  0.2573 -1.1182
   14MOL   H165 5651   1.074   5.336   7.597  0.9439 -2.6720  1.5385
   14MOL   H166 5652   0.966   5.302   7.464 -0.5484  0.2501  0.9164
   14MOL   H167 5653   1.072   5.087   7.657 -2.5146 -0.4455  0.1640
   14MOL   H168 5654   1.154   5.132   7.520  0.0010 -2.4590 -0.1158
   14MOL   H169 5655   0.991   5.068   7.499 -2.6415  0.8514  1.3014
   14MOL   C170 5656   0.929   5.562   0.346  0.1052 -0.5139 -0.3082
   14MOL   C171 5657   0.776   5.586   0.327 -0.0175 -0.0563 -0.2692
   14MOL   C172 5658   0.679   5.471   0.368 -0.2305  0.4098  0.7396
   14MOL   C173 5659   0.579   5.430   0.261  0.1176  0.2119  0.0105
   14MOL   C174 5660   0.512   5.292   0.290  0.0106 -0.5110  0.1435
   14MOL   C175 5661   0.427   5.239   0.178  0.6896 -0.6938 -0.3340
   14MOL   C176 5662   0.502   5.172   0.069 -0.0197 -0.3445 -0.5036
   14MOL   H177 5663   0.991   5.649   0.327 -1.8767  1.0978  0.4845
   14MOL   H178 5664   0.934   5.550   0.454 -1.1225  3.1955  0.2064
   14MOL   H179 5665   0.765   5.621   0.224 -0.3846 -1.2587 -0.6518
   14MOL   H180 5666   0.630   5.516   0.454  0.0244 -0.4273  1.3266
   14MOL   H181 5667   0.740   5.386   0.398  0.3041  0.0213 -1.3372
   14MOL   H182 5668   0.620   5.433   0.160  1.5446 -0.1792  0.5769
   14MOL   H183 5669   0.490   5.493   0.254 -0.1236 -0.2466 -1.2346
   14MOL   H184 5670   0.450   5.307   0.379 -0.0670 -2.7060  0.4797
   14MOL   H185 5671   0.591   5.219   0.309  0.8615  0.2138 -0.5501
   14MOL   H186 5672   0.370   5.320   0.134  0.1322 -1.9603 -1.9694
   14MOL   H187 5673   0.361   5.170   0.231  0.8488 -0.9303 -0.4415
   14MOL   H188 5674   0.576   5.230   0.015 -1.7298  0.8026 -1.6441
   14MOL   H189 5675   0.435   5.133   7.705  1.3140  0.2886 -1.9976
   14MOL   H190 5676   0.562   5.089   0.107  1.3304  1.0822  0.5629
   14MOL   C191 5677   0.737   5.726   0.386  0.8465  0.1959  0.7600
   14MOL   C192 5678   0.610   5.796   0.327 -0.0175 -0.4242 -0.8318
   14MOL   C193 5679   0.538   5.862   0.449 -0.1016  0.4566 -0.9201
   14MOL   C194 5680   0.464   5.764   0.538 -0.6106 -0.4842 -0.1140
   14MOL   C195 5681   0.405   5.822   0.664 -0.3166  0.3512  0.0371
   14MOL   C196 5682   0.303   5.720   0.726  0.3982  0.9687  0.4437
   14MOL   C197 5683   0.214   5.777   0.841  0.6286  0.3322 -0.1349
   14MOL   H198 5684   0.813   5.803   0.374 -0.4131  1.1097 -1.6698
   14MOL   H199 5685   0.737   5.716   0.494  0.6912  0.8496  0.8213
   14MOL   H200 5686   0.546   5.715   0.295  0.5076 -1.5769  0.9483
   14MOL   H201 5687   0.468   5.936   0.409  0.1262  0.7782 -0.7298
   14MOL   H202 5688   0.609   5.932   0.494 -1.0479  0.7051  0.2181
   14MOL   H203 5689   0.528   5.680   0.565 -0.7736 -1.5311 -2.8258
   14MOL   H204 5690   0.391   5.719   0.470 -0.9673 -0.6762  0.3883
   14MOL   H205 5691   0.485   5.854   0.730 -0.5228  0.7713  0.0829
   14MOL   H206 5692   0.343   5.905   0.632 -0.6745 -0.0129 -0.2188
   14MOL   H207 5693   0.342   5.621   0.750 -0.1556  0.6775  0.1795
   14MOL   H208 5694   0.228   5.701   0.648  1.6532 -0.3027 -0.4794
   14MOL   H209 5695   0.286   5.820   0.911  0.8331  2.4621 -1.6033
   14MOL   H210 5696   0.147   5.708   0.892 -1.3790  0.5906 -2.3628
   14MOL   H211 5697   0.150   5.859   0.810 -0.7580 -0.5571  0.3203
   14MOL   C212 5698   0.640   5.905   0.227  0.1417 -0.7280 -0.0270
   14MOL   C213 5699   0.522   5.954   0.134 -0.0652 -0.1743  0.2334
   14MOL   C214 5700   0.584   6.072   0.045  0.4755 -0.2282 -0.4645
   14MOL   C215 5701   0.463   6.165   0.004 -0.1132 -0.1152 -0.1321
   14MOL   C216 5702   0.521   6.297   7.658 -0.4478  0.6450 -0.3204
   14MOL   C217 5703   0.418   6.411   7.645 -0.5176  0.6893 -0.3324
   14MOL   C218 5704   0.305   6.383   7.546  0.5138  0.5932 -0.6532
   14MOL   H219 5705   0.719   5.871   0.160  0.7926  1.0216 -0.1612
   14MOL   H220 5706   0.686   5.988   0.281  0.1389 -1.6728  1.4463
   14MOL   H221 5707   0.462   6.009   0.207  1.1303  1.2421  0.1709
   14MOL   H222 5708   0.666   6.130   0.086  0.1458 -0.0562 -0.0408
   14MOL   H223 5709   0.630   6.037   7.666 -0.7305 -2.3035 -0.3254
   14MOL   H224 5710   0.410   6.195   0.094  0.6513 -1.3882  0.7645
   14MOL   H225 5711   0.401   6.118   7.641 -0.7111  0.2841  0.1048
   14MOL   H226 5712   0.608   6.320   0.007  0.5134 -1.3391 -0.8764
   14MOL   H227 5713   0.554   6.273   7.557  1.0521  0.3207  0.2358
   14MOL   H228 5714   0.383   6.432   0.033  1.5987 -3.4966  1.4248
   14MOL   H229 5715   0.472   6.503   7.621  0.4180  0.6252  1.4380
   14MOL   H230 5716   0.244   6.304   7.589  0.4811  1.2228  0.4803
   14MOL   H231 5717   0.323   6.359   7.441 -1.0776  0.6721 -0.9674
   14MOL   H232 5718   0.240   6.470   7.545  2.0628  1.7804  0.1358
   14MOL   C233 5719   0.422   5.858   0.062 -0.3035 -0.5032  0.3315
   14MOL   C234 5720   0.296   5.815   0.150  0.0201 -0.6354  0.0765
   14MOL   C235 5721   0.193   5.919   0.179  0.3605  0.9971  0.5301
   14MOL   C236 5722   0.200   5.995   0.313 -0.3840 -0.5597 -1.1222
   14MOL   C237 5723   0.072   6.069   0.340  0.8678  0.5577  0.7347
   14MOL   C238 5724   0.079   6.133   0.481 -0.5413 -0.1881  0.8327
   14MOL   C239 5725   7.669   6.213   0.515  0.6454 -0.5130  0.0694
   14MOL   H240 5726   0.490   5.781   0.026  2.3859  1.0850  1.9026
   14MOL   H241 5727   0.375   5.909   7.691 -1.2042  0.3303  1.3196
   14MOL   H242 5728   0.323   5.779   0.249 -0.7303  0.6021  0.7429
   14MOL   H243 5729   0.099   5.863   0.183  0.9184 -0.0728 -1.0575
   14MOL   H244 5730   0.186   5.988   0.095  0.5941  0.2903 -0.0753
   14MOL   H245 5731   0.275   6.072   0.294  1.5206 -2.0498  0.1480
   14MOL   H246 5732   0.229   5.937   0.401  1.5961  0.8399 -0.8214
   14MOL   H247 5733   7.703   5.998   0.332 -0.6336  2.4477 -1.2596
   14MOL   H248 5734   0.040   6.127   0.253  1.3799 -1.9012 -1.1492
   14MOL   H249 5735   0.108   6.057   0.554  0.8787  0.6464  1.1525
   14MOL   H250 5736   0.158   6.207   0.468 -0.7724 -0.2756 -1.2518
   14MOL   H251 5737   7.656   6.206   0.623  4.7326 -2.1251  0.5654
   14MOL   H252 5738   7.691   6.318   0.500 -0.6515 -0.1840  0.3633
   14MOL   H253 5739   7.578   6.174   0.469  0.5657 -2.9717  2.1492
   14MOL   C254 5740   0.250   5.676   0.091  0.6207  0.2291  0.2986
   14MOL   C255 5741   0.202   5.672   7.661 -0.0512 -0.7886  0.0434
   14MOL   C256 5742   0.082   5.758   7.620  0.5456 -0.3513  0.4585
   14MOL   C257 5743   0.049   5.768   7.468  0.5416 -0.2501 -0.4031
   14MOL   C258 5744   7.661   5.879   7.434  0.3621  0.2347 -0.3300
   14MOL   C259 5745   7.513   5.845   7.469  0.4213  0.0356 -0.9944
   14MOL   C260 5746   7.423   5.965   7.453  0.0687  0.2332  0.6043
   14MOL   H261 5747   0.180   5.620   0.153 -2.5372  1.0515 -2.3772
   14MOL   H262 5748   0.344   5.622   0.102  0.0962 -0.5555  0.9703
   14MOL   H263 5749   0.287   5.707   7.602 -0.3117  0.5561  0.4405
   14MOL   H264 5750   0.100   5.856   7.664  2.6274 -1.7009  2.7676
   14MOL   H265 5751   7.711   5.713   7.674  1.8895 -1.3315  1.7931
   14MOL   H266 5752   0.144   5.781   7.416 -0.2542  2.1400 -1.3176
   14MOL   H267 5753   0.021   5.669   7.433  1.1711 -0.4136 -0.4545
   14MOL   H268 5754   7.666   5.899   7.327 -0.5358  3.0935  0.1445
   14MOL   H269 5755   7.702   5.966   7.484  1.2254 -0.5590  0.3702
   14MOL   H270 5756   7.473   5.771   7.399 -2.7276 -0.1590  0.8935
   14MOL   H271 5757   7.509   5.806   7.571  0.7781  0.4247 -0.8317
   14MOL   H272 5758   7.322   5.924   7.447 -0.8340  2.4988 -0.0349
   14MOL   H273 5759   7.431   6.016   7.549  1.1613 -1.1367  1.2610
   14MOL   H274 5760   7.458   6.041   7.383 -2.7399  0.5952 -0.4648
   14MOL   C275 5761   0.192   5.523   7.617 -0.6076  0.2932  0.1268
   14MOL   C276 5762   0.237   5.490   7.477  0.2198 -0.7407 -0.4799
   14MOL   C277 5763   0.206   5.343   7.438 -0.0196  0.4832 -0.1057
   14MOL   C278 5764   0.053   5.307   7.403  0.5442 -0.7109  0.5418
   14MOL   C279 5765   7.698   5.385   7.287 -0.1221  0.4959 -0.3083
   14MOL   C280 5766   0.039   5.351   7.156  0.0964  0.1743 -0.2382
   14MOL   C281 5767   7.703   5.228   7.080  0.1645 -0.1886 -0.4897
   14MOL   H282 5768   0.096   5.476   7.641 -0.7997 -0.6545 -2.4056
   14MOL   H283 5769   0.261   5.466   7.679 -0.0929  1.1022  0.2986
   14MOL   H284 5770   0.209   5.564   7.402  1.7935  0.5359  0.1619
   14MOL   H285 5771   0.269   5.307   7.357  0.7218  0.5782  0.4187
   14MOL   H286 5772   0.235   5.280   7.522  0.5064 -0.8150 -1.2507
   14MOL   H287 5773   0.001   5.319   7.498  1.4585  1.0515  0.8445
   14MOL   H288 5774   0.044   5.201   7.377  1.4356 -0.9859  1.3554
   14MOL   H289 5775   7.705   5.493   7.302  0.2521  0.7906 -2.4549
   14MOL   H290 5776   7.592   5.359   7.290 -0.3515  1.4217 -0.1615
   14MOL   H291 5777   0.003   5.434   7.096 -1.5677  0.8654  1.6938
   14MOL   H292 5778   0.148   5.358   7.165  0.1741 -1.9396  0.8498
   14MOL   H293 5779   7.597   5.231   7.055 -0.1848 -4.0394  0.2431
   14MOL   H294 5780   0.016   5.139   7.137  0.3933  1.8555  2.7637
   14MOL   H295 5781   0.048   5.236   6.989 -1.6017  2.0740 -1.5085
   14MOL   C296 5782   0.396   5.495   7.460 -0.3701  0.5466  0.3719
   14MOL   C297 5783   0.437   5.508   7.310 -0.6817 -0.2420 -0.8906
   14MOL   C298 5784   0.573   5.448   7.287 -0.5211  0.0534 -0.8347
   14MOL   C299 5785   0.561   5.292   7.281  0.5282 -0.0856  0.7219
   14MOL   C300 5786   0.696   5.214   7.279  0.4270 -0.2865  0.2550
   14MOL   C301 5787   0.672   5.067   7.303  0.0460 -0.4687 -0.0316
   14MOL   C302 5788   0.799   4.981   7.276 -0.3551 -0.0909  0.6711
   14MOL   H303 5789   0.443   5.566   7.527 -2.4621  0.7659  1.6485
   14MOL   H304 5790   0.434   5.399   7.496 -1.7075 -0.9084 -1.9160
   14MOL   H305 5791   0.362   5.459   7.248 -2.5400  1.3382  0.0797
   14MOL   H306 5792   0.623   5.474   7.193 -0.0264  1.2429 -0.2469
   14MOL   H307 5793   0.649   5.491   7.352 -1.9125  1.7535 -0.3251
   14MOL   H308 5794   0.501   5.266   7.193 -1.1721 -2.4717  2.5214
   14MOL   H309 5795   0.498   5.263   7.365 -1.4129 -4.2984 -1.9766
   14MOL   H310 5796   0.770   5.242   7.355  1.9637 -1.6423 -0.7134
   14MOL   H311 5797   0.737   5.236   7.181 -0.3377 -2.4268 -0.5729
   14MOL   H312 5798   0.639   5.050   7.406  1.2854  1.0350  0.6330
   14MOL   H313 5799   0.588   5.044   7.238 -1.2429  0.8049  1.1394
   14MOL   H314 5800   0.866   4.978   7.361  0.5789 -1.1427 -0.0741
   14MOL   H315 5801   0.762   4.882   7.246 -0.6417 -0.0741  0.9699
   14MOL   H316 5802   0.864   5.010   7.193 -0.7556 -0.9440  0.0342
   14MOL   C317 5803   0.444   5.660   7.271  0.2457  0.1045  0.1281
   14MOL   C318 5804   0.448   5.692   7.117 -0.7233  0.5167  0.5466
   14MOL   C319 5805   0.328   5.633   7.036 -0.2257  0.8001 -0.3585
   14MOL   C320 5806   0.337   5.613   6.885 -0.3152  0.1662  0.0862
   14MOL   C321 5807   0.196   5.582   6.817 -0.1251  0.1597  0.2314
   14MOL   C322 5808   0.209   5.542   6.669 -0.0007 -0.3151 -0.0818
   14MOL   C323 5809   0.268   5.654   6.584  0.3521 -0.0023 -0.6214
   14MOL   H324 5810   0.525   5.718   7.315  0.7773 -0.9890  0.6320
   14MOL   H325 5811   0.356   5.712   7.307  0.0964 -0.4324  0.5533
   14MOL   H326 5812   0.544   5.646   7.094 -0.0272  1.3536  1.6768
   14MOL   H327 5813   0.245   5.696   7.068 -0.0137  0.8446  0.1217
   14MOL   H328 5814   0.305   5.533   7.072  0.8276  0.4341 -0.6816
   14MOL   H329 5815   0.381   5.516   6.859 -2.3030 -0.3855 -1.3252
   14MOL   H330 5816   0.384   5.699   6.837 -0.6323  1.6169  2.3244
   14MOL   H331 5817   0.138   5.674   6.827  0.8709  0.9656 -1.1422
   14MOL   H332 5818   0.136   5.507   6.869 -0.8249  1.4816  1.3655
   14MOL   H333 5819   0.116   5.523   6.616  0.3095  2.1588 -1.6077
   14MOL   H334 5820   0.273   5.454   6.661 -1.8502 -1.8863  1.7458
   14MOL   H335 5821   0.266   5.643   6.476  0.0505 -0.0450 -0.6111
   14MOL   H336 5822   0.369   5.669   6.623 -0.7010 -1.2208  2.7173
   14MOL   H337 5823   0.219   5.752   6.589  1.9438  0.7766  0.3320
   14MOL   C338 5824   0.475   5.839   7.084  0.0847 -0.6365 -0.4410
   14MOL   C339 5825   0.612   5.912   7.122  0.2774 -1.0863 -0.3759
   14MOL   C340 5826   0.605   6.009   7.242  0.2541 -0.1012 -0.0298
   14MOL   C341 5827   0.741   6.020   7.321  0.0257  0.5229  0.1516
   14MOL   C342 5828   0.784   5.893   7.395 -0.7069 -0.0472  0.3398
   14MOL   C343 5829   0.875   5.912   7.516  0.5395 -0.2297  0.4645
   14MOL   C344 5830   0.892   5.791   7.606  0.2706 -0.1556  0.4072
   14MOL   H345 5831   0.392   5.899   7.123  0.6528  1.0131 -1.6881
   14MOL   H346 5832   0.449   5.850   6.978  0.5840  0.4151 -0.4628
   14MOL   H347 5833   0.668   5.821   7.145  0.6155 -0.6918  0.3596
   14MOL   H348 5834   0.566   6.108   7.222  2.6996  0.9355  0.1946
   14MOL   H349 5835   0.530   5.967   7.310 -0.6434  0.1183 -0.8814
   14MOL   H350 5836   0.730   6.104   7.389 -0.5097  1.3121 -0.8935
   14MOL   H351 5837   0.827   6.043   7.258  0.6051 -1.8624  0.0218
   14MOL   H352 5838   0.697   5.848   7.443 -0.1308 -1.5237  0.0220
   14MOL   H353 5839   0.819   5.810   7.333 -1.0540  1.5318 -2.0385
   14MOL   H354 5840   0.965   5.971   7.494  1.0296 -0.5511  1.6095
   14MOL   H355 5841   0.834   5.996   7.572  1.2931  0.7610 -0.4376
   14MOL   H356 5842   0.951   5.808   7.696 -0.9869 -1.4337  1.4750
   14MOL   H357 5843   0.938   5.706   7.555 -2.6331 -0.3980 -1.9108
   14MOL   H358 5844   0.797   5.747   7.635  0.4338 -1.2979 -0.7262
   14MOL   C359 5845   0.667   5.985   7.002  1.1532  0.4123 -0.0797
   14MOL   C360 5846   0.769   5.896   6.914 -0.0172  0.5654  0.0545
   14MOL   C361 5847   0.909   5.852   6.980  0.1335 -0.7474  0.4048
   14MOL   C362 5848   1.009   5.965   6.985  0.4421  0.2175  0.0349
   14MOL   C363 5849   1.138   5.922   7.057  0.5641  0.4565 -0.2595
   14MOL   C364 5850   1.247   6.024   7.050  0.2530 -0.0392  0.1627
   14MOL   C365 5851   1.387   5.981   7.078 -0.2760 -0.1596 -0.7925
   14MOL   H366 5852   0.729   6.069   7.031 -0.7174  1.5920  0.5810
   14MOL   H367 5853   0.589   6.036   6.945 -0.9077  1.8080  3.8214
   14MOL   H368 5854   0.796   5.963   6.832  0.9441 -0.5695 -0.5779
   14MOL   H369 5855   0.889   5.817   7.081  0.3631 -1.6644  0.1411
   14MOL   H370 5856   0.955   5.763   6.937  0.6445 -0.0871 -0.4225
   14MOL   H371 5857   1.038   5.988   6.883 -0.3510 -3.4259 -1.1098
   14MOL   H372 5858   0.968   6.058   7.025 -0.2451  0.1846 -0.5701
   14MOL   H373 5859   1.117   5.895   7.161  0.2647  1.1011 -0.1521
   14MOL   H374 5860   1.177   5.841   6.995  2.2326  1.6402 -0.7939
   14MOL   H375 5861   1.254   6.084   6.959  1.5026  0.3400  0.5075
   14MOL   H376 5862   1.217   6.100   7.122  1.9562 -0.0150  0.8487
   14MOL   H377 5863   1.373   5.935   7.176 -0.0444  1.7372  0.1545
   14MOL   H378 5864   1.422   5.904   7.009 -0.4658 -1.1263  0.1797
   14MOL   H379 5865   1.462   6.060   7.085  0.2508 -0.7084 -0.2375
   14MOL   C380 5866   0.701   5.777   6.841  0.3835 -0.1359 -0.3469
   14MOL   C381 5867   0.784   5.708   6.726 -0.5881  0.2625 -0.2286
   14MOL   C382 5868   0.717   5.571   6.694 -0.2106 -0.3906 -0.5189
   14MOL   C383 5869   0.779   5.447   6.764 -0.6719 -0.2269  0.0076
   14MOL   C384 5870   0.730   5.314   6.709  0.1996 -0.0792 -0.6129
   14MOL   C385 5871   0.798   5.194   6.773 -0.8117 -0.3225  0.0286
   14MOL   C386 5872   0.715   5.123   6.872 -0.2604  0.5981  0.5024
   14MOL   H387 5873   0.671   5.706   6.918  0.2189 -0.0865 -0.3657
   14MOL   H388 5874   0.607   5.814   6.800  0.7500  3.2419  1.6552
   14MOL   H389 5875   0.886   5.685   6.755 -0.9741 -0.0610  0.8624
   14MOL   H390 5876   0.728   5.550   6.588 -1.7795 -0.6708 -0.6364
   14MOL   H391 5877   0.611   5.584   6.716 -0.0713 -0.1073 -0.0033
   14MOL   H392 5878   0.885   5.449   6.741 -0.2666 -0.2782  1.8513
   14MOL   H393 5879   0.762   5.462   6.870 -1.6013  2.0129 -0.4219
   14MOL   H394 5880   0.621   5.315   6.716  0.3057 -1.3935  1.7830
   14MOL   H395 5881   0.743   5.318   6.601  1.2181 -0.4455 -0.5005
   14MOL   H396 5882   0.887   5.243   6.812 -0.6187  0.0846 -0.9100
   14MOL   H397 5883   0.843   5.124   6.702 -0.2591 -0.6507  0.6947
   14MOL   H398 5884   0.613   5.116   6.834  0.0429  0.4920 -0.2811
   14MOL   H399 5885   0.704   5.184   6.962  1.6632 -0.2677  1.3471
   14MOL   H400 5886   0.744   5.022   6.899  0.3174  0.8536  0.8405
   14MOL   C401 5887   0.815   5.806   6.610 -0.6018  1.1790 -0.2879
   14MOL   C402 5888   0.685   5.845   6.535 -0.0959  0.1925 -0.6609
   14MOL   C403 5889   0.712   5.876   6.383  0.4927  0.2791 -0.8270
   14MOL   C404 5890   0.585   5.913   6.309 -0.4239  0.1530 -0.2115
   14MOL   C405 5891   0.612   5.998   6.180 -0.0579  0.8755  0.5386
   14MOL   C406 5892   0.678   5.922   6.064  0.3149  0.8968  0.6497
   14MOL   C407 5893   0.707   6.015   5.948 -0.0705  0.1010 -0.6062
   14MOL   H408 5894   0.874   5.741   6.545  0.0565  0.8416  0.6350
   14MOL   H409 5895   0.867   5.899   6.630  0.6845  0.1376  1.3298
   14MOL   H410 5896   0.651   5.930   6.594 -2.2578 -1.7681  1.0189
   14MOL   H411 5897   0.774   5.800   6.334  0.1983 -0.2981 -0.3091
   14MOL   H412 5898   0.777   5.964   6.385  0.8558  0.0055 -0.5882
   14MOL   H413 5899   0.537   5.993   6.367 -1.1855 -0.8796  0.6001
   14MOL   H414 5900   0.524   5.824   6.296 -1.2729  0.8436 -0.9553
   14MOL   H415 5901   0.516   6.033   6.141 -0.6341 -1.2100  0.0133
   14MOL   H416 5902   0.674   6.085   6.202  1.0209  0.4843 -0.9334
   14MOL   H417 5903   0.781   5.898   6.092  0.3796  0.6123  0.1722
   14MOL   H418 5904   0.627   5.833   6.028  0.0801  0.6268  1.6452
   14MOL   H419 5905   0.766   6.097   5.989 -1.2708 -0.0871  1.5268
   14MOL   H420 5906   0.619   6.046   5.892  0.0047  1.1881 -0.1517
   14MOL   H421 5907   0.769   5.961   5.877 -0.5865 -1.4356  0.0999
   14MOL   H422 5908   0.607   5.769   6.546  0.7314 -0.8234 -1.7280
   15MOL     C1 5909   5.477   0.020   2.553 -0.4041  0.2615  0.3367
   15MOL     C2 5910   5.503   7.668   2.418 -0.1075  0.2536  0.1810
   15MOL     C3 5911   5.405   7.706   2.309  0.1160  0.8665 -0.2547
   15MOL     C4 5912   5.432   0.122   2.229  0.0106  0.2730  0.0524
   15MOL     C5 5913   5.371   0.118   2.093  0.0491 -0.3636  0.0479
   15MOL     C6 5914   5.408   0.245   2.015  0.1052  0.3334  0.6040
   15MOL     C7 5915   5.330   0.264   1.888 -0.6855  0.3721 -0.3179
   15MOL     H8 5916   5.547   7.699   2.629  1.2890 -1.9526 -2.1377
   15MOL     H9 5917   5.376   7.701   2.579 -0.3415 -1.1080 -1.0255
   15MOL    H10 5918   5.603   7.697   2.386  1.0170 -2.8516  0.6977
   15MOL    H11 5919   5.390   7.616   2.251  2.2066  0.1790  0.2185
   15MOL    H12 5920   5.303   7.713   2.346 -0.0879  0.4219 -0.7363
   15MOL    H13 5921   5.414   0.214   2.284  1.0699  0.4938  0.0495
   15MOL    H14 5922   5.538   0.130   2.203  0.2634 -2.2853  0.1959
   15MOL    H15 5923   5.264   0.109   2.114  0.5206 -1.2292  2.0885
   15MOL    H16 5924   5.392   0.027   2.037  1.6755  1.4337 -2.3998
   15MOL    H17 5925   5.511   0.234   1.980 -0.2783 -0.0881 -0.4108
   15MOL    H18 5926   5.385   0.336   2.070  0.0771  0.4928  0.3317
   15MOL    H19 5927   5.228   0.284   1.922 -0.5838  3.0876 -1.4775
   15MOL    H20 5928   5.319   0.178   1.822  1.6435 -0.5148  0.4173
   15MOL    H21 5929   5.358   0.354   1.833 -1.8749  1.0138  0.1069
   15MOL    H22 5930   5.486   0.128   2.557 -0.2402  0.3126 -1.2468
   15MOL    C23 5931   5.515   7.510   2.437 -0.2585  0.2107 -0.0543
   15MOL    C24 5932   5.575   7.427   2.324 -0.0376  0.1259 -0.6602
   15MOL    C25 5933   5.520   7.279   2.313 -0.2128 -0.1053  0.4910
   15MOL    C26 5934   5.383   7.271   2.251 -0.3869 -0.8182  0.5951
   15MOL    C27 5935   5.382   7.301   2.103  0.4246  0.4368  0.0625
   15MOL    C28 5936   5.254   7.271   2.033  0.0216  0.2317  0.2684
   15MOL    C29 5937   5.219   7.127   2.043  0.2004  0.4793 -0.5530
   15MOL    H30 5938   5.586   7.499   2.519 -1.6122  0.1624  1.1291
   15MOL    H31 5939   5.417   7.471   2.466  0.1609  0.1988  1.3515
   15MOL    H32 5940   5.541   7.471   2.230 -1.7589 -1.1080 -0.6404
   15MOL    H33 5941   5.513   7.236   2.413 -1.5179  0.5962  0.7204
   15MOL    H34 5942   5.590   7.218   2.257  1.3844  1.0441  1.2215
   15MOL    H35 5943   5.311   7.331   2.308  1.7025  1.3224  1.0941
   15MOL    H36 5944   5.358   7.166   2.262 -0.9967 -0.7919 -0.4640
   15MOL    H37 5945   5.455   7.227   2.069 -0.3614 -0.9180  1.2710
   15MOL    H38 5946   5.418   7.401   2.079 -0.5829  0.6690 -0.5116
   15MOL    H39 5947   5.270   7.302   1.929  1.4221 -1.7746 -0.1416
   15MOL    H40 5948   5.170   7.327   2.073  0.2899  0.5099  0.4493
   15MOL    H41 5949   5.159   7.101   2.131  2.7690 -0.3982  0.9747
   15MOL    H42 5950   5.149   7.098   1.965  1.2922 -1.2284 -0.9242
   15MOL    H43 5951   5.310   7.068   2.034  0.6299  0.7973  1.3780
   15MOL    C44 5952   5.729   7.443   2.324  0.0345 -0.4946  0.6901
   15MOL    C45 5953   5.800   7.408   2.188 -0.0317 -0.3512  0.7576
   15MOL    C46 5954   5.780   7.521   2.083 -0.5153  0.3416  0.4961
   15MOL    C47 5955   5.839   7.496   1.946 -0.1793  0.5966 -0.4178
   15MOL    C48 5956   5.849   7.630   1.872  0.0728  0.3677 -0.8557
   15MOL    C49 5957   5.713   7.693   1.844  0.4806 -0.5468 -0.1801
   15MOL    C50 5958   5.716   0.122   1.793  0.2787  0.4809 -0.2594
   15MOL    H51 5959   5.772   7.381   2.402  1.9133  0.0190  0.0866
   15MOL    H52 5960   5.758   7.545   2.349  2.1401 -0.8196 -0.3440
   15MOL    H53 5961   5.750   7.323   2.142  1.1726  0.5634 -2.3533
   15MOL    H54 5962   5.825   7.612   2.122  1.5005  0.1727 -1.3176
   15MOL    H55 5963   5.672   7.535   2.080 -0.5441  0.1313  0.5169
   15MOL    H56 5964   5.940   7.456   1.949 -0.7623 -0.8555  0.3518
   15MOL    H57 5965   5.788   7.433   1.873  1.9210 -1.5286 -0.0942
   15MOL    H58 5966   5.883   7.618   1.769  1.4305  0.5425 -0.4331
   15MOL    H59 5967   5.911   7.691   1.937  1.3912 -1.4527 -0.3500
   15MOL    H60 5968   5.653   7.689   1.934  1.6424  1.0296  0.6990
   15MOL    H61 5969   5.667   7.621   1.776  0.2407 -2.4874  1.9851
   15MOL    H62 5970   5.764   0.125   1.695  0.3277 -0.6715 -0.2796
   15MOL    H63 5971   5.776   0.190   1.853 -1.5742  0.9257  1.1360
   15MOL    H64 5972   5.612   0.155   1.790  0.0395 -0.3138 -0.7367
   15MOL    C65 5973   5.950   7.378   2.215 -0.6556 -0.4955 -0.5254
   15MOL    C66 5974   5.988   7.224   2.212  0.1170 -0.2273 -0.8539
   15MOL    C67 5975   5.905   7.144   2.320  0.6143 -0.3246  0.2961
   15MOL    C68 5976   5.933   7.161   2.472 -0.0580 -0.8280 -0.3297
   15MOL    C69 5977   5.854   7.059   2.559  0.8333  0.0055  0.3855
   15MOL    C70 5978   5.706   7.088   2.570  0.0600  0.3718  0.5365
   15MOL    C71 5979   5.676   7.213   2.649 -0.4689  0.3499  0.5009
   15MOL    H72 5980   6.016   7.435   2.150  0.3864 -2.0588 -0.8857
   15MOL    H73 5981   5.985   7.431   2.304 -1.9909 -1.8446  0.8448
   15MOL    H74 5982   5.955   7.186   2.116  0.5901  0.0454 -1.1229
   15MOL    H75 5983   5.798   7.155   2.302  0.8113  2.1071  0.4806
   15MOL    H76 5984   5.918   7.038   2.302 -1.5187 -0.6563  0.5759
   15MOL    H77 5985   6.040   7.147   2.482 -0.2063 -1.7839 -0.0174
   15MOL    H78 5986   5.919   7.263   2.506 -2.3384 -1.2848  0.2283
   15MOL    H79 5987   5.867   6.960   2.516  1.2701  1.0699 -2.0109
   15MOL    H80 5988   5.904   7.046   2.655  1.6118  0.7414  0.0852
   15MOL    H81 5989   5.665   6.999   2.618  2.7296 -0.4247  1.4559
   15MOL    H82 5990   5.669   7.088   2.467 -0.1459 -2.2681  0.5570
   15MOL    H83 5991   5.572   7.244   2.640 -0.7806 -0.6701  0.5709
   15MOL    H84 5992   5.697   7.193   2.754 -1.3693 -2.7921  0.1420
   15MOL    H85 5993   5.728   7.303   2.617 -0.5981  0.0422 -0.5990
   15MOL    C86 5994   6.140   7.196   2.225  0.1697  0.6361  0.0857
   15MOL    C87 5995   6.212   7.219   2.089 -0.4016  0.3524  0.1086
   15MOL    C88 5996   6.356   7.257   2.133 -0.0965  0.0567 -0.5022
   15MOL    C89 5997   6.444   7.327   2.028  0.0311 -0.2016 -0.5725
   15MOL    C90 5998   6.547   7.428   2.086  0.3026 -0.7657 -0.4830
   15MOL    C91 5999   6.611   7.528   1.979  0.0639 -0.5525 -0.3600
   15MOL    C92 6000   6.671   7.656   2.039 -0.0446 -0.0259  0.3442
   15MOL    H93 6001   6.172   7.272   2.298  1.2927  1.5931 -1.3685
   15MOL    H94 6002   6.166   7.100   2.269 -1.4184  1.2478  2.4420
   15MOL    H95 6003   6.169   7.311   2.050  1.2168  1.1686  0.2195
   15MOL    H96 6004   6.341   7.320   2.221  3.2304  0.4799 -0.1815
   15MOL    H97 6005   6.417   7.170   2.156  1.5876  1.3728  0.1222
   15MOL    H98 6006   6.490   7.249   1.967 -0.1819 -1.4257  0.8050
   15MOL    H99 6007   6.378   7.385   1.964 -0.7898 -1.0702 -0.5196
   15MOL   H100 6008   6.622   7.378   2.148 -0.9826 -1.0726  0.8508
   15MOL   H101 6009   6.496   7.489   2.161 -0.5640 -0.9332 -0.9350
   15MOL   H102 6010   6.685   7.483   1.913 -0.2452 -1.9643  0.2374
   15MOL   H103 6011   6.530   7.574   1.924  0.2155  1.1226  0.7644
   15MOL   H104 6012   6.773   7.653   2.078  0.5340 -1.5162 -1.2542
   15MOL   H105 6013   6.597   7.691   2.112 -1.1848 -1.2931 -0.1783
   15MOL   H106 6014   6.673   0.014   1.957  0.1424  0.5242  0.8223
   15MOL   C107 6015   6.198   7.098   1.993  0.0708  0.3387  0.0820
   15MOL   C108 6016   6.244   7.127   1.852 -0.1160  0.0966 -0.4810
   15MOL   C109 6017   6.285   6.995   1.780  0.0991 -0.0380 -1.0602
   15MOL   C110 6018   6.442   6.972   1.797 -0.3323 -0.1010 -0.0058
   15MOL   C111 6019   6.473   6.824   1.764 -0.4905  0.2562  0.3523
   15MOL   C112 6020   6.439   6.781   1.621 -0.0143  0.3567 -0.4876
   15MOL   C113 6021   6.465   6.635   1.585  0.6038  0.3785  0.1179
   15MOL   H114 6022   6.099   7.053   1.995  1.6456 -3.3062 -1.2881
   15MOL   H115 6023   6.256   7.019   2.039  1.6490  0.5206 -1.5734
   15MOL   H116 6024   6.331   7.193   1.849  0.4188 -0.5963 -0.3838
   15MOL   H117 6025   6.251   7.008   1.678 -0.6494 -0.8628 -0.9265
   15MOL   H118 6026   6.228   6.912   1.823 -0.0930  0.5798 -0.1092
   15MOL   H119 6027   6.486   7.024   1.712 -0.2391 -1.6603 -0.9457
   15MOL   H120 6028   6.469   7.015   1.893  1.4470  0.1610 -0.6145
   15MOL   H121 6029   6.427   6.758   1.837  0.0497  1.0592  1.4267
   15MOL   H122 6030   6.581   6.812   1.774 -0.2908  0.2400 -1.6180
   15MOL   H123 6031   6.332   6.780   1.605 -0.2698  1.6192  0.9999
   15MOL   H124 6032   6.468   6.864   1.557 -0.2003  0.7544 -0.0596
   15MOL   H125 6033   6.461   6.601   1.482 -0.0637 -1.9671  0.8895
   15MOL   H126 6034   6.568   6.611   1.614  0.3292 -2.1072 -0.8695
   15MOL   H127 6035   6.395   6.564   1.629  1.1086  0.8109  1.6729
   15MOL   C128 6036   6.128   7.188   1.773 -0.4204 -0.5309 -0.3552
   15MOL   C129 6037   6.151   7.254   1.637 -0.7676 -0.7717 -0.2955
   15MOL   C130 6038   6.206   7.393   1.661  0.1164  0.5089 -0.1978
   15MOL   C131 6039   6.350   7.416   1.606 -0.2015  0.0460  0.8475
   15MOL   C132 6040   6.397   7.554   1.640 -0.3317  0.0366 -0.3651
   15MOL   C133 6041   6.538   7.589   1.589 -0.3851 -0.1895  0.1560
   15MOL   C134 6042   6.559   0.024   1.613  0.1034  0.8167 -0.6524
   15MOL   H135 6043   6.060   7.102   1.766  1.4351 -1.8695 -2.7955
   15MOL   H136 6044   6.076   7.258   1.839 -0.6694 -1.0277 -0.0204
   15MOL   H137 6045   6.225   7.198   1.579  1.2808  2.1736 -0.6178
   15MOL   H138 6046   6.214   7.417   1.767  1.2323  0.1590 -0.1932
   15MOL   H139 6047   6.145   7.470   1.613 -1.2470  0.5192  1.5293
   15MOL   H140 6048   6.353   7.403   1.498 -0.0308  0.1608  0.8397
   15MOL   H141 6049   6.418   7.339   1.642  0.4408  1.4100  2.6262
   15MOL   H142 6050   6.391   7.573   1.748  1.0685  0.5155 -0.3582
   15MOL   H143 6051   6.326   7.614   1.583 -0.6517 -1.8235 -1.9738
   15MOL   H144 6052   6.540   7.564   1.483 -0.8186  1.0043 -0.1428
   15MOL   H145 6053   6.606   7.526   1.646 -0.9401 -2.4254 -1.6054
   15MOL   H146 6054   6.487   0.089   1.562 -0.1358 -0.4445 -1.9597
   15MOL   H147 6055   6.652   0.066   1.576  0.1852 -0.8089 -2.4020
   15MOL   H148 6056   6.555   0.043   1.720  2.2874 -0.4542 -0.3312
   15MOL   C149 6057   6.027   7.251   1.551 -0.4820 -0.2929  0.1711
   15MOL   C150 6058   5.977   7.121   1.480  0.3966  0.0169  0.3659
   15MOL   C151 6059   6.083   7.089   1.371 -0.2922  0.5672  0.2319
   15MOL   C152 6060   6.058   6.951   1.299 -0.0796 -0.2171 -0.9077
   15MOL   C153 6061   6.069   6.818   1.388 -0.1034  0.3623 -0.9117
   15MOL   C154 6062   6.062   6.695   1.304 -0.1237 -0.4397 -0.1983
   15MOL   C155 6063   6.058   6.564   1.386 -0.3772 -0.0944 -0.2273
   15MOL   H156 6064   5.946   7.299   1.606  0.0910  1.3703 -0.4056
   15MOL   H157 6065   6.052   7.329   1.479  0.7277 -0.5001  0.3500
   15MOL   H158 6066   5.985   7.046   1.558 -0.2612  2.3499  2.7290
   15MOL   H159 6067   6.075   7.162   1.291 -0.9025  2.3314  1.8688
   15MOL   H160 6068   6.184   7.091   1.412  0.3355  0.1598 -1.2682
   15MOL   H161 6069   6.135   6.938   1.223  0.2618 -0.1124 -0.5800
   15MOL   H162 6070   5.963   6.948   1.245  0.2579 -0.5731 -1.4752
   15MOL   H163 6071   5.993   6.805   1.465  0.8535 -0.2406 -0.0594
   15MOL   H164 6072   6.165   6.816   1.439 -0.6575  0.6056  0.1589
   15MOL   H165 6073   6.145   6.687   1.234  2.3707  0.4852  2.5460
   15MOL   H166 6074   5.967   6.699   1.250  0.0200 -2.1273 -0.5894
   15MOL   H167 6075   5.964   6.578   1.439 -0.8586  0.1726 -1.1386
   15MOL   H168 6076   6.141   6.568   1.456 -0.8194  0.8259  0.2564
   15MOL   H169 6077   6.054   6.476   1.322 -0.2259 -0.7506  0.6636
   15MOL   C170 6078   5.833   7.140   1.421  0.3255  0.5259 -0.0652
   15MOL   C171 6079   5.737   7.051   1.498  0.3679  0.3109 -0.3120
   15MOL   C172 6080   5.718   7.098   1.645 -0.2701 -1.3741 -0.3393
   15MOL   C173 6081   5.625   7.015   1.736 -0.1604  0.3922 -0.0066
   15MOL   C174 6082   5.643   7.047   1.887 -0.1529 -0.3598 -0.2656
   15MOL   C175 6083   5.608   6.928   1.987  0.0104 -0.4460  0.2361
   15MOL   C176 6084   5.657   6.950   2.135 -0.3016  0.4411 -0.6166
   15MOL   H177 6085   5.841   7.126   1.313 -1.4816  1.5453 -0.3380
   15MOL   H178 6086   5.792   7.240   1.430  1.1870  0.9482 -0.8101
   15MOL   H179 6087   5.775   6.948   1.498  0.2823  0.2756 -0.9251
   15MOL   H180 6088   5.691   7.204   1.648  0.4359 -1.0883 -2.6006
   15MOL   H181 6089   5.816   7.113   1.690 -0.8262  1.6285  0.0010
   15MOL   H182 6090   5.642   6.908   1.724  0.6414  0.5769 -0.5574
   15MOL   H183 6091   5.518   7.035   1.722  0.0257  1.0128 -0.5743
   15MOL   H184 6092   5.598   7.146   1.899  1.6611  0.8003 -2.6946
   15MOL   H185 6093   5.748   7.070   1.904 -0.2690  1.3922 -1.7654
   15MOL   H186 6094   5.666   6.841   1.955 -2.0123 -2.0670  0.8760
   15MOL   H187 6095   5.504   6.902   1.968 -0.1263 -0.1581  0.5903
   15MOL   H188 6096   5.650   6.860   2.195 -0.2136  0.4081 -0.6540
   15MOL   H189 6097   5.580   7.016   2.174 -1.3668 -0.2233 -1.5662
   15MOL   H190 6098   5.753   7.000   2.149 -0.2779  0.0592  0.6501
   15MOL   C191 6099   5.606   7.049   1.416  0.5175  0.4625  0.2607
   15MOL   C192 6100   5.550   6.905   1.405 -0.4922  0.4826  0.6196
   15MOL   C193 6101   5.406   6.904   1.359 -0.3729 -0.3264 -0.2287
   15MOL   C194 6102   5.387   6.939   1.208  0.1921 -0.6517  0.2298
   15MOL   C195 6103   5.230   6.963   1.183 -0.4106 -0.2465 -0.6508
   15MOL   C196 6104   5.188   6.913   1.036  0.6031  0.0360 -0.4262
   15MOL   C197 6105   5.033   6.908   1.018 -0.6233  0.0273  0.7293
   15MOL   H198 6106   5.635   7.071   1.313  0.3800  1.9121  0.5314
   15MOL   H199 6107   5.531   7.120   1.450 -1.4074 -1.8269  0.9779
   15MOL   H200 6108   5.543   6.863   1.505 -1.8920 -1.1296 -0.1366
   15MOL   H201 6109   5.362   6.981   1.422  1.2981  0.1692  0.3538
   15MOL   H202 6110   5.366   6.803   1.370 -1.2703 -0.2921 -2.8116
   15MOL   H203 6111   5.423   6.862   1.139 -1.0178  0.0594 -1.2506
   15MOL   H204 6112   5.439   7.031   1.179 -0.9342  0.4854  1.7534
   15MOL   H205 6113   5.163   6.917   1.255 -1.6587 -0.4595 -1.9249
   15MOL   H206 6114   5.202   7.068   1.182  0.5220  0.0234  0.5446
   15MOL   H207 6115   5.227   6.815   1.010  2.5329  0.9428 -1.0913
   15MOL   H208 6116   5.227   6.980   0.959  2.7389 -1.5337 -0.7649
   15MOL   H209 6117   4.974   6.844   1.083 -0.2425 -1.4254 -0.3314
   15MOL   H210 6118   5.011   6.873   0.917 -2.3362  1.6153  0.5120
   15MOL   H211 6119   4.991   7.008   1.027 -0.2095  0.2751 -0.0276
   15MOL   C212 6120   5.637   6.804   1.321  0.0319 -0.2476 -0.5573
   15MOL   C213 6121   5.588   6.655   1.337  0.6992 -0.6657  0.3016
   15MOL   C214 6122   5.666   6.577   1.224  0.0622 -0.0147  0.4179
   15MOL   C215 6123   5.568   6.519   1.118 -0.5042  0.3062 -0.5308
   15MOL   C216 6124   5.633   6.418   1.022  0.8358 -0.4963 -0.5547
   15MOL   C217 6125   5.531   6.343   0.936 -0.5777  0.4243  0.8911
   15MOL   C218 6126   5.596   6.232   0.849 -0.0064 -0.4843  0.1856
   15MOL   H219 6127   5.735   6.806   1.368  0.0004 -1.2745 -0.4512
   15MOL   H220 6128   5.645   6.834   1.216 -0.0807  0.7940 -0.2750
   15MOL   H221 6129   5.482   6.652   1.311  0.8962 -2.7641 -0.3365
   15MOL   H222 6130   5.748   6.638   1.185  1.4058 -0.9090  1.8017
   15MOL   H223 6131   5.724   6.498   1.272 -0.7204 -0.2721  0.9394
   15MOL   H224 6132   5.504   6.592   1.068 -0.9441 -1.0893 -2.0388
   15MOL   H225 6133   5.504   6.460   1.184 -1.2698  2.8849  1.1005
   15MOL   H226 6134   5.694   6.487   0.964  1.2979 -1.7229 -1.5690
   15MOL   H227 6135   5.693   6.353   1.086  2.0564 -1.9393 -3.0772
   15MOL   H228 6136   5.449   6.300   0.993 -0.7801 -0.6033 -0.1561
   15MOL   H229 6137   5.486   6.409   0.862 -1.1496 -0.9166  0.0342
   15MOL   H230 6138   5.663   6.279   0.776  1.7047 -3.0705  0.0051
   15MOL   H231 6139   5.531   6.162   0.797 -1.4977 -1.4223  3.2087
   15MOL   H232 6140   5.660   6.164   0.905  0.5780 -1.3942 -1.5550
   15MOL   C233 6141   5.608   6.604   1.480 -0.0223 -0.7840 -0.2632
   15MOL   C234 6142   5.575   6.456   1.513 -0.3933 -0.6839  0.3388
   15MOL   C235 6143   5.628   6.417   1.655  0.3281 -0.0805  0.0079
   15MOL   C236 6144   5.775   6.363   1.651  0.0371 -0.9995  0.3611
   15MOL   C237 6145   5.828   6.319   1.789  0.9836  0.5429  0.3059
   15MOL   C238 6146   5.973   6.261   1.782  0.5315  0.3355  0.2615
   15MOL   C239 6147   5.970   6.106   1.764  0.1494  0.1033 -0.5686
   15MOL   H240 6148   5.551   6.662   1.553 -1.1914 -1.2232 -0.7994
   15MOL   H241 6149   5.710   6.630   1.508  0.1288 -0.0509 -1.4530
   15MOL   H242 6150   5.622   6.391   1.439 -0.8670  0.0772 -0.6421
   15MOL   H243 6151   5.569   6.344   1.711  1.0146 -1.0092 -0.4832
   15MOL   H244 6152   5.633   6.502   1.724  2.3319 -0.8991  0.8961
   15MOL   H245 6153   5.839   6.436   1.602 -3.4429  0.8082 -1.6350
   15MOL   H246 6154   5.784   6.278   1.584  1.1024 -0.7991  0.2470
   15MOL   H247 6155   5.762   6.245   1.833 -0.5165  0.5198 -1.9582
   15MOL   H248 6156   5.815   6.405   1.856 -1.7927  0.9234 -0.6751
   15MOL   H249 6157   6.031   6.305   1.700  0.8470  1.5530  1.1284
   15MOL   H250 6158   6.025   6.289   1.873  1.8270  1.1681 -0.6980
   15MOL   H251 6159   5.911   6.046   1.834  1.6506 -1.8269 -0.9147
   15MOL   H252 6160   5.927   6.087   1.665 -2.0662  0.9133  0.2108
   15MOL   H253 6161   6.071   6.067   1.752 -0.6177 -1.6977 -1.4942
   15MOL   C254 6162   5.419   6.445   1.516 -0.3157 -0.4198  0.4552
   15MOL   C255 6163   5.364   6.300   1.516 -0.2756  0.6606  0.0974
   15MOL   C256 6164   5.376   6.244   1.377 -0.0451  0.2754 -0.0924
   15MOL   C257 6165   5.364   6.086   1.382 -0.5150  0.2218 -0.0487
   15MOL   C258 6166   5.426   6.033   1.255 -0.3084 -0.4404 -0.4951
   15MOL   C259 6167   5.573   6.007   1.284  0.3514  0.3988 -0.2886
   15MOL   C260 6168   5.655   5.940   1.164 -0.4677  0.5135 -0.4178
   15MOL   H261 6169   5.378   6.509   1.437  1.4889 -1.9997 -1.8282
   15MOL   H262 6170   5.387   6.498   1.606 -1.1146  2.5561 -1.4731
   15MOL   H263 6171   5.431   6.241   1.579 -0.6283 -0.0901 -0.2358
   15MOL   H264 6172   5.479   6.267   1.352 -0.5550  1.6791 -0.9242
   15MOL   H265 6173   5.307   6.294   1.309 -1.6212 -1.1152  0.4453
   15MOL   H266 6174   5.414   6.043   1.469  1.1398 -0.5221 -1.3400
   15MOL   H267 6175   5.258   6.064   1.391 -0.7680  1.6444  0.7297
   15MOL   H268 6176   5.410   6.103   1.173  1.5899 -0.2213 -0.7083
   15MOL   H269 6177   5.376   5.942   1.223  0.4192 -0.6553 -1.0356
   15MOL   H270 6178   5.616   6.103   1.309  0.2488  0.0778  1.1518
   15MOL   H271 6179   5.596   5.930   1.358 -2.7289 -0.3091  0.0346
   15MOL   H272 6180   5.648   5.831   1.172  0.4093  0.3560 -1.5995
   15MOL   H273 6181   5.632   5.973   1.062  1.0715 -1.1986 -1.3707
   15MOL   H274 6182   5.763   5.950   1.176 -0.5312 -0.8410  1.5369
   15MOL   C275 6183   5.218   6.284   1.572 -0.8500  0.0613 -0.0222
   15MOL   C276 6184   5.191   6.321   1.727 -0.7091 -1.1778  0.1807
   15MOL   C277 6185   5.289   6.244   1.823 -0.4108  0.5354 -0.4454
   15MOL   C278 6186   5.276   6.089   1.829  0.1662  0.0738 -0.6547
   15MOL   C279 6187   5.363   6.039   1.945  0.0062  0.3874 -0.6387
   15MOL   C280 6188   5.515   6.052   1.938  0.3661 -0.1792 -0.3025
   15MOL   C281 6189   5.574   5.970   1.822  0.2434  1.1500  0.3460
   15MOL   H282 6190   5.191   6.179   1.561  3.2558 -1.1482  0.3598
   15MOL   H283 6191   5.152   6.344   1.510 -0.4319 -0.4073 -0.9304
   15MOL   H284 6192   5.221   6.426   1.732  1.5132 -1.7222 -0.7417
   15MOL   H285 6193   5.393   6.264   1.798  0.0635 -1.2572  0.0239
   15MOL   H286 6194   5.262   6.268   1.926 -0.7271 -1.0507 -0.1374
   15MOL   H287 6195   5.289   6.046   1.730  0.4773 -0.1382 -0.5212
   15MOL   H288 6196   5.175   6.062   1.861 -0.6060  1.2625 -2.0121
   15MOL   H289 6197   5.347   5.935   1.975  2.4948  0.1373 -0.1137
   15MOL   H290 6198   5.329   6.089   2.036  1.4071 -0.4689  0.3844
   15MOL   H291 6199   5.543   6.156   1.926 -0.0164  0.2697  2.3294
   15MOL   H292 6200   5.562   6.013   2.029  0.5521  1.5055  0.3457
   15MOL   H293 6201   5.507   5.968   1.736  0.4544  0.7406  0.1930
   15MOL   H294 6202   5.578   5.870   1.864 -2.0469  1.5754  1.6140
   15MOL   H295 6203   5.674   6.010   1.800 -0.3371  1.8127 -1.1621
   15MOL   C296 6204   5.044   6.312   1.774 -0.1668 -0.4448  0.1772
   15MOL   C297 6205   4.940   6.429   1.751  0.5509 -0.0263 -0.2163
   15MOL   C298 6206   4.992   6.563   1.810  0.2204  0.5709 -0.0557
   15MOL   C299 6207   5.050   6.559   1.950  0.2667 -0.4054  0.0093
   15MOL   C300 6208   5.109   6.690   2.002  0.5662 -0.0983  0.2124
   15MOL   C301 6209   5.176   6.688   2.134 -0.6074 -0.0793 -0.0083
   15MOL   C302 6210   5.294   6.594   2.136  0.2102  0.3776 -0.2843
   15MOL   H303 6211   5.015   6.225   1.717  0.4650 -0.4597 -0.1321
   15MOL   H304 6212   5.051   6.285   1.880  2.1798  0.4933  0.3134
   15MOL   H305 6213   4.943   6.439   1.643  1.1174  0.8290 -0.1238
   15MOL   H306 6214   5.073   6.595   1.745  0.7781 -1.0026 -0.1438
   15MOL   H307 6215   4.922   6.645   1.794 -1.2352 -0.6842 -0.2260
   15MOL   H308 6216   5.126   6.482   1.965 -0.5119 -1.2166 -0.1944
   15MOL   H309 6217   4.964   6.532   2.011 -0.9773 -1.9033 -2.3449
   15MOL   H310 6218   5.032   6.766   2.017  0.4386 -0.5251  1.8115
   15MOL   H311 6219   5.170   6.724   1.919  1.2495 -1.3110  0.1943
   15MOL   H312 6220   5.212   6.788   2.160 -2.2584  0.0722  1.8249
   15MOL   H313 6221   5.111   6.656   2.215 -0.2495 -1.5373 -0.2823
   15MOL   H314 6222   5.339   6.602   2.235  3.0619  0.2683 -1.5277
   15MOL   H315 6223   5.264   6.491   2.118 -0.7733  0.5430  0.3810
   15MOL   H316 6224   5.360   6.626   2.055  0.2994 -0.7430 -0.6537
   15MOL   C317 6225   4.805   6.386   1.804  0.2918 -0.2679  0.1442
   15MOL   C318 6226   4.681   6.477   1.757  0.5209  0.1137 -0.5458
   15MOL   C319 6227   4.644   6.453   1.609 -0.0926 -0.3854  0.0498
   15MOL   C320 6228   4.710   6.556   1.517  0.4925  0.5034 -0.7126
   15MOL   C321 6229   4.646   6.571   1.381  0.2747 -0.6554  0.2910
   15MOL   C322 6230   4.664   6.448   1.293  0.5232  0.1321 -0.3363
   15MOL   C323 6231   4.809   6.428   1.265  0.0390  0.8411 -0.0378
   15MOL   H324 6232   4.818   6.375   1.911  2.8566  1.0038  0.0090
   15MOL   H325 6233   4.779   6.284   1.773 -3.1659  0.1676  1.3969
   15MOL   H326 6234   4.707   6.583   1.761  0.1920  0.1491  1.0955
   15MOL   H327 6235   4.536   6.463   1.598 -0.1613  0.2190  1.1821
   15MOL   H328 6236   4.665   6.351   1.580 -1.6197 -0.9924  0.9978
   15MOL   H329 6237   4.818   6.546   1.506  0.8750  1.8787  1.4514
   15MOL   H330 6238   4.699   6.654   1.563  0.1021  1.1038 -2.0523
   15MOL   H331 6239   4.689   6.658   1.331  0.9194 -0.6961  0.7755
   15MOL   H332 6240   4.539   6.588   1.393 -0.2524 -1.5073 -2.8199
   15MOL   H333 6241   4.609   6.462   1.199  0.1777  0.3618 -0.1023
   15MOL   H334 6242   4.623   6.360   1.343 -0.7970 -0.0482 -1.6622
   15MOL   H335 6243   4.854   6.370   1.346  2.0006  1.6480 -0.5123
   15MOL   H336 6244   4.870   6.517   1.249 -0.7092  1.4366  0.4639
   15MOL   H337 6245   4.815   6.366   1.175 -0.2183  0.5318  0.1564
   15MOL   C338 6246   4.555   6.454   1.835 -0.4310  0.0475  0.0216
   15MOL   C339 6247   4.444   6.567   1.814  0.8097 -0.3442  0.0688
   15MOL   C340 6248   4.478   6.682   1.902  0.7260 -0.5737  0.2122
   15MOL   C341 6249   4.384   6.807   1.893  0.5098 -1.2856  0.1473
   15MOL   C342 6250   4.357   6.864   1.750 -0.2305  0.5187  0.3900
   15MOL   C343 6251   4.341   7.020   1.736 -0.1683  0.3882  0.0429
   15MOL   C344 6252   4.262   7.047   1.608 -0.1757 -0.1778 -0.4409
   15MOL   H345 6253   4.575   6.446   1.942  1.8045  0.5352 -0.3553
   15MOL   H346 6254   4.518   6.358   1.798  2.2598  0.2575 -3.3997
   15MOL   H347 6255   4.449   6.597   1.709  0.7308  0.8884  0.4080
   15MOL   H348 6256   4.479   6.659   2.008  0.8258 -1.5692 -0.0023
   15MOL   H349 6257   4.572   6.728   1.870 -0.4228  1.4761 -0.3667
   15MOL   H350 6258   4.431   6.890   1.946  1.0028 -1.2027 -0.4098
   15MOL   H351 6259   4.289   6.781   1.940 -0.1901 -1.3526 -1.2812
   15MOL   H352 6260   4.436   6.828   1.684  0.9417  1.3412  1.3208
   15MOL   H353 6261   4.262   6.821   1.718 -1.2469  1.8989  1.4978
   15MOL   H354 6262   4.291   7.063   1.823 -0.8133  0.6750 -0.4693
   15MOL   H355 6263   4.441   7.065   1.741  0.1387 -0.4654  2.1369
   15MOL   H356 6264   4.174   6.986   1.593 -0.3206  0.1426 -0.8932
   15MOL   H357 6265   4.324   7.052   1.519  1.3239  0.2010  0.5932
   15MOL   H358 6266   4.229   7.151   1.609 -0.7013 -0.3268 -1.7760
   15MOL   C359 6267   4.307   6.503   1.844 -0.1435  0.3082 -0.0356
   15MOL   C360 6268   4.259   6.395   1.736 -0.6347 -0.4685 -0.2386
   15MOL   C361 6269   4.234   6.268   1.816  0.0526  0.7398 -0.0508
   15MOL   C362 6270   4.211   6.138   1.750  0.3200 -0.0141  0.5345
   15MOL   C363 6271   4.212   6.036   1.861 -0.1800 -0.3755 -0.8396
   15MOL   C364 6272   4.192   5.892   1.809  0.5289 -0.0447  0.1970
   15MOL   C365 6273   4.217   5.790   1.919 -1.0348  0.0127  0.2201
   15MOL   H366 6274   4.226   6.575   1.845 -1.0986 -0.7092 -1.6525
   15MOL   H367 6275   4.311   6.457   1.943  2.3063 -0.3047 -0.3899
   15MOL   H368 6276   4.338   6.373   1.663 -1.7025  0.6358 -1.7667
   15MOL   H369 6277   4.318   6.262   1.885 -0.8392  0.1186  0.9891
   15MOL   H370 6278   4.149   6.282   1.883  1.5711  2.2039  1.6482
   15MOL   H371 6279   4.120   6.133   1.691  0.6287  0.1629  0.0443
   15MOL   H372 6280   4.284   6.128   1.670  0.0493 -0.0833  0.2931
   15MOL   H373 6281   4.308   6.041   1.914 -1.1639  0.4970  0.8941
   15MOL   H374 6282   4.141   6.063   1.939  0.3850  2.7390 -1.3157
   15MOL   H375 6283   4.088   5.870   1.786  0.0187  2.1331  0.2327
   15MOL   H376 6284   4.252   5.875   1.719  0.0870 -0.7071  0.0268
   15MOL   H377 6285   4.133   5.795   1.988 -0.0598 -0.8396  1.4899
   15MOL   H378 6286   4.235   5.685   1.895  3.3673  0.2369  2.0445
   15MOL   H379 6287   4.304   5.827   1.973  0.0306 -1.2636 -0.5846
   15MOL   C380 6288   4.138   6.437   1.654 -0.4594 -0.6756 -0.3431
   15MOL   C381 6289   4.148   6.565   1.579 -0.9544 -0.2395  0.6842
   15MOL   C382 6290   4.244   6.546   1.459  0.5647  1.0285  0.0885
   15MOL   C383 6291   4.199   6.443   1.347 -0.6625  0.0582 -0.3477
   15MOL   C384 6292   4.310   6.401   1.252 -0.3407 -0.1001 -0.2254
   15MOL   C385 6293   4.268   6.294   1.155 -0.1018 -0.1640 -0.3116
   15MOL   C386 6294   4.361   6.267   1.045  0.3930  0.1140 -0.1772
   15MOL   H387 6295   4.117   6.348   1.594  0.4970 -1.2848  0.2159
   15MOL   H388 6296   4.052   6.438   1.721  0.2488  0.1711  0.5624
   15MOL   H389 6297   4.182   6.653   1.633  0.2038  0.6102 -1.3868
   15MOL   H390 6298   4.346   6.518   1.485 -0.1322 -0.2598  1.5074
   15MOL   H391 6299   4.250   6.644   1.411 -0.5288  0.4664 -1.2553
   15MOL   H392 6300   4.167   6.347   1.388  0.7268  0.3616  1.4967
   15MOL   H393 6301   4.109   6.477   1.296 -2.0182 -1.1965  1.1644
   15MOL   H394 6302   4.347   6.484   1.191 -2.9136 -0.1640 -1.9481
   15MOL   H395 6303   4.390   6.358   1.312  0.5307  1.7814 -0.0010
   15MOL   H396 6304   4.170   6.314   1.111  0.2827 -1.0891 -1.6530
   15MOL   H397 6305   4.256   6.196   1.202  1.5884 -0.8113 -1.2105
   15MOL   H398 6306   4.370   6.369   1.009 -0.4649 -0.0038 -0.7397
   15MOL   H399 6307   4.316   6.206   0.967  2.7282  0.1061 -1.5605
   15MOL   H400 6308   4.456   6.223   1.075 -0.4418 -1.0071  0.8882
   15MOL   C401 6309   4.007   6.612   1.526  0.1658 -0.0518  0.4420
   15MOL   C402 6310   3.914   6.672   1.625  0.2522  0.0888 -0.4470
   15MOL   C403 6311   3.761   6.672   1.592 -0.5271  0.5429 -0.0304
   15MOL   C404 6312   3.724   6.751   1.464 -0.2300 -0.4329 -1.0276
   15MOL   C405 6313   3.585   6.726   1.399 -0.3948  0.4449 -0.1250
   15MOL   C406 6314   3.470   6.781   1.483  0.1749  0.3014  0.5589
   15MOL   C407 6315   3.448   6.932   1.476  0.3631 -0.1370 -0.2133
   15MOL   H408 6316   3.967   6.517   1.488  0.4261  0.1212 -0.2775
   15MOL   H409 6317   4.025   6.673   1.438 -0.4561 -2.9494 -1.7853
   15MOL   H410 6318   3.940   6.776   1.643  0.5569 -0.0167 -0.2730
   15MOL   H411 6319   3.700   6.718   1.670 -1.0289  1.7278 -1.0995
   15MOL   H412 6320   3.734   6.567   1.583  2.3237 -0.1828 -0.6796
   15MOL   H413 6321   3.798   6.733   1.385  0.5277  0.2601 -0.4802
   15MOL   H414 6322   3.739   6.855   1.493 -0.5014  0.8846 -5.2654
   15MOL   H415 6323   3.590   6.764   1.297 -0.8452  1.1270  0.1091
   15MOL   H416 6324   3.560   6.620   1.405  0.1399  0.2581 -1.1802
   15MOL   H417 6325   3.378   6.738   1.442  1.4270 -0.8314 -1.1257
   15MOL   H418 6326   3.471   6.752   1.588  0.2467 -0.8945  0.2393
   15MOL   H419 6327   3.371   6.974   1.541 -0.7872  0.6824 -2.0698
   15MOL   H420 6328   3.421   6.965   1.376 -2.6322 -3.6198 -0.6590
   15MOL   H421 6329   3.544   6.974   1.507 -0.2215  0.2751  1.0940
   15MOL   H422 6330   3.923   6.620   1.720  0.5611  1.7877  0.4634
   16MOL     C1 6331   3.295   2.429   2.996 -0.3675  0.1261 -0.0978
   16MOL     C2 6332   3.164   2.393   3.070 -0.0491  0.0241  0.6555
   16MOL     C3 6333   3.104   2.264   3.030  0.0016 -0.0991  1.1345
   16MOL     C4 6334   3.000   2.202   3.128  0.0120  0.1157  0.0577
   16MOL     C5 6335   2.952   2.074   3.059  0.1031  0.4967  0.7324
   16MOL     C6 6336   2.859   1.995   3.151  0.5905  0.0894  0.2040
   16MOL     C7 6337   2.729   2.058   3.203 -0.2042  0.0851 -0.3058
   16MOL     H8 6338   3.357   2.340   2.991  0.9371  0.9880  0.5630
   16MOL     H9 6339   3.346   2.509   3.050  2.7171 -0.4990 -1.9292
   16MOL    H10 6340   3.168   2.394   3.179 -2.0744  2.0374  0.7532
   16MOL    H11 6341   3.063   2.290   2.933 -0.9884 -1.4109  1.1775
   16MOL    H12 6342   3.178   2.187   3.005 -1.4836 -1.0484 -0.4537
   16MOL    H13 6343   3.038   2.172   3.225 -0.7875  2.0352  0.9743
   16MOL    H14 6344   2.920   2.273   3.146 -2.0544 -1.4847 -2.3682
   16MOL    H15 6345   3.030   2.007   3.022  1.0332  1.1274  1.5441
   16MOL    H16 6346   2.894   2.104   2.972 -0.2186  1.0232  1.1288
   16MOL    H17 6347   2.906   1.964   3.245 -0.1098 -1.1310  0.1681
   16MOL    H18 6348   2.828   1.912   3.087 -1.1475  1.5630 -0.8851
   16MOL    H19 6349   2.746   2.128   3.285 -0.9015  0.4324 -0.4581
   16MOL    H20 6350   2.661   1.989   3.253 -2.6746  2.2486 -0.5593
   16MOL    H21 6351   2.670   2.106   3.125  0.3739  2.2423  0.5448
   16MOL    H22 6352   3.282   2.472   2.896  2.7035 -1.5585 -1.2722
   16MOL    C23 6353   3.062   2.507   3.047 -0.1825 -0.4016  0.4378
   16MOL    C24 6354   3.081   2.649   3.113 -0.0902  0.2053 -0.0439
   16MOL    C25 6355   3.009   2.652   3.252  0.7786 -0.5086 -0.2381
   16MOL    C26 6356   3.033   2.780   3.335  1.4870  0.0380  0.1059
   16MOL    C27 6357   2.988   2.767   3.482 -0.6091  0.0409  0.3366
   16MOL    C28 6358   3.015   2.896   3.558 -0.1084 -0.3156 -0.1770
   16MOL    C29 6359   2.918   2.902   3.676 -0.3048 -0.5953  0.4982
   16MOL    H30 6360   3.055   2.510   2.938 -1.9498  0.8651  0.5663
   16MOL    H31 6361   2.962   2.473   3.072 -0.0181 -3.1252 -2.2635
   16MOL    H32 6362   3.184   2.664   3.144  0.9413 -4.3569 -0.9715
   16MOL    H33 6363   3.053   2.566   3.303 -1.0913 -0.8273  0.8569
   16MOL    H34 6364   2.902   2.645   3.229  0.9669  1.8930 -2.0551
   16MOL    H35 6365   2.972   2.860   3.292 -1.8568 -2.7776 -0.5964
   16MOL    H36 6366   3.140   2.802   3.334  1.0016  2.7568  1.5862
   16MOL    H37 6367   3.049   2.696   3.537 -2.0986 -0.7033  1.0473
   16MOL    H38 6368   2.884   2.735   3.483 -0.3889 -0.7969 -1.1408
   16MOL    H39 6369   3.003   2.979   3.488 -2.5871  0.3899  0.9980
   16MOL    H40 6370   3.118   2.899   3.593  0.4570 -0.2156 -1.8287
   16MOL    H41 6371   2.817   2.891   3.637 -0.1495  1.0757 -0.4044
   16MOL    H42 6372   2.931   2.821   3.748  1.7953  0.1051  0.9166
   16MOL    H43 6373   2.915   2.985   3.746  1.6072 -1.7424  2.0110
   16MOL    C44 6374   3.044   2.762   3.014 -0.2297  0.4658 -0.4073
   16MOL    C45 6375   3.150   2.802   2.911  0.1944  0.3232  0.0762
   16MOL    C46 6376   3.086   2.891   2.803  0.1724  0.4759  0.4309
   16MOL    C47 6377   3.157   2.895   2.666 -0.4582 -0.4313  0.8212
   16MOL    C48 6378   3.077   2.988   2.574 -0.3940 -0.0115 -0.2185
   16MOL    C49 6379   3.135   2.991   2.431  0.1714 -0.0369  0.6973
   16MOL    C50 6380   3.105   2.850   2.367 -0.0314 -0.0333  0.4370
   16MOL    H51 6381   3.018   2.854   3.065  1.1455  1.6827 -1.8277
   16MOL    H52 6382   2.946   2.729   2.980 -0.7061 -1.8086  2.8946
   16MOL    H53 6383   3.175   2.709   2.859 -0.7205  0.6987 -1.0731
   16MOL    H54 6384   3.085   2.997   2.832  1.1506  1.0932 -1.7194
   16MOL    H55 6385   2.983   2.857   2.795  0.3002  0.4422 -1.0829
   16MOL    H56 6386   3.261   2.927   2.669 -0.1055 -1.4934 -0.0303
   16MOL    H57 6387   3.163   2.791   2.633 -0.0773 -0.3805  0.7203
   16MOL    H58 6388   3.083   3.084   2.624  0.8683  0.8424 -1.9790
   16MOL    H59 6389   2.969   2.976   2.583 -0.6203  2.1090  0.0504
   16MOL    H60 6390   3.243   3.007   2.442  0.1232  1.1201 -0.3661
   16MOL    H61 6391   3.082   3.068   2.375 -0.1091 -1.4915 -1.0860
   16MOL    H62 6392   3.000   2.822   2.379 -0.2119  0.2101 -0.4833
   16MOL    H63 6393   3.172   2.777   2.413  2.5938  2.3695  0.5451
   16MOL    H64 6394   3.121   2.847   2.259 -1.2134 -1.3746  0.2749
   16MOL    C65 6395   3.284   2.853   2.973 -0.0788 -0.2248  0.2842
   16MOL    C66 6396   3.286   2.950   3.099 -0.1322 -0.1181 -0.1048
   16MOL    C67 6397   3.194   3.070   3.082 -0.0934 -0.2365  0.2090
   16MOL    C68 6398   3.159   3.155   3.204 -0.1609  0.3401  0.6244
   16MOL    C69 6399   3.055   3.264   3.175 -0.4208  0.0993  0.2758
   16MOL    C70 6400   3.037   3.361   3.295  0.0999 -0.2731 -1.1431
   16MOL    C71 6401   2.926   3.470   3.273  0.0819 -0.6033  0.3189
   16MOL    H72 6402   3.345   2.767   3.002  2.8377  1.9910  0.9001
   16MOL    H73 6403   3.339   2.908   2.897  0.4236  0.2852  1.0136
   16MOL    H74 6404   3.270   2.906   3.197 -1.7156  1.1672  0.2337
   16MOL    H75 6405   3.248   3.125   3.005  0.0353  0.2061  0.6152
   16MOL    H76 6406   3.100   3.049   3.032 -0.2015 -0.5677  0.5447
   16MOL    H77 6407   3.139   3.086   3.286  1.1913 -1.6569 -0.6799
   16MOL    H78 6408   3.245   3.209   3.245 -1.2263  2.5326  0.0323
   16MOL    H79 6409   3.078   3.322   3.086 -0.5959  0.1695  0.2774
   16MOL    H80 6410   2.964   3.212   3.149 -0.1592 -0.6650  0.8655
   16MOL    H81 6411   3.134   3.400   3.324 -0.9986  1.3244  0.4870
   16MOL    H82 6412   3.015   3.295   3.379  1.5375 -0.6704 -1.0680
   16MOL    H83 6413   2.825   3.429   3.271  0.4900 -1.6213 -0.9625
   16MOL    H84 6414   2.933   3.547   3.349  1.8301  0.7730 -1.1581
   16MOL    H85 6415   2.931   3.522   3.177  2.8521  0.7026  1.1226
   16MOL    C86 6416   3.432   2.999   3.124  0.8420  0.0027  0.1758
   16MOL    C87 6417   3.528   2.902   3.195 -0.4270  0.5719 -0.3913
   16MOL    C88 6418   3.488   2.882   3.342 -0.0875  0.4531 -0.3902
   16MOL    C89 6419   3.461   3.018   3.425  0.2270 -0.4006  0.6134
   16MOL    C90 6420   3.438   3.003   3.572  0.1868 -0.4354 -0.5058
   16MOL    C91 6421   3.416   3.134   3.647 -0.3801  0.5351  0.3991
   16MOL    C92 6422   3.277   3.191   3.659  0.0372 -0.1703  0.7645
   16MOL    H93 6423   3.486   3.024   3.032  1.1324 -0.7670  0.1348
   16MOL    H94 6424   3.428   3.098   3.169  1.0396  0.8964 -1.7135
   16MOL    H95 6425   3.618   2.964   3.200  0.6177 -0.9418  0.1138
   16MOL    H96 6426   3.404   2.815   3.362 -0.8437  1.2515 -0.8471
   16MOL    H97 6427   3.576   2.842   3.393  0.4058  1.5541 -0.3532
   16MOL    H98 6428   3.548   3.081   3.407 -0.5608  0.2690 -0.9548
   16MOL    H99 6429   3.376   3.076   3.390  0.5032 -0.0632  0.4976
   16MOL   H100 6430   3.525   2.958   3.619  0.0878 -2.6303 -2.3783
   16MOL   H101 6431   3.358   2.933   3.596  0.0238  0.3632  1.4113
   16MOL   H102 6432   3.456   3.121   3.748  0.9346 -1.4785 -0.3411
   16MOL   H103 6433   3.484   3.204   3.598 -0.1018 -0.1232 -0.1656
   16MOL   H104 6434   3.285   3.267   3.737  2.1681 -1.4074  1.8017
   16MOL   H105 6435   3.205   3.116   3.692 -0.9075  0.4881  0.2073
   16MOL   H106 6436   3.239   3.227   3.563  2.3160 -1.8172 -0.8219
   16MOL   C107 6437   3.573   2.761   3.130  0.0871  0.5176 -0.6247
   16MOL   C108 6438   3.722   2.710   3.151  0.5401  0.9933 -0.7126
   16MOL   C109 6439   3.724   2.560   3.102 -0.4255 -0.1037 -0.5535
   16MOL   C110 6440   3.871   2.498   3.107 -0.1561 -0.2737  0.5412
   16MOL   C111 6441   3.859   2.343   3.090 -0.5806  0.3994 -0.1037
   16MOL   C112 6442   3.855   2.271   3.223 -0.2088 -0.4493 -0.1403
   16MOL   C113 6443   3.821   2.124   3.210  1.0712  0.1458  0.4843
   16MOL   H114 6444   3.547   2.774   3.025 -1.5564  1.2830 -0.1397
   16MOL   H115 6445   3.508   2.682   3.169 -0.7135  1.3419 -0.2817
   16MOL   H116 6446   3.735   2.719   3.259 -0.1222  1.0602 -0.6359
   16MOL   H117 6447   3.707   2.566   2.995  1.0106 -0.7640 -0.8290
   16MOL   H118 6448   3.648   2.498   3.150 -1.7217 -0.2449 -2.7567
   16MOL   H119 6449   3.925   2.532   3.018  2.1634 -3.9104  0.4416
   16MOL   H120 6450   3.917   2.515   3.204  2.1855 -0.3518 -0.5169
   16MOL   H121 6451   3.944   2.307   3.031  0.3643 -1.2080  2.1647
   16MOL   H122 6452   3.775   2.319   3.025 -1.0838  1.4201  0.1708
   16MOL   H123 6453   3.949   2.286   3.276  0.3153 -1.5670 -0.7445
   16MOL   H124 6454   3.776   2.313   3.285  0.9645 -0.2700  1.2398
   16MOL   H125 6455   3.777   2.089   3.304 -0.2700 -1.3215 -0.6620
   16MOL   H126 6456   3.747   2.114   3.131 -1.2536 -0.9410  2.6868
   16MOL   H127 6457   3.908   2.062   3.188  0.9269  0.8434 -2.1994
   16MOL   C128 6458   3.822   2.798   3.087  0.5769 -0.2465  0.2794
   16MOL   C129 6459   3.940   2.854   3.168  0.8397 -0.5054 -0.0441
   16MOL   C130 6460   3.900   2.947   3.285  0.5298  0.4240 -0.2278
   16MOL   C131 6461   3.887   3.099   3.253 -0.1443 -0.1502 -0.1211
   16MOL   C132 6462   3.847   3.181   3.376 -0.7351 -0.2081 -0.1930
   16MOL   C133 6463   3.844   3.332   3.352  0.0877 -0.7645  0.3307
   16MOL   C134 6464   3.804   3.425   3.465  0.0641 -0.7505  0.2717
   16MOL   H135 6465   3.845   2.758   2.988 -1.0190  3.0273 -1.5230
   16MOL   H136 6466   3.771   2.893   3.068 -2.9043 -2.0978  0.0557
   16MOL   H137 6467   3.978   2.764   3.218  2.3763 -0.5249 -1.1899
   16MOL   H138 6468   3.985   2.946   3.354 -0.0497  2.7121  0.5451
   16MOL   H139 6469   3.822   2.912   3.353  1.5013 -0.2818  0.5391
   16MOL   H140 6470   3.813   3.105   3.173  0.5899 -0.6912 -0.8546
   16MOL   H141 6471   3.975   3.137   3.201  0.6432  0.5358  1.6641
   16MOL   H142 6472   3.922   3.156   3.452 -0.5685  0.5337 -0.1152
   16MOL   H143 6473   3.752   3.138   3.408 -0.6330  1.2861  2.1778
   16MOL   H144 6474   3.776   3.330   3.267  2.4542 -2.2902 -1.5997
   16MOL   H145 6475   3.937   3.373   3.313  0.5970  0.1736  2.4466
   16MOL   H146 6476   3.898   3.435   3.519  0.0862  0.2217  0.0575
   16MOL   H147 6477   3.734   3.385   3.538  1.6060  2.1489  3.5011
   16MOL   H148 6478   3.782   3.524   3.424  2.6836 -0.7532 -1.2760
   16MOL   C149 6479   4.059   2.901   3.073 -0.2447  1.0921  0.2229
   16MOL   C150 6480   4.139   2.803   2.985  0.2469  0.2455 -0.0466
   16MOL   C151 6481   4.203   2.691   3.071  0.0017  0.0759 -0.4190
   16MOL   C152 6482   4.250   2.564   3.000 -0.8881  0.3386 -0.1568
   16MOL   C153 6483   4.310   2.448   3.091 -0.0078  0.4662  0.8048
   16MOL   C154 6484   4.209   2.357   3.169  0.1111 -0.3546  0.5558
   16MOL   C155 6485   4.271   2.247   3.260  0.1645 -0.2874 -0.6264
   16MOL   H156 6486   4.018   2.975   3.004 -1.5509  0.4041  0.2355
   16MOL   H157 6487   4.138   2.948   3.131  1.2899 -3.5680  2.1612
   16MOL   H158 6488   4.071   2.743   2.923 -0.0098 -1.1670  1.5406
   16MOL   H159 6489   4.295   2.738   3.106 -0.2030  1.0354 -1.1445
   16MOL   H160 6490   4.141   2.656   3.153  0.9801  0.6274  0.5760
   16MOL   H161 6491   4.323   2.578   2.920  0.7479 -0.0851  1.2299
   16MOL   H162 6492   4.173   2.521   2.936 -1.2455  1.8797 -0.7908
   16MOL   H163 6493   4.370   2.500   3.165  2.0749  0.8457 -1.0900
   16MOL   H164 6494   4.373   2.393   3.022  0.1458  1.7035 -0.0781
   16MOL   H165 6495   4.148   2.309   3.093  0.6694  1.1566 -0.8947
   16MOL   H166 6496   4.140   2.417   3.228 -1.4994 -0.0783 -1.5418
   16MOL   H167 6497   4.293   2.283   3.361  0.6753 -0.0680 -0.8162
   16MOL   H168 6498   4.361   2.206   3.215  1.4029  2.2062 -0.4648
   16MOL   H169 6499   4.194   2.169   3.267  0.0746 -0.2321 -1.0017
   16MOL   C170 6500   4.251   2.873   2.903  0.1449  0.0748 -0.0289
   16MOL   C171 6501   4.209   2.980   2.796 -0.2521 -0.1509  0.1825
   16MOL   C172 6502   4.329   3.029   2.714 -0.3836  0.9175  0.3187
   16MOL   C173 6503   4.427   3.111   2.795  0.0823  0.3339 -1.1644
   16MOL   C174 6504   4.360   3.239   2.841 -0.3845 -0.4994  0.2911
   16MOL   C175 6505   4.461   3.330   2.910  0.2390  0.2530  0.0677
   16MOL   C176 6506   4.562   3.400   2.828 -0.2196  0.0136  0.4958
   16MOL   H177 6507   4.296   2.803   2.833 -0.8901 -0.7745  0.1434
   16MOL   H178 6508   4.327   2.903   2.975 -1.3772  0.1645  1.5874
   16MOL   H179 6509   4.174   3.064   2.856  0.8706  1.7476 -1.7777
   16MOL   H180 6510   4.305   3.084   2.624  0.9573  0.2812 -0.4413
   16MOL   H181 6511   4.390   2.940   2.695 -1.3248  0.4499 -0.5475
   16MOL   H182 6512   4.517   3.120   2.735  1.4385  0.3908  0.8292
   16MOL   H183 6513   4.455   3.050   2.881 -2.7690 -0.9915 -1.1076
   16MOL   H184 6514   4.270   3.222   2.900  0.2478 -0.3852  1.2956
   16MOL   H185 6515   4.312   3.293   2.759  0.8399  1.2539  0.6830
   16MOL   H186 6516   4.504   3.280   2.997  0.4337  0.5845  0.1618
   16MOL   H187 6517   4.403   3.413   2.950  0.1418  0.1826  0.0716
   16MOL   H188 6518   4.510   3.436   2.739  0.6474 -0.2463 -0.1174
   16MOL   H189 6519   4.637   3.329   2.794  2.2209  1.4114  2.6908
   16MOL   H190 6520   4.607   3.490   2.871  2.4552  0.6389 -3.3233
   16MOL   C191 6521   4.093   2.920   2.712 -0.3878 -0.2287 -0.3337
   16MOL   C192 6522   4.021   3.016   2.605  0.6332 -0.7811 -0.4606
   16MOL   C193 6523   3.902   2.936   2.544 -0.1444  0.9131 -0.3308
   16MOL   C194 6524   3.792   2.879   2.642 -0.5306 -0.4939 -0.2581
   16MOL   C195 6525   3.686   2.807   2.563 -0.2017 -0.2150  0.3580
   16MOL   C196 6526   3.568   2.750   2.643 -0.2709  0.0559  0.8674
   16MOL   C197 6527   3.476   2.644   2.579  0.7510  0.4847 -0.3721
   16MOL   H198 6528   4.017   2.892   2.785  0.0165 -0.9921 -0.1990
   16MOL   H199 6529   4.135   2.830   2.667  1.3731  1.0941 -1.4127
   16MOL   H200 6530   4.086   3.029   2.518 -0.0488  2.6373 -0.4994
   16MOL   H201 6531   3.946   2.851   2.492 -2.2450 -0.3810 -0.0290
   16MOL   H202 6532   3.865   2.989   2.457 -2.4757 -0.9657 -0.5217
   16MOL   H203 6533   3.751   2.970   2.686  0.4821  0.1827 -0.7003
   16MOL   H204 6534   3.841   2.821   2.720  2.2802  0.9668 -0.8688
   16MOL   H205 6535   3.638   2.883   2.501  0.4648 -0.7314 -0.8281
   16MOL   H206 6536   3.719   2.719   2.508 -0.0301  0.4004 -0.5529
   16MOL   H207 6537   3.513   2.839   2.670 -0.2144  0.2633  0.3011
   16MOL   H208 6538   3.600   2.701   2.735 -0.7274 -0.0951  0.9475
   16MOL   H209 6539   3.426   2.686   2.491 -0.2574 -0.6168 -0.3376
   16MOL   H210 6540   3.397   2.611   2.646 -0.8520  2.2349 -1.3620
   16MOL   H211 6541   3.531   2.561   2.533  0.7186 -0.0325  0.5202
   16MOL   C212 6542   3.983   3.155   2.664  0.0562  0.0493 -0.0248
   16MOL   C213 6543   3.936   3.268   2.572  0.3039  0.3336 -0.6111
   16MOL   C214 6544   3.875   3.392   2.633  0.2425  1.0397  0.0936
   16MOL   C215 6545   3.765   3.372   2.741  0.2004 -0.3534 -0.6864
   16MOL   C216 6546   3.639   3.296   2.699  0.2544 -0.1713 -0.1102
   16MOL   C217 6547   3.529   3.281   2.802  0.2361  0.2812  0.1987
   16MOL   C218 6548   3.391   3.225   2.735  0.2401 -0.1711 -0.1781
   16MOL   H219 6549   4.061   3.188   2.733  0.3875  1.4297 -1.0564
   16MOL   H220 6550   3.896   3.141   2.729  0.6166 -0.0220  0.7277
   16MOL   H221 6551   3.854   3.224   2.517 -0.4900  1.0051  0.0192
   16MOL   H222 6552   3.955   3.450   2.681  1.5463 -2.3149  2.1530
   16MOL   H223 6553   3.850   3.463   2.555 -0.6119  2.0583  1.2659
   16MOL   H224 6554   3.732   3.474   2.758  1.1629 -0.4470  1.8696
   16MOL   H225 6555   3.803   3.331   2.835 -0.5661 -1.3756 -0.8067
   16MOL   H226 6556   3.606   3.348   2.609 -0.2501  0.0829  0.2121
   16MOL   H227 6557   3.659   3.198   2.656 -2.2062 -0.3273 -0.9850
   16MOL   H228 6558   3.570   3.223   2.885 -1.4164 -1.6561 -0.2942
   16MOL   H229 6559   3.509   3.379   2.846 -0.8220 -0.0145  0.3898
   16MOL   H230 6560   3.324   3.185   2.811  1.3251 -3.6662 -0.9365
   16MOL   H231 6561   3.412   3.142   2.666 -1.6195  0.2269 -1.2425
   16MOL   H232 6562   3.345   3.308   2.682 -1.5498  0.2862  2.0619
   16MOL   C233 6563   4.052   3.305   2.478 -0.4165 -0.6347  0.2913
   16MOL   C234 6564   4.035   3.250   2.334  0.6231 -0.6723  0.5802
   16MOL   C235 6565   3.954   3.365   2.257  0.5101  0.4344 -1.2839
   16MOL   C236 6566   3.861   3.322   2.141 -0.4456 -0.7079  0.3489
   16MOL   C237 6567   3.779   3.437   2.074  0.3230  0.1091  0.3586
   16MOL   C238 6568   3.677   3.368   1.985  0.7453  0.1953  1.1097
   16MOL   C239 6569   3.588   3.471   1.915 -0.3924 -0.2904  0.3511
   16MOL   H240 6570   4.145   3.271   2.524  0.8009  0.2471 -1.4567
   16MOL   H241 6571   4.061   3.414   2.481 -2.3719 -0.4395 -0.3806
   16MOL   H242 6572   3.972   3.162   2.348  2.1096 -1.9362 -0.5460
   16MOL   H243 6573   4.029   3.431   2.212  0.5702  0.7230 -0.7580
   16MOL   H244 6574   3.907   3.427   2.333 -0.3760 -1.5763 -0.1778
   16MOL   H245 6575   3.797   3.247   2.188 -1.0096 -0.1050  0.5674
   16MOL   H246 6576   3.925   3.265   2.074  1.7980  2.9114 -0.7223
   16MOL   H247 6577   3.851   3.485   2.008  0.2018 -1.8881 -1.2859
   16MOL   H248 6578   3.742   3.513   2.143  1.1827 -1.7899  2.9921
   16MOL   H249 6579   3.729   3.318   1.903 -1.0494  0.3382 -0.1414
   16MOL   H250 6580   3.605   3.301   2.032  1.5136 -0.3919  1.4604
   16MOL   H251 6581   3.505   3.427   1.859  2.3735 -2.6235 -2.0363
   16MOL   H252 6582   3.538   3.528   1.994  0.4836 -0.0185  0.7209
   16MOL   H253 6583   3.635   3.535   1.840  0.5650 -2.8445 -1.2828
   16MOL   C254 6584   4.169   3.206   2.271 -0.3092  0.3077  0.4001
   16MOL   C255 6585   4.148   3.096   2.158  0.2834 -0.0326  0.4679
   16MOL   C256 6586   4.145   2.953   2.220 -0.7080  0.7827 -0.0112
   16MOL   C257 6587   4.280   2.888   2.266 -0.1709 -0.1801 -0.5417
   16MOL   C258 6588   4.256   2.754   2.347 -0.6833  0.3026  0.0467
   16MOL   C259 6589   4.389   2.683   2.387  0.6825  0.0189  0.3393
   16MOL   C260 6590   4.370   2.573   2.484 -0.4222 -0.4443  0.7367
   16MOL   H261 6591   4.244   3.162   2.338  0.1861  0.6325  0.0661
   16MOL   H262 6592   4.208   3.297   2.226  2.4230 -1.0734 -0.1600
   16MOL   H263 6593   4.055   3.106   2.103 -0.2421 -2.1515  0.9101
   16MOL   H264 6594   4.116   2.874   2.152 -0.0206 -0.5422  1.2179
   16MOL   H265 6595   4.072   2.939   2.299 -0.9608  0.2099 -0.3482
   16MOL   H266 6596   4.339   2.866   2.177  0.9984 -0.3101  0.2448
   16MOL   H267 6597   4.346   2.947   2.329 -1.7636 -0.2835  1.2447
   16MOL   H268 6598   4.191   2.692   2.285 -1.8239  1.7193 -0.1890
   16MOL   H269 6599   4.204   2.780   2.439  0.1899  0.2135  0.5758
   16MOL   H270 6600   4.431   2.635   2.298  0.8226 -2.1016  1.5042
   16MOL   H271 6601   4.468   2.748   2.424  2.1204 -0.7885 -1.1830
   16MOL   H272 6602   4.281   2.516   2.458 -1.4029  1.0060  0.8793
   16MOL   H273 6603   4.458   2.508   2.487  0.6499  1.0039  1.3317
   16MOL   H274 6604   4.360   2.614   2.584 -0.7524 -0.7721  0.8385
   16MOL   C275 6605   4.263   3.111   2.051 -0.0770  0.1389 -0.3127
   16MOL   C276 6606   4.236   3.213   1.939 -0.0699  0.6473  0.0676
   16MOL   C277 6607   4.319   3.165   1.808  0.5921  0.2473  0.2688
   16MOL   C278 6608   4.471   3.146   1.838 -0.6755  0.4630 -0.3379
   16MOL   C279 6609   4.563   3.276   1.861  0.2344 -0.3289  0.2628
   16MOL   C280 6610   4.716   3.251   1.846 -0.4758 -1.1053  0.7222
   16MOL   C281 6611   4.815   3.378   1.861 -0.0459  0.0230  0.1558
   16MOL   H282 6612   4.270   3.012   2.004 -1.8837  0.0635 -0.4923
   16MOL   H283 6613   4.358   3.123   2.102  0.2909  0.1504 -0.9956
   16MOL   H284 6614   4.131   3.199   1.911 -0.4638  3.3781 -0.0504
   16MOL   H285 6615   4.276   3.071   1.776  0.4383  0.5605 -0.4617
   16MOL   H286 6616   4.298   3.238   1.729 -2.8800  1.2351  1.9894
   16MOL   H287 6617   4.514   3.103   1.747 -0.2972 -0.1247  0.1146
   16MOL   H288 6618   4.490   3.084   1.925  0.8899 -1.8785 -2.2657
   16MOL   H289 6619   4.543   3.325   1.957  0.5129 -2.5032  1.4725
   16MOL   H290 6620   4.521   3.343   1.787  2.5900 -2.0703 -2.7493
   16MOL   H291 6621   4.760   3.181   1.917  2.5021 -1.9520 -1.8214
   16MOL   H292 6622   4.733   3.203   1.749  0.6112 -0.8930  0.8033
   16MOL   H293 6623   4.906   3.349   1.915 -1.3239  0.5022  2.6239
   16MOL   H294 6624   4.763   3.459   1.912 -3.6899 -1.9439 -0.3203
   16MOL   H295 6625   4.842   3.409   1.760 -2.1999  2.2405  0.2113
   16MOL   C296 6626   4.250   3.361   1.974 -1.0253 -0.9899 -0.6271
   16MOL   C297 6627   4.236   3.471   1.864  0.2758  0.1694 -0.2609
   16MOL   C298 6628   4.281   3.605   1.923  0.5320 -0.2519 -1.0329
   16MOL   C299 6629   4.194   3.658   2.039  0.7975 -0.5017 -0.0942
   16MOL   C300 6630   4.233   3.802   2.075  0.2221  0.1336  0.4832
   16MOL   C301 6631   4.282   3.812   2.222  0.0670  0.0420 -0.3279
   16MOL   C302 6632   4.333   3.954   2.268 -0.6692  0.1085  0.7525
   16MOL   H303 6633   4.171   3.387   2.045 -0.3384 -1.4092  0.3010
   16MOL   H304 6634   4.341   3.377   2.032  0.3616 -0.3578 -2.9314
   16MOL   H305 6635   4.308   3.445   1.786 -0.2570  0.8616 -0.9936
   16MOL   H306 6636   4.384   3.615   1.959  1.4213 -0.2989 -3.4473
   16MOL   H307 6637   4.265   3.679   1.845  0.8305 -0.8993 -1.7104
   16MOL   H308 6638   4.205   3.590   2.124 -3.4782  1.9685  2.5541
   16MOL   H309 6639   4.087   3.656   2.019  0.6637 -1.0960  0.6590
   16MOL   H310 6640   4.156   3.877   2.063  0.6479  0.3001 -1.5254
   16MOL   H311 6641   4.312   3.830   2.005  0.7548  1.6282  1.6685
   16MOL   H312 6642   4.196   3.775   2.278 -1.7485  3.1235 -0.9155
   16MOL   H313 6643   4.354   3.734   2.246 -0.9631 -0.2247  2.0614
   16MOL   H314 6644   4.416   3.982   2.203 -1.0257  1.7014  0.9853
   16MOL   H315 6645   4.259   4.033   2.258  0.2759  1.2171  2.3609
   16MOL   H316 6646   4.372   3.946   2.369 -0.6862  1.3409  0.8536
   16MOL   C317 6647   4.095   3.476   1.802  0.1896 -0.1922 -0.2886
   16MOL   C318 6648   4.068   3.569   1.686 -0.1334  0.0715  0.7376
   16MOL   C319 6649   4.132   3.507   1.557 -0.7531 -0.4984 -0.2291
   16MOL   C320 6650   4.069   3.380   1.490 -0.1683  0.8994 -0.0833
   16MOL   C321 6651   4.111   3.355   1.343 -0.5778  0.4600  1.2129
   16MOL   C322 6652   4.262   3.335   1.319 -0.4818 -1.1105  1.0235
   16MOL   C323 6653   4.299   3.304   1.170  0.5947  0.4857  1.0300
   16MOL   H324 6654   4.034   3.504   1.887  1.7192  1.3374  0.3574
   16MOL   H325 6655   4.074   3.372   1.780 -1.8252  0.2040 -0.2931
   16MOL   H326 6656   4.119   3.665   1.694 -1.2489  0.7773 -0.2529
   16MOL   H327 6657   4.238   3.489   1.575 -0.3940  0.6092 -1.2119
   16MOL   H328 6658   4.126   3.580   1.477  0.8778  0.5795  0.6111
   16MOL   H329 6659   3.961   3.389   1.501 -0.3708 -1.9919  0.7754
   16MOL   H330 6660   4.083   3.292   1.554 -0.4547  0.0149 -1.2227
   16MOL   H331 6661   4.072   3.439   1.286  0.6811  1.3942  1.7051
   16MOL   H332 6662   4.060   3.266   1.306  0.7637 -0.0334  0.5315
   16MOL   H333 6663   4.297   3.258   1.388 -0.1089 -0.4130  1.6176
   16MOL   H334 6664   4.322   3.424   1.341  1.0397 -1.3163 -2.0426
   16MOL   H335 6665   4.228   3.229   1.136 -0.2048  1.7119 -0.0555
   16MOL   H336 6666   4.405   3.279   1.164  0.7361  0.6662  2.4894
   16MOL   H337 6667   4.283   3.393   1.109 -0.6699 -0.8533 -0.6256
   16MOL   C338 6668   3.911   3.581   1.675 -0.5368  0.0754  0.4348
   16MOL   C339 6669   3.853   3.654   1.554 -0.0616 -0.3635 -0.2971
   16MOL   C340 6670   3.916   3.793   1.530  0.4203 -0.2065 -0.0311
   16MOL   C341 6671   3.864   3.909   1.611  0.0457 -0.1546  0.2358
   16MOL   C342 6672   3.940   4.031   1.561 -0.1121 -0.6012 -0.6790
   16MOL   C343 6673   4.084   4.052   1.610  0.6821 -0.0033  0.7797
   16MOL   C344 6674   4.099   4.067   1.756 -0.2260 -0.5568 -0.1794
   16MOL   H345 6675   3.886   3.631   1.768 -0.9769 -1.5848  1.2310
   16MOL   H346 6676   3.860   3.485   1.687 -3.9878  2.1345  2.9187
   16MOL   H347 6677   3.886   3.601   1.464 -2.1838 -0.8227 -0.8311
   16MOL   H348 6678   4.024   3.788   1.539  0.3061 -0.5459  1.2588
   16MOL   H349 6679   3.894   3.823   1.427 -0.1062  1.7894  0.6340
   16MOL   H350 6680   3.873   3.893   1.718 -1.4367  0.5220  0.4844
   16MOL   H351 6681   3.757   3.931   1.600  0.5667  1.5871 -1.6302
   16MOL   H352 6682   3.952   4.039   1.453  0.0748  0.0685 -0.6141
   16MOL   H353 6683   3.883   4.123   1.573 -0.8138 -1.2347  0.9642
   16MOL   H354 6684   4.140   3.969   1.566  0.6148  0.8439 -0.9600
   16MOL   H355 6685   4.130   4.140   1.565 -0.1461  0.2308  0.3737
   16MOL   H356 6686   4.038   4.151   1.791 -1.3762 -0.9210 -1.2879
   16MOL   H357 6687   4.202   4.089   1.785 -0.5412  0.4538  0.2149
   16MOL   H358 6688   4.072   3.977   1.810 -1.0913  0.4220  1.0631
   16MOL   C359 6689   3.702   3.651   1.574  0.5923 -0.0168  0.2378
   16MOL   C360 6690   3.622   3.700   1.455 -0.3211 -0.3570 -0.2277
   16MOL   C361 6691   3.659   3.626   1.318  0.0703  0.8835 -0.6642
   16MOL   C362 6692   3.643   3.467   1.332  0.2283  0.4275 -0.1687
   16MOL   C363 6693   3.639   3.397   1.196 -0.1985  0.7016 -0.1738
   16MOL   C364 6694   3.766   3.348   1.136 -0.1134 -0.0207 -0.4144
   16MOL   C365 6695   3.756   3.280   0.996 -0.2999 -0.2424  0.0515
   16MOL   H366 6696   3.672   3.723   1.651 -2.9393  0.3622 -1.3974
   16MOL   H367 6697   3.663   3.555   1.608 -1.4180  0.3596 -0.9314
   16MOL   H368 6698   3.665   3.798   1.432  2.7196 -1.3242  1.1163
   16MOL   H369 6699   3.585   3.670   1.251  0.7367  3.2587  0.1219
   16MOL   H370 6700   3.759   3.652   1.284  0.5652  0.3789  0.3735
   16MOL   H371 6701   3.711   3.421   1.403  0.0160 -0.7954 -0.7370
   16MOL   H372 6702   3.543   3.465   1.374 -0.3646  0.6826 -1.5347
   16MOL   H373 6703   3.570   3.313   1.199  0.3524  0.2034 -1.1121
   16MOL   H374 6704   3.597   3.472   1.130 -0.5946  1.1313  0.5556
   16MOL   H375 6705   3.837   3.430   1.139 -0.5087  0.2930  0.6335
   16MOL   H376 6706   3.808   3.276   1.207 -0.1625  0.6272  0.2697
   16MOL   H377 6707   3.656   3.249   0.963  0.4693 -1.7031 -0.9510
   16MOL   H378 6708   3.789   3.339   0.911  1.4451 -1.9503 -0.4923
   16MOL   H379 6709   3.813   3.187   1.005  0.4010  0.1860  0.0155
   16MOL   C380 6710   3.468   3.717   1.489  0.0516 -0.4729  0.1117
   16MOL   C381 6711   3.438   3.848   1.565 -0.7518 -0.3288 -0.1886
   16MOL   C382 6712   3.376   3.956   1.467  0.7896  0.1912 -0.3332
   16MOL   C383 6713   3.476   4.028   1.373 -0.2315 -0.0224 -0.0915
   16MOL   C384 6714   3.395   4.123   1.277 -0.1821 -0.1597  0.4000
   16MOL   C385 6715   3.486   4.195   1.176 -0.0431  0.4753 -0.0508
   16MOL   C386 6716   3.425   4.312   1.095 -0.0125 -0.4148  0.0809
   16MOL   H387 6717   3.418   3.708   1.393 -0.9665 -2.0678  0.7651
   16MOL   H388 6718   3.430   3.627   1.538  1.2182 -0.8589  0.3168
   16MOL   H389 6719   3.525   3.885   1.619  0.3599 -1.4415 -1.2001
   16MOL   H390 6720   3.340   4.034   1.534 -0.8117 -2.1109  1.5859
   16MOL   H391 6721   3.292   3.911   1.415 -0.3428  2.9408 -0.9894
   16MOL   H392 6722   3.557   4.066   1.436 -1.1025 -0.9650  1.6428
   16MOL   H393 6723   3.515   3.945   1.314 -1.3485 -0.1187 -0.7041
   16MOL   H394 6724   3.321   4.066   1.219  0.1318 -0.6083  0.4385
   16MOL   H395 6725   3.340   4.201   1.329 -0.3179  1.1408 -1.6234
   16MOL   H396 6726   3.526   4.116   1.111 -3.5876 -1.5809  0.1445
   16MOL   H397 6727   3.568   4.228   1.241 -0.7657 -2.7874  2.6313
   16MOL   H398 6728   3.346   4.289   1.024 -1.5466  1.3683  1.1697
   16MOL   H399 6729   3.505   4.370   1.049  0.3694 -0.7070  0.3762
   16MOL   H400 6730   3.385   4.387   1.163 -2.5341 -0.0621 -1.6890
   16MOL   C401 6731   3.325   3.816   1.671  0.0258 -0.1596  0.0526
   16MOL   C402 6732   3.374   3.748   1.797  0.2674  0.2556  0.3795
   16MOL   C403 6733   3.272   3.720   1.905  0.0494  0.3571  0.0543
   16MOL   C404 6734   3.172   3.614   1.855 -0.6646  1.1242 -0.1006
   16MOL   C405 6735   3.038   3.660   1.800  0.8322  0.5524  0.5216
   16MOL   C406 6736   2.932   3.679   1.912 -0.9623 -0.1291  0.1654
   16MOL   C407 6737   2.789   3.716   1.870 -0.0001 -0.8216 -0.2066
   16MOL   H408 6738   3.248   3.753   1.628  1.7924 -1.5635 -1.1494
   16MOL   H409 6739   3.287   3.911   1.708 -0.5102 -0.3854  0.0863
   16MOL   H410 6740   3.459   3.798   1.845 -1.4782  4.9404 -1.1119
   16MOL   H411 6741   3.204   3.806   1.912 -0.6626 -0.2368  0.4860
   16MOL   H412 6742   3.316   3.691   2.000  2.8864  0.9727 -1.0280
   16MOL   H413 6743   3.157   3.552   1.943 -0.4292  2.7534  1.1231
   16MOL   H414 6744   3.226   3.541   1.796  0.6223  1.7329  0.3174
   16MOL   H415 6745   3.034   3.745   1.732 -0.5248  1.5873  1.8624
   16MOL   H416 6746   3.004   3.585   1.729  1.0935 -2.3037  3.3307
   16MOL   H417 6747   2.930   3.584   1.965  2.0095  0.5813  1.6672
   16MOL   H418 6748   2.976   3.747   1.984 -0.0053 -0.6502  0.0823
   16MOL   H419 6749   2.777   3.782   1.784 -0.8787  0.0542  0.5764
   16MOL   H420 6750   2.739   3.757   1.958 -1.4705  0.5882 -1.6550
   16MOL   H421 6751   2.742   3.622   1.840 -1.4433 -0.0789 -0.3545
   16MOL   H422 6752   3.408   3.651   1.761 -3.1876 -0.8141 -0.2420
   17MOL     C1 6753   1.980   2.201   5.843 -0.0687 -0.8392 -0.2098
   17MOL     C2 6754   2.081   2.196   5.958 -0.1646 -0.5136 -0.4839
   17MOL     C3 6755   2.226   2.241   5.912  0.1637  0.3157 -0.0485
   17MOL     C4 6756   2.244   2.368   5.817 -0.3150  0.0071 -0.3297
   17MOL     C5 6757   2.390   2.417   5.827 -0.1481  0.0329  0.0004
   17MOL     C6 6758   2.407   2.543   5.746 -0.4800  0.4792 -0.1877
   17MOL     C7 6759   2.551   2.594   5.745 -0.6697 -0.0622  0.4302
   17MOL     H8 6760   2.011   2.135   5.762  0.6309  2.7004 -2.9115
   17MOL     H9 6761   1.959   2.304   5.816  0.5020 -0.4277  0.9056
   17MOL    H10 6762   2.054   2.262   6.040  1.6864  0.4521 -0.6107
   17MOL    H11 6763   2.287   2.246   6.002  1.6237 -0.0444 -1.0134
   17MOL    H12 6764   2.264   2.154   5.859  1.2676  0.6789  0.1436
   17MOL    H13 6765   2.239   2.347   5.710  1.6753 -1.4939 -0.1688
   17MOL    H14 6766   2.180   2.451   5.847 -0.7535 -0.2490 -0.5538
   17MOL    H15 6767   2.462   2.338   5.802 -0.7005 -0.8350  1.1086
   17MOL    H16 6768   2.418   2.446   5.928  1.1780 -0.6617 -0.1527
   17MOL    H17 6769   2.353   2.630   5.783  1.1681  0.5465  2.1893
   17MOL    H18 6770   2.363   2.522   5.648  0.1606 -1.2298 -0.1280
   17MOL    H19 6771   2.613   2.506   5.731  0.4890  0.4457  2.1810
   17MOL    H20 6772   2.584   2.641   5.838  1.1710  0.1950 -0.3391
   17MOL    H21 6773   2.566   2.669   5.667  0.4543  0.5540  1.2211
   17MOL    H22 6774   1.887   2.162   5.886  0.7539  0.0478  2.4403
   17MOL    C23 6775   2.083   2.055   6.026 -0.8137  0.2965  1.0022
   17MOL    C24 6776   2.174   2.046   6.157  0.1796  0.3376  0.4207
   17MOL    C25 6777   2.167   1.887   6.193  0.1939 -0.2605  0.4027
   17MOL    C26 6778   2.279   1.843   6.293 -0.0893  0.2708  0.4513
   17MOL    C27 6779   2.274   1.688   6.307 -0.2297  0.5278  0.4331
   17MOL    C28 6780   2.365   1.638   6.416  0.3740  0.2792  0.0203
   17MOL    C29 6781   2.513   1.630   6.382  0.2957 -0.2811  0.4966
   17MOL    H30 6782   1.982   2.029   6.058 -0.9562 -3.0495 -1.7854
   17MOL    H31 6783   2.110   1.977   5.954  1.3840 -0.3753  2.4939
   17MOL    H32 6784   2.276   2.080   6.141  1.3403 -3.8897 -1.9991
   17MOL    H33 6785   2.161   1.817   6.110 -0.0948  1.3686 -0.9879
   17MOL    H34 6786   2.074   1.863   6.245  0.9617  0.5876  2.2090
   17MOL    H35 6787   2.292   1.902   6.383 -0.9803 -1.7689  1.9576
   17MOL    H36 6788   2.372   1.870   6.243  0.7035  0.0405  1.7769
   17MOL    H37 6789   2.304   1.630   6.220 -0.7349 -0.2744  0.7749
   17MOL    H38 6790   2.175   1.644   6.323 -0.3995  0.9140  0.4502
   17MOL    H39 6791   2.336   1.533   6.424  1.0803 -0.0018 -1.0524
   17MOL    H40 6792   2.348   1.698   6.506  0.0235  1.7282 -0.9827
   17MOL    H41 6793   2.555   1.727   6.353  1.7075 -1.1250 -0.3571
   17MOL    H42 6794   2.574   1.612   6.471  1.0160  2.9432  0.7380
   17MOL    H43 6795   2.543   1.557   6.307  1.1924  0.5658  0.0023
   17MOL    C44 6796   2.118   2.126   6.276 -0.1105  0.0987 -0.5819
   17MOL    C45 6797   2.216   2.206   6.372  0.6706 -0.2737 -0.6293
   17MOL    C46 6798   2.255   2.339   6.311 -0.6072  0.2813  0.0549
   17MOL    C47 6799   2.405   2.366   6.296  0.1768  0.0120 -0.8245
   17MOL    C48 6800   2.434   2.507   6.237  0.1023  0.0835 -0.2332
   17MOL    C49 6801   2.580   2.527   6.217 -0.0680  0.5837 -0.3932
   17MOL    C50 6802   2.619   2.650   6.135 -0.0447  0.3611  0.3079
   17MOL    H51 6803   2.069   2.055   6.343  1.3781  0.6669  1.1581
   17MOL    H52 6804   2.041   2.196   6.243 -0.3214 -0.0005 -0.3088
   17MOL    H53 6805   2.310   2.152   6.383 -0.7061 -2.5791  0.0787
   17MOL    H54 6806   2.209   2.409   6.381 -0.8069  1.0344 -0.8196
   17MOL    H55 6807   2.196   2.356   6.221 -0.9106 -0.9538  0.0047
   17MOL    H56 6808   2.458   2.351   6.390  0.9315  1.5897 -0.9653
   17MOL    H57 6809   2.443   2.283   6.236  0.3058 -1.0431  0.7131
   17MOL    H58 6810   2.385   2.588   6.289  1.1569  0.2446  0.5225
   17MOL    H59 6811   2.395   2.512   6.135 -1.4471 -0.9436  0.2874
   17MOL    H60 6812   2.639   2.442   6.184 -1.5859 -1.7618  2.7010
   17MOL    H61 6813   2.622   2.537   6.317  0.6861 -1.9354 -0.4165
   17MOL    H62 6814   2.570   2.736   6.180 -1.6750  0.4305 -1.5318
   17MOL    H63 6815   2.575   2.651   6.035  3.3610 -2.2153 -1.2953
   17MOL    H64 6816   2.727   2.653   6.126 -0.0121  0.6305  0.7746
   17MOL    C65 6817   2.156   2.217   6.520  0.3605 -0.2514 -0.3934
   17MOL    C66 6818   2.238   2.273   6.635 -0.5266 -0.1937  0.0109
   17MOL    C67 6819   2.370   2.188   6.660  0.1190  0.2159 -0.2790
   17MOL    C68 6820   2.357   2.040   6.687  0.3888  0.5915 -0.1526
   17MOL    C69 6821   2.486   1.988   6.742 -0.5703  0.5766  0.2325
   17MOL    C70 6822   2.495   1.847   6.789  0.3953 -0.8561 -0.0654
   17MOL    C71 6823   2.402   1.820   6.906  0.0151  0.0351  0.2719
   17MOL    H72 6824   2.066   2.274   6.493  0.1925  0.7690  2.1702
   17MOL    H73 6825   2.117   2.119   6.547 -0.0698  0.6573  2.4699
   17MOL    H74 6826   2.268   2.375   6.611 -0.2150 -0.2249  0.2583
   17MOL    H75 6827   2.445   2.199   6.582  0.4546 -1.8629 -0.2825
   17MOL    H76 6828   2.402   2.237   6.752 -2.9502  0.4320  0.7260
   17MOL    H77 6829   2.276   2.016   6.755  0.1368  0.3871 -0.5217
   17MOL    H78 6830   2.346   1.994   6.588 -0.0142 -1.0005  0.6112
   17MOL    H79 6831   2.562   2.006   6.665 -1.4688  3.3472 -0.0323
   17MOL    H80 6832   2.523   2.060   6.815  2.2041 -0.2458 -0.2947
   17MOL    H81 6833   2.601   1.828   6.808  1.3894  2.7041 -1.5245
   17MOL    H82 6834   2.475   1.779   6.706 -1.7810  1.0716 -1.1571
   17MOL    H83 6835   2.431   1.890   6.984  1.0569  0.7510 -0.7398
   17MOL    H84 6836   2.297   1.827   6.875  0.9222 -1.3021 -3.3465
   17MOL    H85 6837   2.426   1.716   6.930  1.3546 -0.4771 -3.0053
   17MOL    C86 6838   2.152   2.282   6.764  0.6597  0.4785  0.0067
   17MOL    C87 6839   2.061   2.406   6.774 -0.3127 -0.3257  0.1841
   17MOL    C88 6840   1.906   2.369   6.791 -0.4726 -0.5240 -0.0237
   17MOL    C89 6841   1.819   2.475   6.729 -0.1383  0.0070  0.3227
   17MOL    C90 6842   1.674   2.457   6.777 -0.5291 -1.0950  0.0821
   17MOL    C91 6843   1.578   2.557   6.712  0.0578 -0.4147  0.2140
   17MOL    C92 6844   1.454   2.576   6.789  0.4795  0.5616 -0.1441
   17MOL    H93 6845   2.093   2.192   6.778  0.4470  0.4708 -0.8928
   17MOL    H94 6846   2.214   2.279   6.854 -0.5188  0.9350  0.8520
   17MOL    H95 6847   2.065   2.457   6.677  0.3259  2.7839  1.7859
   17MOL    H96 6848   1.888   2.280   6.729  1.3564 -1.7381  1.1435
   17MOL    H97 6849   1.873   2.348   6.893  0.5677  0.3058  0.4888
   17MOL    H98 6850   1.852   2.576   6.753  1.2503 -0.4462  0.3139
   17MOL    H99 6851   1.828   2.464   6.621 -0.2355  1.0105  0.2089
   17MOL   H100 6852   1.650   2.460   6.883 -1.2984  2.3984 -0.1389
   17MOL   H101 6853   1.639   2.357   6.749  1.2462 -1.7721  0.2433
   17MOL   H102 6854   1.628   2.654   6.706 -0.0279 -0.5278 -3.2781
   17MOL   H103 6855   1.557   2.535   6.607  0.0467 -0.8942  0.3176
   17MOL   H104 6856   1.400   2.670   6.778  2.2485  1.7032  0.6098
   17MOL   H105 6857   1.472   2.563   6.896 -0.0580 -1.7622 -0.3036
   17MOL   H106 6858   1.385   2.497   6.760  0.0399  0.5341  0.9317
   17MOL   C107 6859   2.115   2.509   6.868  0.3721  0.0420 -0.2819
   17MOL   C108 6860   2.253   2.569   6.837 -0.5975  0.0952 -0.4838
   17MOL   C109 6861   2.241   2.682   6.743  0.0390 -0.7434  0.9215
   17MOL   C110 6862   2.328   2.691   6.617  0.3592 -0.3367 -0.2039
   17MOL   C111 6863   2.314   2.825   6.550 -0.0934 -0.2507  0.8011
   17MOL   C112 6864   2.411   2.834   6.426 -0.1172  0.1620 -0.6059
   17MOL   C113 6865   2.445   2.989   6.391  0.1144 -0.2206 -0.1093
   17MOL   H114 6866   2.104   2.484   6.974  3.3055 -0.3400 -0.0418
   17MOL   H115 6867   2.045   2.592   6.859  0.0465 -0.4023 -1.8956
   17MOL   H116 6868   2.299   2.488   6.780  0.7396  1.3852 -1.2607
   17MOL   H117 6869   2.249   2.774   6.802  0.0593  0.0281 -0.2642
   17MOL   H118 6870   2.140   2.678   6.703  1.4809 -0.9696 -2.9427
   17MOL   H119 6871   2.435   2.671   6.617  0.4727  0.2592 -0.3728
   17MOL   H120 6872   2.287   2.615   6.551 -0.0383 -2.8488  2.7932
   17MOL   H121 6873   2.353   2.885   6.632  0.1085 -0.4768  0.8703
   17MOL   H122 6874   2.215   2.853   6.514  0.2842  1.1507  0.8422
   17MOL   H123 6875   2.507   2.792   6.457  0.4134 -1.0353 -3.7145
   17MOL   H124 6876   2.367   2.791   6.336 -0.2339 -1.9496  0.4184
   17MOL   H125 6877   2.456   2.994   6.282 -1.3431 -0.5541 -0.2713
   17MOL   H126 6878   2.376   3.069   6.418  2.8129  1.3316  2.4299
   17MOL   H127 6879   2.536   3.020   6.443 -1.4934 -0.1275  2.7095
   17MOL   C128 6880   2.326   2.611   6.977  0.6641 -0.2198  0.9234
   17MOL   C129 6881   2.474   2.642   6.959 -0.4059 -0.3865  0.1184
   17MOL   C130 6882   2.560   2.514   6.943  0.4138  0.5993 -0.0405
   17MOL   C131 6883   2.700   2.526   6.878  0.0527  0.5080  0.0545
   17MOL   C132 6884   2.701   2.553   6.730 -0.1742  0.5344  0.4065
   17MOL   C133 6885   2.843   2.562   6.667 -0.1753  0.0288  0.3279
   17MOL   C134 6886   2.850   2.572   6.510 -0.0715  0.3601 -0.0448
   17MOL   H135 6887   2.271   2.697   7.017  0.0236  0.8028 -1.9873
   17MOL   H136 6888   2.313   2.526   7.044  0.1421 -0.7872  0.1200
   17MOL   H137 6889   2.479   2.710   6.874  1.8682 -0.3588  0.2392
   17MOL   H138 6890   2.512   2.433   6.887  0.5379 -0.2639  1.0877
   17MOL   H139 6891   2.580   2.467   7.039  0.7016  0.8512  0.0255
   17MOL   H140 6892   2.763   2.441   6.900 -1.7119 -0.7194  0.4977
   17MOL   H141 6893   2.760   2.597   6.935 -1.7087  0.1780  2.3931
   17MOL   H142 6894   2.642   2.639   6.699 -0.1896  0.2854 -0.2582
   17MOL   H143 6895   2.647   2.467   6.691  0.8005  0.3015 -0.4377
   17MOL   H144 6896   2.900   2.475   6.701 -1.9762 -0.6212  1.7257
   17MOL   H145 6897   2.892   2.651   6.706  0.9094 -1.9884  3.6868
   17MOL   H146 6898   2.946   2.599   6.465 -0.4272  1.8870  0.0859
   17MOL   H147 6899   2.784   2.653   6.483 -0.9781 -0.2707  0.2627
   17MOL   H148 6900   2.827   2.480   6.456 -0.0504  0.1233  0.3467
   17MOL   C149 6901   2.527   2.724   7.073  0.9015  0.3340  0.2176
   17MOL   C150 6902   2.520   2.875   7.045 -0.0975 -0.8028  0.2824
   17MOL   C151 6903   2.651   2.910   6.972  0.5065  0.3444 -0.0432
   17MOL   C152 6904   2.640   3.035   6.884 -0.5249 -0.3257 -0.0563
   17MOL   C153 6905   2.768   3.059   6.812  0.1931 -0.0549 -0.5437
   17MOL   C154 6906   2.749   3.152   6.693  0.2355  0.8279  0.2527
   17MOL   C155 6907   2.875   3.163   6.598 -0.5414 -0.5978 -0.2927
   17MOL   H156 6908   2.474   2.704   7.166 -0.5912 -0.9606 -0.9075
   17MOL   H157 6909   2.631   2.699   7.095  1.0913  0.7548 -0.1910
   17MOL   H158 6910   2.439   2.901   6.977  0.8380  2.1513  0.2507
   17MOL   H159 6911   2.726   2.936   7.047  0.8476 -0.5202 -0.0802
   17MOL   H160 6912   2.691   2.822   6.922 -1.0360  1.0401 -2.5774
   17MOL   H161 6913   2.613   3.126   6.937  1.4298 -0.4833  1.2465
   17MOL   H162 6914   2.561   3.012   6.812 -0.2966 -0.5558 -0.2344
   17MOL   H163 6915   2.812   2.972   6.763  2.1049  0.8289 -0.4682
   17MOL   H164 6916   2.835   3.099   6.888  1.6176 -1.6177 -0.9419
   17MOL   H165 6917   2.737   3.254   6.729 -0.9785 -0.0278  2.3145
   17MOL   H166 6918   2.654   3.124   6.645 -0.2521  0.1821  1.5839
   17MOL   H167 6919   2.907   3.061   6.573  1.2645 -0.6345  1.9455
   17MOL   H168 6920   2.955   3.208   6.656  0.6152  0.5613 -2.7224
   17MOL   H169 6921   2.870   3.215   6.503  0.6792 -0.1503 -0.1146
   17MOL   C170 6922   2.499   2.947   7.191  0.1649 -0.3642 -0.3539
   17MOL   C171 6923   2.357   2.968   7.234  0.6195 -0.3118 -0.4877
   17MOL   C172 6924   2.348   2.977   7.392 -0.4099  0.2486 -0.5454
   17MOL   C173 6925   2.376   2.838   7.456  0.6589  0.3090 -0.0858
   17MOL   C174 6926   2.359   2.840   7.603  0.0856 -0.5883  0.4905
   17MOL   C175 6927   2.368   2.699   7.654 -0.8819 -0.2316  0.3853
   17MOL   C176 6928   2.398   2.694   0.092 -0.6231  0.0429  0.7535
   17MOL   H177 6929   2.544   3.046   7.186 -2.6942  1.0931  1.4217
   17MOL   H178 6930   2.561   2.897   7.265  0.4057  2.8293  1.7112
   17MOL   H179 6931   2.291   2.890   7.195 -1.8917  1.1877  0.6208
   17MOL   H180 6932   2.249   2.999   7.432 -0.5422 -1.3576  0.0238
   17MOL   H181 6933   2.415   3.048   7.440 -0.2473 -0.4983  0.3413
   17MOL   H182 6934   2.483   2.819   7.449  0.5862  0.2212 -1.0741
   17MOL   H183 6935   2.328   2.757   7.402 -0.7418  0.0113  1.5569
   17MOL   H184 6936   2.267   2.891   7.631 -0.2470 -0.5301 -0.7116
   17MOL   H185 6937   2.439   2.903   7.642 -0.5090  0.8941 -0.6745
   17MOL   H186 6938   2.432   2.637   7.591  0.5033  2.0279 -0.4734
   17MOL   H187 6939   2.271   2.650   7.639 -0.9304  0.5365 -2.0733
   17MOL   H188 6940   2.325   2.757   0.142 -0.6302 -0.8579  1.8971
   17MOL   H189 6941   2.500   2.729   0.111 -0.8522  1.0521  0.1096
   17MOL   H190 6942   2.400   2.592   0.130 -1.4054  0.5785  2.2598
   17MOL   C191 6943   2.308   3.102   7.179 -0.1530 -0.9742 -0.1682
   17MOL   C192 6944   2.151   3.126   7.179  0.4262  0.6756  0.5065
   17MOL   C193 6945   2.110   3.277   7.193 -0.1605  0.2818 -0.0170
   17MOL   C194 6946   1.958   3.293   7.209 -0.7009 -0.1457  0.1001
   17MOL   C195 6947   1.894   3.246   7.338  0.1021 -0.0311 -1.2393
   17MOL   C196 6948   1.745   3.286   7.339 -0.8559  0.9262  0.5208
   17MOL   C197 6949   1.681   3.249   7.469 -0.0576  0.3706 -0.5324
   17MOL   H198 6950   2.326   3.107   7.072  0.9517 -0.4728  0.0329
   17MOL   H199 6951   2.355   3.188   7.226 -1.6526 -0.5057  0.5008
   17MOL   H200 6952   2.120   3.079   7.272  1.4605 -1.5575 -0.2523
   17MOL   H201 6953   2.152   3.340   7.115 -1.2740 -1.4126 -2.0408
   17MOL   H202 6954   2.153   3.327   7.280 -1.2720 -0.4389  0.9583
   17MOL   H203 6955   1.887   3.263   7.132  0.2141  0.4332 -0.9847
   17MOL   H204 6956   1.943   3.400   7.196  0.2060 -0.0234  0.0321
   17MOL   H205 6957   1.920   3.142   7.361  0.7776  0.2320 -0.7755
   17MOL   H206 6958   1.948   3.289   7.423  0.1135 -2.1334 -0.1418
   17MOL   H207 6959   1.703   3.243   7.248 -0.1261 -1.3375  1.2231
   17MOL   H208 6960   1.742   3.393   7.319  1.4324  1.0484  0.6913
   17MOL   H209 6961   1.723   3.304   7.553  0.6695 -0.1558 -0.5474
   17MOL   H210 6962   1.688   3.141   7.480 -2.7776 -0.0279 -2.3472
   17MOL   H211 6963   1.574   3.272   7.476 -0.7174 -2.9897  1.6726
   17MOL   C212 6964   2.090   3.052   7.056  0.2280 -0.2620 -0.7346
   17MOL   C213 6965   1.961   2.979   7.079 -0.2067 -0.6255  0.4885
   17MOL   C214 6966   1.876   2.970   6.948 -0.3290  0.7207  0.1817
   17MOL   C215 6967   1.938   2.885   6.837  0.2753  0.4111  0.6730
   17MOL   C216 6968   1.841   2.871   6.719  0.0125  0.0267  0.1723
   17MOL   C217 6969   1.906   2.837   6.582 -0.9093 -0.3017 -0.2106
   17MOL   C218 6970   1.803   2.793   6.480 -0.1491  0.5752  0.3463
   17MOL   H219 6971   2.165   2.988   7.009  0.9063  0.2510 -0.3615
   17MOL   H220 6972   2.064   3.127   6.980  1.4774 -1.2940 -2.2104
   17MOL   H221 6973   1.898   3.035   7.149 -0.3411 -0.0519 -0.0872
   17MOL   H222 6974   1.783   2.919   6.972 -0.2635 -0.3378 -1.6990
   17MOL   H223 6975   1.846   3.070   6.916 -0.6679  0.7143  0.4828
   17MOL   H224 6976   1.955   2.785   6.876  0.3982  0.3328  0.4172
   17MOL   H225 6977   2.035   2.923   6.804 -0.3708  0.0939 -1.6230
   17MOL   H226 6978   1.751   2.813   6.741 -0.5600  0.2493 -1.4765
   17MOL   H227 6979   1.797   2.971   6.709 -2.0383 -0.9151 -0.6167
   17MOL   H228 6980   1.972   2.914   6.541 -3.2340  0.7059 -2.2138
   17MOL   H229 6981   1.974   2.756   6.609 -2.2040 -1.3189  0.0418
   17MOL   H230 6982   1.741   2.881   6.469 -0.3361  0.5869  1.3782
   17MOL   H231 6983   1.729   2.720   6.515 -0.7266  0.9960  0.0108
   17MOL   H232 6984   1.845   2.753   6.388 -0.1671 -1.8457  1.3441
   17MOL   C233 6985   2.003   2.845   7.155 -0.1029 -0.2752 -0.6383
   17MOL   C234 6986   1.883   2.754   7.196 -0.2316 -0.0338  0.2896
   17MOL   C235 6987   1.942   2.609   7.226 -0.1609 -0.7595  0.1937
   17MOL   C236 6988   2.044   2.606   7.341 -0.2186 -0.5369 -0.5334
   17MOL   C237 6989   2.086   2.460   7.370  0.2578 -0.0829  0.0146
   17MOL   C238 6990   2.197   2.437   7.475  0.2848 -0.3984 -0.5588
   17MOL   C239 6991   2.244   2.290   7.477 -0.3524  0.7993 -0.0187
   17MOL   H240 6992   2.068   2.864   7.241 -1.8759  0.9249  0.4647
   17MOL   H241 6993   2.070   2.799   7.082  0.4147  0.1025 -0.4088
   17MOL   H242 6994   1.824   2.741   7.105  0.7451 -1.1402 -0.2101
   17MOL   H243 6995   1.984   2.584   7.129  0.0339 -0.3526  0.1721
   17MOL   H244 6996   1.867   2.531   7.240 -0.8337 -0.0337  0.6732
   17MOL   H245 6997   1.998   2.636   7.435  1.7936 -1.7888  0.8953
   17MOL   H246 6998   2.139   2.654   7.315 -0.0368 -0.8228 -0.4031
   17MOL   H247 6999   2.129   2.421   7.278 -0.1406 -3.4244  1.1572
   17MOL   H248 7000   2.002   2.398   7.402  0.7900  0.0275  1.6815
   17MOL   H249 7001   2.279   2.505   7.453  0.4151 -0.7917 -1.2824
   17MOL   H250 7002   2.140   2.467   7.563  0.6500  1.8883 -1.0720
   17MOL   H251 7003   2.325   2.262   7.543 -3.2396 -1.5802  2.6719
   17MOL   H252 7004   2.154   2.232   7.497 -0.3104  0.7220 -0.0558
   17MOL   H253 7005   2.274   2.255   7.378 -0.8724  0.0502  0.0895
   17MOL   C254 7006   1.794   2.810   7.308 -0.2017 -0.0098 -0.5348
   17MOL   C255 7007   1.663   2.743   7.334 -0.2200  0.0792  0.0623
   17MOL   C256 7008   1.551   2.810   7.261  0.2544  0.0595  0.1214
   17MOL   C257 7009   1.411   2.741   7.275  0.2684 -0.1715  0.6487
   17MOL   C258 7010   1.290   2.814   7.208  0.0967 -0.0437  0.1590
   17MOL   C259 7011   1.255   2.939   7.291  0.3208  0.1600  0.5428
   17MOL   C260 7012   1.118   3.007   7.256 -0.4461 -0.4978 -1.4195
   17MOL   H261 7013   1.777   2.914   7.281 -0.0857 -0.1200 -1.0292
   17MOL   H262 7014   1.853   2.817   7.400  1.6694 -4.1335 -1.3282
   17MOL   H263 7015   1.671   2.637   7.307 -3.0207 -0.8614  2.5771
   17MOL   H264 7016   1.567   2.800   7.153 -0.5713 -0.7571  0.0729
   17MOL   H265 7017   1.547   2.911   7.301  1.9590 -0.1254  0.8141
   17MOL   H266 7018   1.416   2.636   7.244 -0.3303  0.0862 -0.3454
   17MOL   H267 7019   1.383   2.737   7.380  1.4860 -0.6350  0.9601
   17MOL   H268 7020   1.202   2.751   7.217 -0.1090  0.4358  1.5628
   17MOL   H269 7021   1.315   2.820   7.102 -1.1567 -0.2284 -0.1495
   17MOL   H270 7022   1.253   2.916   7.398  2.0061 -1.7368  0.1917
   17MOL   H271 7023   1.327   3.018   7.271 -1.3897  1.3559 -1.0458
   17MOL   H272 7024   1.040   2.935   7.280  0.0619 -0.5848 -0.0179
   17MOL   H273 7025   1.111   3.097   7.316 -1.8670 -2.0353  0.7784
   17MOL   H274 7026   1.099   3.012   7.148  0.7317 -2.2427 -1.7320
   17MOL   C275 7027   1.629   2.734   7.492  0.3602  0.3358 -0.1935
   17MOL   C276 7028   1.723   2.661   7.583  0.0415 -0.0474 -0.2770
   17MOL   C277 7029   1.710   2.508   7.548 -0.2922  0.5619  0.9856
   17MOL   C278 7030   1.788   2.417   7.640 -0.3536 -0.6279 -0.1321
   17MOL   C279 7031   1.798   2.270   7.597 -0.7488 -0.7896  0.2698
   17MOL   C280 7032   1.677   2.190   7.628 -0.2697  0.9343  0.7801
   17MOL   C281 7033   1.689   2.044   7.569  0.0428 -0.2452  0.2208
   17MOL   H282 7034   1.530   2.687   7.499 -0.2693  1.6316 -0.3346
   17MOL   H283 7035   1.602   2.834   7.524 -1.5056 -0.1444 -0.1632
   17MOL   H284 7036   1.827   2.694   7.575 -0.1190  0.8139  0.9717
   17MOL   H285 7037   1.606   2.476   7.544  0.0412 -0.3138 -2.3120
   17MOL   H286 7038   1.740   2.498   7.444  0.8689  0.7335  1.2933
   17MOL   H287 7039   1.761   2.432   0.031  0.3311  1.0616 -0.1914
   17MOL   H288 7040   1.887   2.463   7.630  0.0783 -1.2038  1.4008
   17MOL   H289 7041   1.890   2.237   7.645 -0.4670 -1.1595 -0.5084
   17MOL   H290 7042   1.820   2.253   7.492  0.1598 -0.5587  0.4244
   17MOL   H291 7043   1.667   2.181   0.023  0.1782 -1.0788  0.6694
   17MOL   H292 7044   1.589   2.234   7.581 -0.2505 -1.6278 -1.7984
   17MOL   H293 7045   1.603   1.977   7.580 -0.3942  0.4276  0.9482
   17MOL   H294 7046   1.776   2.000   7.617 -0.6173  0.2014  1.8798
   17MOL   H295 7047   1.710   2.050   7.462 -3.2289 -1.2504 -0.5327
   17MOL   C296 7048   1.696   2.690   0.016  0.3609  0.1707 -0.1380
   17MOL   C297 7049   1.690   2.838   0.067 -0.1693  0.5556 -0.6169
   17MOL   C298 7050   1.830   2.906   0.058 -0.8053  0.4701  0.6351
   17MOL   C299 7051   1.823   3.059   0.057 -0.2662  0.3684  0.6540
   17MOL   C300 7052   1.972   3.130   0.039 -0.2958  0.0920 -0.5912
   17MOL   C301 7053   2.076   3.142   0.152  0.0715 -0.3986 -0.6654
   17MOL   C302 7054   2.032   3.217   0.286 -0.7017  0.1629 -0.0132
   17MOL   H303 7055   1.610   2.636   0.055 -0.2858  1.0536 -0.3280
   17MOL   H304 7056   1.773   2.647   0.081 -0.5328 -0.3632  0.5745
   17MOL   H305 7057   1.622   2.892   0.000 -1.0948 -0.3388 -0.4230
   17MOL   H306 7058   1.903   2.877   0.134 -1.1635 -0.4692  0.6255
   17MOL   H307 7059   1.879   2.876   7.679 -1.7812 -0.4028  0.4022
   17MOL   H308 7060   1.779   3.106   0.145  1.6890  0.5691  1.5516
   17MOL   H309 7061   1.775   3.088   7.677 -0.3689 -3.3472 -0.5327
   17MOL   H310 7062   1.951   3.231   0.002 -0.1015  1.0457  1.8004
   17MOL   H311 7063   2.025   3.079   7.673 -0.0748 -0.5190 -0.0540
   17MOL   H312 7064   2.100   3.039   0.177  1.8464 -0.0917 -1.0079
   17MOL   H313 7065   2.168   3.188   0.115  0.5191  1.1570  2.1899
   17MOL   H314 7066   2.008   3.321   0.267  2.6275  0.9718 -0.1103
   17MOL   H315 7067   1.951   3.168   0.339 -1.2512  2.7167  1.5613
   17MOL   H316 7068   2.120   3.225   0.348  1.3705  0.1083 -2.8231
   17MOL   C317 7069   1.637   2.818   0.215 -0.1463 -0.1523 -0.2060
   17MOL   C318 7070   1.607   2.946   0.304  0.2272 -0.2170  0.0432
   17MOL   C319 7071   1.494   3.033   0.239  0.3891 -0.5666  0.1720
   17MOL   C320 7072   1.362   2.964   0.216 -0.0811  0.5415 -0.3230
   17MOL   C321 7073   1.244   3.048   0.154  0.0313 -0.4972  0.3620
   17MOL   C322 7074   1.284   3.111   0.023  0.1417 -0.1584 -0.3362
   17MOL   C323 7075   1.163   3.159   7.654 -0.2677  0.2276  0.1551
   17MOL   H324 7076   1.709   2.764   0.278  0.6510 -0.7531 -1.6103
   17MOL   H325 7077   1.550   2.753   0.216 -0.7021  0.5947  0.6708
   17MOL   H326 7078   1.696   3.008   0.313  0.1919 -0.3170  1.1265
   17MOL   H327 7079   1.531   3.072   0.144  1.5135 -0.1470  0.7672
   17MOL   H328 7080   1.485   3.120   0.304  0.6717  0.1421 -0.7168
   17MOL   H329 7081   1.327   2.931   0.313  0.6146 -1.2213 -0.6400
   17MOL   H330 7082   1.381   2.880   0.148  0.2569 -0.2061  0.6675
   17MOL   H331 7083   1.215   3.127   0.223  0.8915  0.6047 -0.5252
   17MOL   H332 7084   1.154   2.988   0.138  0.2571 -0.2825 -1.8640
   17MOL   H333 7085   1.345   3.043   7.677 -0.4182  0.3684 -1.5331
   17MOL   H334 7086   1.357   3.190   0.042  1.0787 -1.3265  1.0004
   17MOL   H335 7087   1.189   3.221   7.568 -0.5203 -0.2558 -0.2720
   17MOL   H336 7088   1.094   3.225   7.708  1.6930  1.4020  1.2991
   17MOL   H337 7089   1.106   3.072   7.623 -0.1084  0.8860 -2.0540
   17MOL   C338 7090   1.565   2.904   0.449  0.0559  0.5130  0.8750
   17MOL   C339 7091   1.681   2.865   0.542 -0.4367 -0.0785 -0.7095
   17MOL   C340 7092   1.626   2.799   0.673 -1.0328  0.2862 -0.1186
   17MOL   C341 7093   1.567   2.652   0.662  0.1141 -0.2950 -0.7973
   17MOL   C342 7094   1.510   2.593   0.798 -1.0380 -1.1201 -0.3739
   17MOL   C343 7095   1.623   2.557   0.891 -0.0058  0.2889  0.2791
   17MOL   C344 7096   1.581   2.505   1.026  0.0793  0.0415 -0.0405
   17MOL   H345 7097   1.501   2.817   0.431 -0.0804  0.9622 -0.8822
   17MOL   H346 7098   1.514   2.991   0.490 -0.5825  0.0831  1.0028
   17MOL   H347 7099   1.734   2.787   0.488  0.3609  0.8382 -1.2736
   17MOL   H348 7100   1.702   2.803   0.751  1.1399 -1.3730 -2.0448
   17MOL   H349 7101   1.553   2.869   0.713 -2.6364  0.1171 -2.6224
   17MOL   H350 7102   1.645   2.589   0.620 -0.7129 -1.2335 -0.9202
   17MOL   H351 7103   1.476   2.652   0.602 -0.7562  3.7771  0.3529
   17MOL   H352 7104   1.446   2.666   0.848  2.0519  0.3398  1.5365
   17MOL   H353 7105   1.451   2.504   0.776 -0.2850 -1.2308 -2.0285
   17MOL   H354 7106   1.681   2.470   0.861 -0.2278  0.2224  0.0422
   17MOL   H355 7107   1.699   2.634   0.904 -0.5494  0.7936  0.4861
   17MOL   H356 7108   1.669   2.483   1.087  0.9875  0.5256 -1.1363
   17MOL   H357 7109   1.529   2.410   1.018  1.3553 -0.4952 -2.6582
   17MOL   H358 7110   1.509   2.563   1.083 -2.0158 -1.9545 -0.5923
   17MOL   C359 7111   1.777   2.991   0.563  0.3320 -0.4063 -0.2694
   17MOL   C360 7112   1.915   2.949   0.605 -0.3811  0.1096 -0.1882
   17MOL   C361 7113   1.996   2.891   0.481  0.5810 -0.2660 -0.3363
   17MOL   C362 7114   2.085   2.770   0.499  0.3287  1.0164 -0.0161
   17MOL   C363 7115   2.141   2.704   0.372 -0.3555  0.1146  0.1417
   17MOL   C364 7116   2.026   2.635   0.286  0.0839 -0.0940 -0.4129
   17MOL   C365 7117   2.066   2.597   0.145  0.4786 -0.2083 -0.0621
   17MOL   H366 7118   1.732   3.048   0.644  2.6208 -0.1421  0.8601
   17MOL   H367 7119   1.791   3.066   0.486  1.5360  1.5003  1.7449
   17MOL   H368 7120   1.908   2.873   0.683  0.7724  3.1492  3.0381
   17MOL   H369 7121   1.918   2.858   0.412 -0.1627 -0.3084  0.5128
   17MOL   H370 7122   2.039   2.975   0.427 -0.8765  1.6168  1.3497
   17MOL   H371 7123   2.166   2.798   0.567  0.1144  1.0517  0.2256
   17MOL   H372 7124   2.027   2.692   0.550  0.0858 -0.0041 -1.8093
   17MOL   H373 7125   2.179   2.782   0.305 -0.0139  1.4524  1.8527
   17MOL   H374 7126   2.212   2.630   0.408  1.4410  0.8507 -1.8144
   17MOL   H375 7127   1.981   2.550   0.337 -0.0076  1.2289  1.8003
   17MOL   H376 7128   1.945   2.707   0.269  1.1821  0.9906 -1.1226
   17MOL   H377 7129   2.096   2.685   0.089  1.5944 -0.8102 -0.4153
   17MOL   H378 7130   2.148   2.526   0.138  0.7345  0.2363 -1.7988
   17MOL   H379 7131   1.986   2.543   0.093  0.0594 -1.1188  1.4890
   17MOL   C380 7132   1.993   3.078   0.663  0.4009  0.1479 -0.5676
   17MOL   C381 7133   1.957   3.127   0.814 -0.4805 -0.5454 -0.1375
   17MOL   C382 7134   1.937   3.012   0.924  0.7306 -0.3425  0.0372
   17MOL   C383 7135   1.902   3.043   1.071  0.2929 -0.7921 -0.1300
   17MOL   C384 7136   1.857   2.914   1.145  0.2442  0.0081 -0.4634
   17MOL   C385 7137   1.813   2.924   1.292  0.2497 -0.0544  0.1988
   17MOL   C386 7138   1.718   2.811   1.337 -0.0898  0.4704  0.2362
   17MOL   H387 7139   2.100   3.055   0.660  0.2789 -0.3573 -0.9971
   17MOL   H388 7140   1.983   3.163   0.595  1.6592  0.8799  0.1446
   17MOL   H389 7141   1.858   3.171   0.808  0.5570  2.0112  0.8994
   17MOL   H390 7142   2.019   2.941   0.918  1.2124  0.4191 -3.0105
   17MOL   H391 7143   1.856   2.950   0.886  0.9009 -0.0651 -0.7991
   17MOL   H392 7144   1.994   3.087   1.110 -0.2774  1.6870 -1.4618
   17MOL   H393 7145   1.834   3.128   1.082  2.8778  1.2989  0.2001
   17MOL   H394 7146   1.779   2.867   1.085  1.3828  0.7285 -2.5147
   17MOL   H395 7147   1.936   2.839   1.139  1.6809  1.6281 -2.1299
   17MOL   H396 7148   1.767   3.022   1.309  0.8339  0.1903  0.3637
   17MOL   H397 7149   1.896   2.923   1.362  2.5712  0.6346 -2.4983
   17MOL   H398 7150   1.770   2.716   1.334 -2.5409 -0.8716 -0.9607
   17MOL   H399 7151   1.634   2.813   1.268  0.3662  0.0270 -0.3264
   17MOL   H400 7152   1.693   2.835   1.441 -2.2195  0.9727 -0.3628
   17MOL   C401 7153   2.053   3.241   0.852  0.4252  0.6032 -0.5312
   17MOL   C402 7154   2.060   3.371   0.772  0.0958  0.3465 -0.0121
   17MOL   C403 7155   2.177   3.461   0.810 -1.2494 -0.4798 -0.0843
   17MOL   C404 7156   2.182   3.498   0.956  0.1234 -0.0764 -0.0527
   17MOL   C405 7157   2.268   3.619   0.971 -0.1288  0.1396  0.1159
   17MOL   C406 7158   2.294   3.638   1.115  0.2060 -0.1251 -0.7192
   17MOL   C407 7159   2.373   3.758   1.154  0.5326  0.4670 -0.4620
   17MOL   H408 7160   2.152   3.196   0.845 -0.1380 -0.6038 -1.0411
   17MOL   H409 7161   2.023   3.263   0.954  1.1346 -1.1700  0.0890
   17MOL   H410 7162   1.961   3.417   0.777  0.3794  0.8100  1.6274
   17MOL   H411 7163   2.161   3.549   0.748 -1.2832 -0.8740 -0.6407
   17MOL   H412 7164   2.274   3.424   0.777 -0.9707 -0.5097  0.7533
   17MOL   H413 7165   2.221   3.420   1.021 -0.9833  1.3501  2.3832
   17MOL   H414 7166   2.088   3.522   1.007  0.2758  0.2261  0.0859
   17MOL   H415 7167   2.361   3.613   0.915 -0.1273 -2.6758  0.3765
   17MOL   H416 7168   2.217   3.708   0.932  2.3396  1.6795  0.3102
   17MOL   H417 7169   2.202   3.637   1.173 -0.1493  0.6772 -1.2563
   17MOL   H418 7170   2.339   3.550   1.160  2.1729  2.6893  3.1154
   17MOL   H419 7171   2.475   3.762   1.115  0.0331 -2.6091 -2.2072
   17MOL   H420 7172   2.376   3.763   1.262 -1.3283  1.8113 -0.4484
   17MOL   H421 7173   2.322   3.849   1.121 -3.0328 -1.0779  0.5528
   17MOL   H422 7174   2.060   3.370   0.663  0.1999  1.4899 -0.0361
   18MOL     C1 7175   5.731   4.633   7.392  0.5883 -0.3897  0.5750
   18MOL     C2 7176   5.745   4.606   7.241 -0.4519 -0.2711 -0.0327
   18MOL     C3 7177   5.609   4.592   7.174  0.3101  0.2756  0.2539
   18MOL     C4 7178   5.530   4.718   7.146 -0.5007 -0.3945  0.5104
   18MOL     C5 7179   5.467   4.780   7.270  0.5913  0.7491  0.2432
   18MOL     C6 7180   5.319   4.838   7.250 -0.0681 -0.3872 -0.1748
   18MOL     C7 7181   5.242   4.859   7.384  0.4741  0.0535  0.2760
   18MOL     H8 7182   5.699   4.548   7.453  0.0831  0.1043  0.9996
   18MOL     H9 7183   5.659   4.706   7.429  0.5217 -1.4960  2.7254
   18MOL    H10 7184   5.780   4.703   7.205 -1.6730 -0.1892 -1.0342
   18MOL    H11 7185   5.634   4.555   7.074  0.5696  0.1195  0.3772
   18MOL    H12 7186   5.543   4.514   7.213 -1.3325  0.8094 -1.3423
   18MOL    H13 7187   5.589   4.796   7.098 -0.9022  0.0844  0.7929
   18MOL    H14 7188   5.449   4.696   7.077 -1.4829  0.1128  1.4759
   18MOL    H15 7189   5.537   4.851   7.315 -0.1772  0.0412  2.6231
   18MOL    H16 7190   5.451   4.699   7.341 -1.1348  0.1067 -0.8317
   18MOL    H17 7191   5.254   4.781   7.184 -0.2815 -0.9662  0.5213
   18MOL    H18 7192   5.322   4.937   7.204  2.7084 -0.1914  0.2976
   18MOL    H19 7193   5.290   4.918   7.461  0.7955  1.5833 -1.0844
   18MOL    H20 7194   5.198   4.776   7.440 -1.7570  0.9457 -0.1088
   18MOL    H21 7195   5.154   4.918   7.360  0.1205 -1.1201 -1.4129
   18MOL    H22 7196   5.826   4.662   7.436  0.3796  1.1511  0.0398
   18MOL    C23 7197   5.845   4.499   7.222  0.4553  0.2929 -0.4341
   18MOL    C24 7198   5.896   4.471   7.074  0.0668 -1.1831 -0.6129
   18MOL    C25 7199   5.952   4.323   7.061  0.1968 -0.0552  0.1270
   18MOL    C26 7200   5.834   4.222   7.058 -0.0334 -0.2813  0.5439
   18MOL    C27 7201   5.859   4.079   7.000 -0.1277  0.3830  0.2921
   18MOL    C28 7202   5.896   4.068   6.848 -0.0051 -0.1306 -0.2529
   18MOL    C29 7203   5.894   3.929   6.795  0.2952  0.2064 -0.1234
   18MOL    H30 7204   5.933   4.536   7.273  2.3227  0.7522 -3.8412
   18MOL    H31 7205   5.814   4.409   7.276  1.5913 -0.9423 -1.8010
   18MOL    H32 7206   5.803   4.466   7.017 -1.2906 -0.0706  1.4381
   18MOL    H33 7207   6.025   4.312   7.142 -0.0429 -2.0362  0.1026
   18MOL    H34 7208   5.998   4.305   6.964  0.4257 -2.9847  0.7360
   18MOL    H35 7209   5.746   4.263   7.009  1.0710  1.9549  0.3652
   18MOL    H36 7210   5.807   4.214   7.163 -1.3145  1.6867  0.3929
   18MOL    H37 7211   5.788   4.000   7.024 -2.0968  1.5591 -1.5329
   18MOL    H38 7212   5.945   4.034   7.050  0.7385  0.3054 -1.2052
   18MOL    H39 7213   5.996   4.108   6.836  0.1504 -0.3885  0.1645
   18MOL    H40 7214   5.824   4.128   6.792  1.2000  4.3213  2.7280
   18MOL    H41 7215   5.805   3.869   6.810  1.0657 -1.4366 -1.8952
   18MOL    H42 7216   5.922   3.942   6.690  0.6651  1.3913  0.1095
   18MOL    H43 7217   5.966   3.868   6.849 -1.0073 -1.2027  0.0405
   18MOL    C44 7218   5.993   4.579   7.019  0.2939 -0.2347 -0.2531
   18MOL    C45 7219   5.958   4.626   6.873  0.0152 -0.1895  0.1977
   18MOL    C46 7220   5.844   4.723   6.884  0.4464 -0.1012  0.8230
   18MOL    C47 7221   5.755   4.724   6.749 -0.7579  0.6565 -0.7545
   18MOL    C48 7222   5.624   4.795   6.774 -0.3393  0.8507  0.2758
   18MOL    C49 7223   5.547   4.836   6.648  0.5373  0.8249 -0.0779
   18MOL    C50 7224   5.392   4.843   6.681  0.0588  0.2978 -0.2051
   18MOL    H51 7225   6.092   4.535   7.009  0.0038 -0.6080 -1.6247
   18MOL    H52 7226   5.982   4.660   7.091 -1.6846 -1.1071  0.4570
   18MOL    H53 7227   5.928   4.538   6.815 -0.5269  0.6535 -0.8039
   18MOL    H54 7228   5.889   4.822   6.894 -0.8151  0.5551  0.2331
   18MOL    H55 7229   5.774   4.714   6.967 -0.7252  1.3874  0.0366
   18MOL    H56 7230   5.813   4.759   6.664 -0.3972  2.3702  0.1908
   18MOL    H57 7231   5.720   4.627   6.711  1.8677 -1.3386  1.7131
   18MOL    H58 7232   5.645   4.873   6.848 -1.0119  0.7674  0.5634
   18MOL    H59 7233   5.566   4.723   6.832  1.8133 -2.4460 -1.5549
   18MOL    H60 7234   5.568   4.769   6.565 -0.0360  0.1941  0.2807
   18MOL    H61 7235   5.578   4.937   6.623 -1.2359  0.9605 -1.8968
   18MOL    H62 7236   5.366   4.898   6.772  0.2177  0.2855 -0.1529
   18MOL    H63 7237   5.362   4.741   6.704  1.6762  0.1276  1.2672
   18MOL    H64 7238   5.329   4.892   6.606 -0.4947  0.8788  0.6286
   18MOL    C65 7239   6.082   4.690   6.800 -0.0959  0.0531  0.1886
   18MOL    C66 7240   6.150   4.583   6.711 -0.5561  0.6469 -0.2462
   18MOL    C67 7241   6.301   4.609   6.700  0.2761  0.9058 -0.9633
   18MOL    C68 7242   6.387   4.556   6.821  0.0098  0.5595  0.1173
   18MOL    C69 7243   6.408   4.407   6.838  0.1924 -0.2671  0.4894
   18MOL    C70 7244   6.436   4.369   6.981 -0.4046  0.1350 -1.0623
   18MOL    C71 7245   6.499   4.230   6.993 -0.0291 -0.1885 -0.5250
   18MOL    H72 7246   6.063   4.777   6.736  0.9060 -0.6058 -1.0189
   18MOL    H73 7247   6.155   4.717   6.876  1.0374 -1.9460 -0.1700
   18MOL    H74 7248   6.134   4.486   6.758  0.8648  0.4483 -0.1528
   18MOL    H75 7249   6.340   4.557   6.613 -1.3065  1.2343 -1.8880
   18MOL    H76 7250   6.320   4.716   6.690 -2.6211  1.4506 -1.1250
   18MOL    H77 7251   6.484   4.605   6.819  0.1245  0.3339  0.0657
   18MOL    H78 7252   6.349   4.591   6.917 -2.0588 -1.0194 -0.0886
   18MOL    H79 7253   6.324   4.350   6.796  0.1289 -0.3245  0.6921
   18MOL    H80 7254   6.493   4.368   6.783  2.6746  2.0153  2.6265
   18MOL    H81 7255   6.344   4.363   7.038 -0.4951 -3.2426 -1.4245
   18MOL    H82 7256   6.500   4.441   7.032 -0.9813 -0.4186  0.4742
   18MOL    H83 7257   6.457   4.156   6.925 -1.4146  0.4461 -0.3900
   18MOL    H84 7258   6.607   4.233   6.979  0.1581 -0.4113  0.7812
   18MOL    H85 7259   6.491   4.190   7.094  0.8057  0.3491 -0.2410
   18MOL    C86 7260   6.088   4.570   6.577  0.0650 -0.1479  0.4376
   18MOL    C87 7261   6.110   4.433   6.512  0.1307 -0.1734  0.1236
   18MOL    C88 7262   6.048   4.304   6.575 -0.1016 -0.2193 -0.1642
   18MOL    C89 7263   6.105   4.174   6.527 -0.8401  0.5368  0.3653
   18MOL    C90 7264   6.235   4.129   6.583  0.1341 -0.3599 -0.1946
   18MOL    C91 7265   6.280   3.996   6.518  0.0451 -0.1553 -0.0505
   18MOL    C92 7266   6.425   3.970   6.557  1.2390  0.3563  0.0493
   18MOL    H93 7267   5.979   4.567   6.591 -0.0289 -0.8109 -0.4335
   18MOL    H94 7268   6.101   4.663   6.522  1.7800 -0.9242 -0.5004
   18MOL    H95 7269   6.217   4.413   6.514 -0.0024 -0.7880  1.7101
   18MOL    H96 7270   6.060   4.299   6.683  0.4981 -3.1936 -0.3187
   18MOL    H97 7271   5.940   4.298   6.564 -0.0141 -1.9555 -0.2319
   18MOL    H98 7272   6.031   4.098   6.553  0.1044 -0.7768 -0.7287
   18MOL    H99 7273   6.110   4.175   6.418 -1.3229  2.6113  0.3382
   18MOL   H100 7274   6.229   4.118   6.691 -1.0050 -5.0401 -0.6384
   18MOL   H101 7275   6.312   4.198   6.547 -1.1451  0.9857 -0.4071
   18MOL   H102 7276   6.214   3.910   6.530  0.9534 -0.7433  0.7865
   18MOL   H103 7277   6.287   4.014   6.411 -0.9569  0.2592 -0.0536
   18MOL   H104 7278   6.479   4.065   6.552  1.0976  0.4167 -0.3688
   18MOL   H105 7279   6.465   3.895   6.489  1.3376  0.1982  0.2798
   18MOL   H106 7280   6.424   3.941   6.662  0.4717 -0.0411 -0.0658
   18MOL   C107 7281   6.086   4.439   6.357 -0.1100  0.6188  0.0570
   18MOL   C108 7282   5.931   4.449   6.305 -0.4242 -0.5001 -0.2501
   18MOL   C109 7283   5.891   4.601   6.296 -0.1638  1.1177 -0.1791
   18MOL   C110 7284   5.739   4.633   6.280 -0.4150  0.1436  0.3949
   18MOL   C111 7285   5.721   4.787   6.290 -0.4908  0.5179  0.3620
   18MOL   C112 7286   5.757   4.875   6.170  0.0984 -0.1099  1.0063
   18MOL   C113 7287   5.680   5.008   6.168 -0.0465  0.6240  0.2001
   18MOL   H114 7288   6.132   4.353   6.308  0.2224 -0.2828  1.9213
   18MOL   H115 7289   6.147   4.527   6.337 -0.7314  0.5672 -2.3328
   18MOL   H116 7290   5.876   4.400   6.385 -1.0225  0.0708 -0.3105
   18MOL   H117 7291   5.942   4.639   6.208 -0.6493  2.3219  0.0406
   18MOL   H118 7292   5.928   4.661   6.379 -1.7486  1.1375  0.5365
   18MOL   H119 7293   5.695   4.593   6.188  0.9953  1.6728 -0.9872
   18MOL   H120 7294   5.685   4.577   6.356 -1.6261  0.5137 -0.1776
   18MOL   H121 7295   5.754   4.825   6.387  2.5146 -3.1666  0.9056
   18MOL   H122 7296   5.613   4.793   6.299 -0.6561 -0.1968 -1.1181
   18MOL   H123 7297   5.865   4.893   6.174 -0.2930  2.4864  0.4824
   18MOL   H124 7298   5.727   4.820   6.081 -0.5144  0.6531  0.7413
   18MOL   H125 7299   5.702   5.057   6.074 -0.6618  0.8769  0.1900
   18MOL   H126 7300   5.572   4.997   6.176  0.1762 -2.2446  0.0371
   18MOL   H127 7301   5.712   5.067   6.253  0.1610  2.1657 -0.9397
   18MOL   C128 7302   5.907   4.377   6.169 -0.2479  0.7198 -1.0772
   18MOL   C129 7303   5.922   4.224   6.169 -0.0211 -0.4883 -0.1271
   18MOL   C130 7304   6.021   4.186   6.053  0.4684  0.0130 -0.3100
   18MOL   C131 7305   6.072   4.045   6.074 -0.5380 -0.5560  0.4635
   18MOL   C132 7306   6.164   3.991   5.958 -0.6798 -0.1163 -0.5515
   18MOL   C133 7307   6.170   3.835   5.938 -0.1755  0.9427  0.1301
   18MOL   C134 7308   6.040   3.768   5.887  0.2859  0.0422 -0.0024
   18MOL   H135 7309   5.802   4.385   6.140 -0.2286 -0.2841 -1.4251
   18MOL   H136 7310   5.954   4.433   6.088 -1.1385 -0.0274 -2.1170
   18MOL   H137 7311   5.976   4.191   6.257  1.6538 -0.6980 -1.2088
   18MOL   H138 7312   6.112   4.245   6.043  0.4930 -0.0729 -0.6067
   18MOL   H139 7313   5.969   4.195   5.958  1.5438  2.7755 -0.6907
   18MOL   H140 7314   5.984   3.981   6.077 -1.1506  0.2766  0.5146
   18MOL   H141 7315   6.124   4.039   6.170  0.3291 -0.9257 -0.0232
   18MOL   H142 7316   6.264   4.032   5.972 -1.5649  2.2028 -0.9021
   18MOL   H143 7317   6.132   4.025   5.860 -1.1980 -1.9669 -1.0418
   18MOL   H144 7318   6.207   3.790   6.031  0.7788  1.2046 -0.1144
   18MOL   H145 7319   6.245   3.808   5.864 -1.3509 -0.8953 -0.4232
   18MOL   H146 7320   6.062   3.661   5.885  0.1818  0.0023  0.7769
   18MOL   H147 7321   6.017   3.812   5.790 -0.1469 -0.3215 -0.0673
   18MOL   H148 7322   5.959   3.792   5.955  1.2590 -0.6910  1.4431
   18MOL   C149 7323   5.778   4.151   6.158 -0.3318 -0.2919  0.4454
   18MOL   C150 7324   5.676   4.168   6.266  0.0275 -0.1795  0.3328
   18MOL   C151 7325   5.710   4.068   6.384 -0.4250  1.2522  0.4035
   18MOL   C152 7326   5.626   4.087   6.510  0.7594 -0.7733 -0.7804
   18MOL   C153 7327   5.634   4.225   6.579  0.1476 -0.1320 -0.5521
   18MOL   C154 7328   5.559   4.234   6.714  0.7914 -0.4437 -0.6249
   18MOL   C155 7329   5.575   4.365   6.785  0.5197  0.2459 -0.0681
   18MOL   H156 7330   5.742   4.165   6.056 -2.6002 -0.6659  1.1760
   18MOL   H157 7331   5.805   4.046   6.148 -2.4114 -0.8293  0.2720
   18MOL   H158 7332   5.691   4.272   6.295 -3.2722  0.2841  0.5925
   18MOL   H159 7333   5.698   3.966   6.349  2.4269  1.2474 -0.6526
   18MOL   H160 7334   5.814   4.093   6.402 -0.1570  0.0932  0.4622
   18MOL   H161 7335   5.674   4.015   6.576 -0.0094 -0.3195  0.2977
   18MOL   H162 7336   5.524   4.051   6.496  0.2904 -0.2483  1.1825
   18MOL   H163 7337   5.598   4.301   6.510 -0.8811  0.2241  0.3586
   18MOL   H164 7338   5.741   4.241   6.597  0.1195  1.4774 -1.6877
   18MOL   H165 7339   5.596   4.154   6.778  0.6849 -0.9991 -1.2493
   18MOL   H166 7340   5.453   4.216   6.695  1.0055 -0.9516 -1.3874
   18MOL   H167 7341   5.681   4.374   6.811  1.1728 -2.7633 -1.4655
   18MOL   H168 7342   5.519   4.373   6.878 -0.7724  2.4792 -1.0046
   18MOL   H169 7343   5.543   4.453   6.729 -1.7162 -1.7735 -2.0744
   18MOL   C170 7344   5.532   4.139   6.219  0.3406 -0.0278 -1.2002
   18MOL   C171 7345   5.415   4.221   6.270  0.0014 -0.3052 -0.1620
   18MOL   C172 7346   5.416   4.358   6.198 -0.5042 -0.7370 -0.1282
   18MOL   C173 7347   5.341   4.472   6.283  0.3420  0.5897  0.7115
   18MOL   C174 7348   5.323   4.600   6.201 -0.1161 -0.4919  0.2704
   18MOL   C175 7349   5.257   4.709   6.297  0.7313 -0.1984 -0.7833
   18MOL   C176 7350   5.254   4.846   6.218  0.2460 -0.0914  0.0781
   18MOL   H177 7351   5.521   4.033   6.241  3.1062 -0.6309 -2.5077
   18MOL   H178 7352   5.531   4.144   6.111 -0.8705  1.4894 -1.1225
   18MOL   H179 7353   5.428   4.245   6.375 -0.4391 -0.3343 -0.1007
   18MOL   H180 7354   5.386   4.347   6.094 -3.2642 -1.8285  0.7275
   18MOL   H181 7355   5.517   4.399   6.196 -1.3075  1.2889 -0.9098
   18MOL   H182 7356   5.397   4.496   6.373 -0.3847  0.1243  1.2902
   18MOL   H183 7357   5.250   4.436   6.330  0.0220  0.2769 -0.1375
   18MOL   H184 7358   5.271   4.582   6.107  2.3410 -2.5319 -0.7660
   18MOL   H185 7359   5.423   4.632   6.170  0.4061 -0.6510  1.7396
   18MOL   H186 7360   5.311   4.702   6.392 -0.4052 -1.7114 -0.2246
   18MOL   H187 7361   5.158   4.666   6.311  0.2691  1.8654  3.0375
   18MOL   H188 7362   5.220   4.829   6.115  3.1801 -2.5449 -0.5571
   18MOL   H189 7363   5.360   4.873   6.215  0.7429 -1.7353  1.7648
   18MOL   H190 7364   5.196   4.924   6.266 -0.3975  1.9356 -3.7557
   18MOL   C191 7365   5.279   4.142   6.235 -0.0507  0.1865  0.0676
   18MOL   C192 7366   5.239   4.039   6.351 -0.5993  0.5571 -0.1918
   18MOL   C193 7367   5.212   4.089   6.494 -0.1814 -0.1226  0.0341
   18MOL   C194 7368   5.100   4.199   6.500 -0.5007 -0.5238 -0.1453
   18MOL   C195 7369   5.089   4.272   6.633  0.5686 -0.2095  0.8665
   18MOL   C196 7370   4.983   4.387   6.641 -0.0852 -0.0445  0.3363
   18MOL   C197 7371   5.024   4.501   6.543  0.3752 -0.2331 -0.1088
   18MOL   H198 7372   5.304   4.091   6.142 -3.5320 -1.8578  0.1571
   18MOL   H199 7373   5.187   4.190   6.203 -1.0996 -1.6744  0.2137
   18MOL   H200 7374   5.321   3.968   6.359 -0.4529  0.8087  0.6050
   18MOL   H201 7375   5.306   4.128   6.532  0.6117 -0.9009 -1.0951
   18MOL   H202 7376   5.186   4.004   6.556 -0.6069  1.4690  2.0832
   18MOL   H203 7377   5.009   4.143   6.481 -0.7045 -0.0374 -0.6369
   18MOL   H204 7378   5.110   4.275   6.422 -1.2643 -1.0188 -0.7225
   18MOL   H205 7379   5.068   4.193   6.705  0.7396  1.4110  2.7357
   18MOL   H206 7380   5.183   4.316   6.665  2.1016 -2.6110 -0.1393
   18MOL   H207 7381   4.966   4.415   6.744  0.2986 -1.2923  0.7566
   18MOL   H208 7382   4.891   4.344   6.601  0.1452 -2.3616  2.2112
   18MOL   H209 7383   4.951   4.579   6.522  1.8457  1.4602  0.8653
   18MOL   H210 7384   5.063   4.457   6.451  2.1021  0.5120  0.2462
   18MOL   H211 7385   5.108   4.552   6.590  0.6827 -1.1041  0.3116
   18MOL   C212 7386   5.123   3.952   6.299  0.3391 -0.4130  0.2879
   18MOL   C213 7387   5.164   3.867   6.172 -0.4059 -0.2072  0.2476
   18MOL   C214 7388   5.299   3.789   6.174  0.2805 -0.3333 -0.1776
   18MOL   C215 7389   5.299   3.673   6.274 -0.3362 -0.2775  0.3136
   18MOL   C216 7390   5.431   3.600   6.291  0.9194  0.2375  0.0010
   18MOL   C217 7391   5.426   3.458   6.345  0.0850  1.1566 -0.3110
   18MOL   C218 7392   5.551   3.369   6.317  0.5333  0.2474  0.1973
   18MOL   H219 7393   5.036   4.017   6.283  1.1127  1.0498  1.8152
   18MOL   H220 7394   5.076   3.886   6.372 -0.9435 -1.9356 -1.8315
   18MOL   H221 7395   5.164   3.946   6.096  3.8452  1.4641  1.8531
   18MOL   H222 7396   5.328   3.742   6.080 -0.0752 -1.4328  0.2542
   18MOL   H223 7397   5.378   3.860   6.198  2.1018 -2.9396  1.8815
   18MOL   H224 7398   5.224   3.598   6.248 -0.9445  0.0727  1.0267
   18MOL   H225 7399   5.281   3.717   6.372  1.9478 -0.9019  1.0600
   18MOL   H226 7400   5.451   3.584   6.185 -2.1153 -0.1915 -0.5763
   18MOL   H227 7401   5.515   3.650   6.339 -0.0059 -0.0673  2.0124
   18MOL   H228 7402   5.398   3.456   6.451  2.0111  0.1123  0.2053
   18MOL   H229 7403   5.337   3.412   6.304  1.1860 -0.2309 -1.1748
   18MOL   H230 7404   5.575   3.393   6.213 -1.1727  1.9380  0.1550
   18MOL   H231 7405   5.527   3.266   6.342  0.6522  0.4493  1.1653
   18MOL   H232 7406   5.642   3.409   6.360 -0.8525  2.2638  1.3856
   18MOL   C233 7407   5.047   3.788   6.113  0.4636 -0.5060  0.0234
   18MOL   C234 7408   5.058   3.765   5.963 -0.2132 -0.3640  0.6056
   18MOL   C235 7409   4.973   3.634   5.917 -0.6775 -0.1419 -0.1896
   18MOL   C236 7410   5.050   3.500   5.939 -0.1811 -0.0829 -0.2013
   18MOL   C237 7411   5.171   3.473   5.848  0.3438 -0.0664 -0.1028
   18MOL   C238 7412   5.252   3.342   5.876  0.0212  1.3270 -0.2659
   18MOL   C239 7413   5.347   3.352   6.004  0.4059  0.3365  0.2658
   18MOL   H240 7414   4.948   3.832   6.126  0.6311  0.2692 -1.2104
   18MOL   H241 7415   5.035   3.690   6.158 -2.2459  0.6910  2.1182
   18MOL   H242 7416   5.161   3.737   5.943  0.3590  2.8434 -1.3902
   18MOL   H243 7417   4.965   3.644   5.809  1.8547 -1.2675 -0.5085
   18MOL   H244 7418   4.873   3.643   5.958 -0.4939 -0.4783  0.3311
   18MOL   H245 7419   4.978   3.418   5.927 -0.9915  0.4040  1.2859
   18MOL   H246 7420   5.077   3.502   6.044  0.5009 -0.5279 -0.3679
   18MOL   H247 7421   5.243   3.555   5.843 -0.2949  0.4235 -1.4357
   18MOL   H248 7422   5.130   3.458   5.748 -0.9011 -1.2500  0.5683
   18MOL   H249 7423   5.176   3.265   5.889  1.8584 -0.1854  1.9185
   18MOL   H250 7424   5.306   3.321   5.784 -2.2053 -0.3074 -1.2444
   18MOL   H251 7425   5.425   3.423   5.979  1.1887 -0.8863 -0.8686
   18MOL   H252 7426   5.304   3.400   6.092 -1.4865 -0.1634 -0.3590
   18MOL   H253 7427   5.400   3.258   6.021 -2.0449 -1.0134  0.8512
   18MOL   C254 7428   5.028   3.893   5.879  0.0495 -0.1442  0.0832
   18MOL   C255 7429   5.151   3.943   5.805  0.5103  0.2846 -0.7268
   18MOL   C256 7430   5.170   4.097   5.812 -0.2071 -0.4977 -0.0684
   18MOL   C257 7431   5.051   4.191   5.774 -0.2852 -0.3270  0.4218
   18MOL   C258 7432   5.074   4.336   5.818 -0.4539  0.3612 -0.2603
   18MOL   C259 7433   4.950   4.429   5.795 -1.2701 -0.5632  0.3513
   18MOL   C260 7434   4.933   4.460   5.647  0.1825 -0.3127  0.6250
   18MOL   H261 7435   4.999   3.968   5.953 -1.6751  0.5522 -1.2544
   18MOL   H262 7436   4.938   3.896   5.818 -0.4699  1.0717  0.8775
   18MOL   H263 7437   5.247   3.915   5.849  0.3643  1.8556  0.6169
   18MOL   H264 7438   5.259   4.120   5.754 -0.7331 -0.8643 -1.0235
   18MOL   H265 7439   5.198   4.120   5.915 -0.4244 -0.5301 -0.0014
   18MOL   H266 7440   5.044   4.190   5.666  0.2596  1.1227  0.3569
   18MOL   H267 7441   4.961   4.149   5.818 -1.0112  0.6484 -0.1355
   18MOL   H268 7442   5.163   4.373   5.767 -0.6339  0.9356 -0.1583
   18MOL   H269 7443   5.109   4.345   5.921  0.9991  2.9279 -0.9264
   18MOL   H270 7444   4.856   4.390   5.833 -2.1353  1.3342  0.1684
   18MOL   H271 7445   4.975   4.517   5.853 -0.2909  0.3284 -1.3710
   18MOL   H272 7446   4.902   4.378   5.583  0.2927  0.0957  0.0495
   18MOL   H273 7447   4.866   4.541   5.620 -3.0902 -2.6662  1.4409
   18MOL   H274 7448   5.030   4.493   5.609 -0.5794  1.2105 -0.0401
   18MOL   C275 7449   5.151   3.893   5.656  0.2391  0.6626 -0.3949
   18MOL   C276 7450   5.290   3.854   5.601  0.8691 -0.6120  0.2350
   18MOL   C277 7451   5.305   3.850   5.444 -0.3553 -0.1944 -1.5995
   18MOL   C278 7452   5.187   3.781   5.378 -0.9422  0.0690  0.2014
   18MOL   C279 7453   5.197   3.751   5.228 -0.2600 -0.4148  0.2936
   18MOL   C280 7454   5.304   3.649   5.192 -0.5166  0.4677 -0.6171
   18MOL   C281 7455   5.313   3.608   5.045 -0.2882 -0.5073  0.5863
   18MOL   H282 7456   5.098   3.958   5.587 -0.2266  1.7579  0.9753
   18MOL   H283 7457   5.090   3.802   5.659 -0.5520  1.2405  1.6982
   18MOL   H284 7458   5.346   3.943   5.630  1.5066  0.0445 -2.8314
   18MOL   H285 7459   5.306   3.950   5.401  2.4040  0.5264  0.0812
   18MOL   H286 7460   5.400   3.799   5.426 -0.4362  0.2191 -3.2665
   18MOL   H287 7461   5.106   3.854   5.381  0.4057  1.6912 -1.9763
   18MOL   H288 7462   5.163   3.684   5.423 -1.8028  0.3953  0.4635
   18MOL   H289 7463   5.212   3.849   5.181 -0.0040  0.1511  1.5382
   18MOL   H290 7464   5.104   3.727   5.177  0.4503  0.5257 -1.4998
   18MOL   H291 7465   5.401   3.667   5.237 -0.8195  1.0366 -0.1774
   18MOL   H292 7466   5.283   3.559   5.249  0.2266 -0.2257 -1.4312
   18MOL   H293 7467   5.395   3.538   5.031  0.1805  0.3206 -0.9334
   18MOL   H294 7468   5.341   3.693   4.983 -1.1689 -0.7155 -0.1086
   18MOL   H295 7469   5.221   3.567   5.003 -1.1034 -0.2048  2.0769
   18MOL   C296 7470   5.349   3.736   5.666 -0.0701 -0.1115 -0.4261
   18MOL   C297 7471   5.501   3.732   5.689  0.4275  0.9726 -0.3975
   18MOL   C298 7472   5.538   3.599   5.763 -0.1050  0.3210 -0.0902
   18MOL   C299 7473   5.676   3.550   5.725 -0.2100  0.4243 -0.2363
   18MOL   C300 7474   5.735   3.449   5.823 -0.1497  0.1834  0.4117
   18MOL   C301 7475   5.873   3.395   5.780  0.3982 -0.3301 -0.0663
   18MOL   C302 7476   5.941   3.309   5.884  0.0532  0.5498  0.2877
   18MOL   H303 7477   5.301   3.729   5.764 -1.5947 -1.3137 -1.2279
   18MOL   H304 7478   5.334   3.643   5.612 -0.9517  1.2364 -2.5839
   18MOL   H305 7479   5.555   3.734   5.595 -3.4080 -1.6521 -2.7896
   18MOL   H306 7480   5.536   3.616   5.871  0.5227  0.0172 -0.0287
   18MOL   H307 7481   5.466   3.520   5.741 -1.3342  2.0979 -2.7091
   18MOL   H308 7482   5.746   3.633   5.730  0.6595 -0.3257  0.0593
   18MOL   H309 7483   5.663   3.499   5.629  0.0428 -0.9815  0.4593
   18MOL   H310 7484   5.657   3.373   5.834  0.1070  0.3001  3.6217
   18MOL   H311 7485   5.744   3.502   5.918 -2.9329 -2.4405  2.2639
   18MOL   H312 7486   5.862   3.334   5.690  5.4179  0.2033 -1.1848
   18MOL   H313 7487   5.939   3.479   5.759 -0.3919  0.2350 -0.3202
   18MOL   H314 7488   6.027   3.257   5.843  0.0450  1.8235 -1.4322
   18MOL   H315 7489   5.982   3.350   5.977  0.6984 -1.0918  0.7430
   18MOL   H316 7490   5.874   3.231   5.920 -0.3559  0.6680 -0.2224
   18MOL   C317 7491   5.555   3.847   5.773 -0.4071 -0.0394  0.3306
   18MOL   C318 7492   5.619   3.968   5.702  0.0316  0.0535  0.8810
   18MOL   C319 7493   5.611   4.095   5.797 -0.3747 -0.5200 -0.7565
   18MOL   C320 7494   5.639   4.239   5.742  0.0096  0.0160  0.7013
   18MOL   C321 7495   5.555   4.346   5.814  0.0424  0.8160  0.2269
   18MOL   C322 7496   5.595   4.485   5.785  0.2483  0.8847  0.2309
   18MOL   C323 7497   5.518   4.587   5.875  0.0526 -0.0230  0.2174
   18MOL   H324 7498   5.621   3.807   5.850  0.4398 -0.4758 -0.6078
   18MOL   H325 7499   5.479   3.892   5.837  0.1053  2.1336 -0.5531
   18MOL   H326 7500   5.549   3.994   5.623 -1.5744  0.4856  2.4038
   18MOL   H327 7501   5.684   4.082   5.877 -0.7097 -1.3427 -0.5719
   18MOL   H328 7502   5.512   4.096   5.843 -0.5297 -2.2619 -0.9951
   18MOL   H329 7503   5.617   4.241   5.635 -1.7524  2.2350  1.0642
   18MOL   H330 7504   5.746   4.258   5.751  0.3077 -0.6212 -1.2713
   18MOL   H331 7505   5.547   4.338   5.923  1.0343  2.2383  0.4091
   18MOL   H332 7506   5.451   4.329   5.785  0.4795 -2.1438  0.2046
   18MOL   H333 7507   5.565   4.518   5.685 -0.9862  3.5883  1.4548
   18MOL   H334 7508   5.702   4.491   5.804  0.6696  0.5894 -1.9251
   18MOL   H335 7509   5.548   4.578   5.979  1.8453  0.3703 -0.2312
   18MOL   H336 7510   5.411   4.572   5.862  0.4399 -2.6998 -0.0490
   18MOL   H337 7511   5.539   4.693   5.860 -3.5843  0.6852 -0.3707
   18MOL   C338 7512   5.763   3.935   5.646  0.2663 -0.0279 -0.6175
   18MOL   C339 7513   5.822   4.036   5.546 -0.0400 -0.8143 -0.0775
   18MOL   C340 7514   5.745   4.045   5.419  0.0124  0.1156 -0.1312
   18MOL   C341 7515   5.788   4.149   5.306  0.0004 -0.3766 -1.2247
   18MOL   C342 7516   5.682   4.152   5.193 -0.0317  0.0600  0.7305
   18MOL   C343 7517   5.671   4.015   5.121  0.0784  0.1077 -0.0423
   18MOL   C344 7518   5.803   3.942   5.078 -0.0059  0.7439 -0.9068
   18MOL   H345 7519   5.755   3.837   5.598 -1.9217 -0.1089 -0.1557
   18MOL   H346 7520   5.837   3.925   5.725  0.7208 -0.9875 -1.1578
   18MOL   H347 7521   5.813   4.136   5.589  0.1239 -0.0597 -1.7574
   18MOL   H348 7522   5.722   3.946   5.380  0.1096 -0.7450  1.9735
   18MOL   H349 7523   5.643   4.072   5.448  0.0825 -1.8824  2.0957
   18MOL   H350 7524   5.886   4.134   5.261 -0.3137 -0.0640 -2.0255
   18MOL   H351 7525   5.795   4.246   5.355  0.1348 -0.9131 -0.1677
   18MOL   H352 7526   5.583   4.186   5.225 -0.3587  0.0773 -0.2928
   18MOL   H353 7527   5.718   4.230   5.127  0.6427 -2.1175 -1.5374
   18MOL   H354 7528   5.609   3.941   5.172  0.9820 -0.0095  0.9152
   18MOL   H355 7529   5.625   4.044   5.027 -1.2666  3.3905  1.5694
   18MOL   H356 7530   5.869   3.912   5.160  0.0574  0.5624 -1.0227
   18MOL   H357 7531   5.860   4.005   5.010 -0.0639  0.5718 -1.1130
   18MOL   H358 7532   5.767   3.853   5.027  0.8985 -0.0856 -0.1258
   18MOL   C359 7533   5.971   4.004   5.523  0.5270  0.0339 -0.5221
   18MOL   C360 7534   6.058   4.125   5.489  0.7334  0.6653  0.8280
   18MOL   C361 7535   6.080   4.218   5.602  0.1295  0.4310  0.2722
   18MOL   C362 7536   6.021   4.357   5.589  0.0118  0.6375 -0.4115
   18MOL   C363 7537   6.074   4.454   5.695  0.6907 -0.0527  0.1307
   18MOL   C364 7538   5.999   4.593   5.694  0.0177 -0.4318 -0.4346
   18MOL   C365 7539   6.086   4.707   5.761 -0.4495  0.3230 -0.5390
   18MOL   H366 7540   5.976   3.924   5.449  3.1086  0.3917 -0.7836
   18MOL   H367 7541   6.014   3.953   5.609  3.8476  1.2774 -1.3644
   18MOL   H368 7542   6.011   4.197   5.422 -0.2426 -0.5983  0.1415
   18MOL   H369 7543   6.030   4.166   5.684 -0.9087  1.1514  0.1091
   18MOL   H370 7544   6.182   4.237   5.636 -0.4262  1.3555  1.4750
   18MOL   H371 7545   6.059   4.397   5.495 -0.6451  2.8577  0.2312
   18MOL   H372 7546   5.913   4.346   5.576  0.3088 -0.9435 -1.6221
   18MOL   H373 7547   6.069   4.415   5.797  0.2831 -1.5171 -0.4388
   18MOL   H374 7548   6.177   4.479   5.670 -0.4658  1.6220 -3.2432
   18MOL   H375 7549   5.971   4.618   5.591  1.2997  2.2112 -0.1914
   18MOL   H376 7550   5.911   4.574   5.755  0.4653  1.0922  0.7186
   18MOL   H377 7551   6.179   4.736   5.712 -0.0156  0.3870  0.3215
   18MOL   H378 7552   6.026   4.798   5.770  0.7950  1.1364 -0.3362
   18MOL   H379 7553   6.101   4.663   5.860 -1.2356 -0.8511 -0.9265
   18MOL   C380 7554   6.183   4.094   5.410  0.3818  0.1089  0.0178
   18MOL   C381 7555   6.269   3.973   5.460 -0.4353 -0.2740  0.4481
   18MOL   C382 7556   6.377   3.925   5.356 -0.2982 -0.9406 -0.3846
   18MOL   C383 7557   6.312   3.851   5.239  0.1938 -0.2540 -0.2976
   18MOL   C384 7558   6.404   3.804   5.127 -0.4581  0.6056  0.4346
   18MOL   C385 7559   6.334   3.711   5.024 -0.1102 -0.1624 -0.1885
   18MOL   C386 7560   6.239   3.791   4.933 -0.4736 -0.4200  0.4500
   18MOL   H387 7561   6.153   4.086   5.305  2.4849 -2.8418 -0.4177
   18MOL   H388 7562   6.243   4.185   5.411 -0.2394  0.5257 -0.0361
   18MOL   H389 7563   6.204   3.886   5.462 -1.6781  0.6018 -0.8038
   18MOL   H390 7564   6.448   3.857   5.404  1.4947  2.3179  1.7935
   18MOL   H391 7565   6.431   4.018   5.335  0.0523 -0.7710  1.1574
   18MOL   H392 7566   6.277   3.757   5.282  0.7567 -0.8655 -1.1494
   18MOL   H393 7567   6.225   3.908   5.208 -1.0207 -1.1717  1.3533
   18MOL   H394 7568   6.456   3.881   5.069  0.6564  0.5162  1.3184
   18MOL   H395 7569   6.488   3.750   5.168 -1.4072 -1.7861 -0.6830
   18MOL   H396 7570   6.283   3.625   5.068 -0.4339 -0.1822 -0.5982
   18MOL   H397 7571   6.416   3.676   4.961  0.9551  0.8281  0.6375
   18MOL   H398 7572   6.274   3.892   4.913  0.4424 -0.7894  0.1523
   18MOL   H399 7573   6.134   3.778   4.959 -0.6724  0.0602 -0.1019
   18MOL   H400 7574   6.238   3.745   4.834  0.8336  0.6853 -0.0913
   18MOL   C401 7575   6.330   3.984   5.604 -0.3294  0.3016  1.2226
   18MOL   C402 7576   6.426   4.105   5.610  0.2611 -0.6114  0.2361
   18MOL   C403 7577   6.511   4.095   5.742 -1.0418 -0.7045 -0.6099
   18MOL   C404 7578   6.648   4.164   5.724 -0.0513 -0.2718 -0.2387
   18MOL   C405 7579   6.742   4.075   5.639  0.3263  0.6751 -0.4328
   18MOL   C406 7580   6.890   4.101   5.675  0.5684 -0.4559  0.3411
   18MOL   C407 7581   6.992   4.001   5.609 -0.2226  0.0307  0.0646
   18MOL   H408 7582   6.382   3.890   5.625  1.0157  0.0069 -2.8686
   18MOL   H409 7583   6.241   3.995   5.665  0.6778 -0.1522  2.7879
   18MOL   H410 7584   6.378   4.203   5.618  1.7487  0.1217  0.2521
   18MOL   H411 7585   6.528   3.992   5.774  0.7431  0.0925  1.1171
   18MOL   H412 7586   6.460   4.143   5.826 -0.1811 -0.5531 -0.1717
   18MOL   H413 7587   6.697   4.188   5.819 -0.9831  1.0704 -0.0849
   18MOL   H414 7588   6.621   4.259   5.677  1.8363  0.9061  0.9968
   18MOL   H415 7589   6.736   3.967   5.648  0.6615  0.5962 -1.1066
   18MOL   H416 7590   6.733   4.094   5.532 -2.3000  1.5061 -0.0958
   18MOL   H417 7591   6.919   4.203   5.651 -2.2608  0.2283 -0.2786
   18MOL   H418 7592   6.911   4.099   5.782 -0.7752 -2.0243  0.5905
   18MOL   H419 7593   6.944   3.959   5.520 -0.6963 -1.0866  0.8346
   18MOL   H420 7594   7.002   3.912   5.671  0.2220  0.8001  1.1122
   18MOL   H421 7595   7.093   4.037   5.590  0.5329 -1.5092  1.0393
   18MOL   H422 7596   6.490   4.110   5.522  1.6872  0.5471  1.3077
   19MOL     C1 7597   7.057   7.026   1.151  0.5718  0.6288  0.8237
   19MOL     C2 7598   7.060   7.091   1.008  0.4065  0.3753 -0.7069
   19MOL     C3 7599   7.201   7.075   0.958  0.0385  0.5593  0.3928
   19MOL     C4 7600   7.231   6.928   0.925  0.1424 -0.1501  0.1530
   19MOL     C5 7601   7.327   6.916   0.804  0.1398 -0.2478  0.3188
   19MOL     C6 7602   7.464   6.975   0.827  0.1853 -0.0373  0.1900
   19MOL     C7 7603   7.528   6.926   0.964 -0.4311  0.8270 -0.1766
   19MOL     H8 7604   6.955   7.006   1.183 -0.0103 -0.5918 -1.6555
   19MOL     H9 7605   7.099   7.097   1.222  0.5490 -0.0837  1.5550
   19MOL    H10 7606   6.990   7.034   0.947 -0.3613  0.4824  0.0729
   19MOL    H11 7607   7.209   7.146   0.876 -1.0004 -0.7600 -0.8681
   19MOL    H12 7608   7.267   7.117   1.034 -1.0860 -0.0162  1.7269
   19MOL    H13 7609   7.271   6.878   1.014  0.9506  2.5957  1.3913
   19MOL    H14 7610   7.131   6.887   0.911 -0.9265  2.2784  0.5573
   19MOL    H15 7611   7.280   6.979   0.729  1.2871 -0.5728 -0.6866
   19MOL    H16 7612   7.334   6.812   0.770  1.7552 -0.1195  0.2367
   19MOL    H17 7613   7.461   7.079   0.798 -0.4638 -0.4971 -1.4408
   19MOL    H18 7614   7.532   6.934   0.752 -0.9527 -3.3433  0.8491
   19MOL    H19 7615   7.526   6.818   0.975 -0.6872  0.9613  1.1736
   19MOL    H20 7616   7.469   6.961   1.049 -0.9844 -1.8786  0.5890
   19MOL    H21 7617   7.633   6.955   0.975 -0.0712 -0.2195 -0.7604
   19MOL    H22 7618   7.121   6.938   1.153 -1.9655 -1.4415 -2.8634
   19MOL    C23 7619   7.018   7.239   1.008 -0.3887  1.1598  0.5229
   19MOL    C24 7620   6.883   7.278   1.069 -0.1498 -0.3355  0.2323
   19MOL    C25 7621   6.765   7.191   1.015  0.5775 -0.0034 -0.3336
   19MOL    C26 7622   6.730   7.220   0.858  0.1073  0.0022 -0.1070
   19MOL    C27 7623   6.622   7.130   0.803 -0.7714  0.1911  0.3248
   19MOL    C28 7624   6.617   7.132   0.650  0.0608 -0.4162  0.2262
   19MOL    C29 7625   6.691   7.014   0.599  0.3616 -0.0736 -0.4062
   19MOL    H30 7626   7.093   7.304   1.053  2.4156 -1.3893 -0.3305
   19MOL    H31 7627   7.028   7.273   0.905  3.9571  1.3088  0.9075
   19MOL    H32 7628   6.896   7.256   1.175  1.2876 -1.2637 -0.1234
   19MOL    H33 7629   6.673   7.191   1.073 -0.1598  0.0597 -1.4876
   19MOL    H34 7630   6.793   7.086   1.028 -0.2364 -0.0609  1.0918
   19MOL    H35 7631   6.818   7.191   0.801 -0.8380  1.5025 -2.3893
   19MOL    H36 7632   6.718   7.327   0.838  0.7457  0.5702  2.3488
   19MOL    H37 7633   6.534   7.184   0.835 -2.7428 -2.5173 -0.3501
   19MOL    H38 7634   6.620   7.026   0.836  1.5637 -0.6672 -2.0126
   19MOL    H39 7635   6.671   7.222   0.620  0.4692 -0.8019 -0.1909
   19MOL    H40 7636   6.517   7.141   0.606  0.2593  0.5677 -0.0360
   19MOL    H41 7637   6.657   6.920   0.643 -0.6407  0.1836 -0.6315
   19MOL    H42 7638   6.686   7.018   0.490  1.1294  0.3298 -0.4316
   19MOL    H43 7639   6.795   7.018   0.631 -0.1436 -2.5448  1.7853
   19MOL    C44 7640   6.850   7.431   1.062 -1.1130  0.6316 -1.1301
   19MOL    C45 7641   6.791   7.482   1.197 -0.4386 -0.3917 -0.8589
   19MOL    C46 7642   6.913   7.522   1.294 -0.9528 -0.4382  0.0100
   19MOL    C47 7643   6.853   7.537   1.435  0.0623 -0.6758 -0.0215
   19MOL    C48 7644   6.957   7.541   1.543  0.2455 -0.1719 -0.1131
   19MOL    C49 7645   7.035   7.420   1.587 -0.6279  0.3178 -0.3406
   19MOL    C50 7646   7.149   7.445   1.677  0.1082  0.1148  0.5547
   19MOL    H51 7647   6.788   7.464   0.979 -1.0305  1.3247 -0.9205
   19MOL    H52 7648   6.943   7.482   1.034  0.0233 -1.2763 -0.9513
   19MOL    H53 7649   6.726   7.408   1.245  1.7321 -2.2494 -0.6913
   19MOL    H54 7650   6.964   7.612   1.258 -0.5866 -0.3974  0.6253
   19MOL    H55 7651   6.982   7.438   1.294 -0.0872  0.2448  1.8919
   19MOL    H56 7652   6.793   7.628   1.437 -0.3134 -0.9052 -0.6642
   19MOL    H57 7653   6.785   7.456   1.458 -2.4314  1.2347 -0.4451
   19MOL    H58 7654   6.914   7.598   1.625  0.0892  0.9266 -0.9423
   19MOL    H59 7655   7.027   7.619   1.514 -1.1780  2.1892  2.5520
   19MOL    H60 7656   7.063   7.367   1.496  0.8968  1.4285 -0.5302
   19MOL    H61 7657   6.964   7.352   1.635  0.5180 -0.4503  0.2864
   19MOL    H62 7658   7.207   7.353   1.687  0.4906  0.2433 -0.4054
   19MOL    H63 7659   7.129   7.495   1.771 -1.2159  1.1047 -0.2351
   19MOL    H64 7660   7.221   7.508   1.625  2.1616 -1.2565  1.6607
   19MOL    C65 7661   6.702   7.606   1.183  0.5359  0.5600 -0.2547
   19MOL    C66 7662   6.566   7.583   1.108 -0.7534  0.8850 -0.7440
   19MOL    C67 7663   6.540   7.703   1.019  0.3553 -0.0249  0.4273
   19MOL    C68 7664   6.597   7.697   0.878 -0.0716  0.5833  0.3352
   19MOL    C69 7665   6.523   7.594   0.783  0.6724 -0.0220 -0.5701
   19MOL    C70 7666   6.530   7.628   0.636  0.0889  0.1349  0.8480
   19MOL    C71 7667   6.455   7.519   0.554 -0.3424  0.6413 -0.1296
   19MOL    H72 7668   6.682   7.657   1.277  0.2603 -1.5402  0.8643
   19MOL    H73 7669   6.755   7.685   1.130  2.2325 -0.0001  0.5762
   19MOL    H74 7670   6.575   7.495   1.044 -1.0145 -0.3576  0.8886
   19MOL    H75 7671   6.432   7.709   1.004  0.6844  0.6894 -1.7910
   19MOL    H76 7672   6.565   0.086   1.063  1.4035  0.6038 -1.4836
   19MOL    H77 7673   6.592   0.080   0.826 -1.4391 -0.8885 -2.3547
   19MOL    H78 7674   6.703   7.675   0.889 -0.6855 -2.8020  0.0091
   19MOL    H79 7675   6.556   7.493   0.805 -1.1592 -0.5623 -0.1718
   19MOL    H80 7676   6.416   7.586   0.805  1.4933  0.7851  4.2594
   19MOL    H81 7677   6.629   7.652   0.596 -0.8172  1.5020 -0.6346
   19MOL    H82 7678   6.465   0.002   0.627 -1.7709 -1.0268  2.5261
   19MOL    H83 7679   6.442   7.550   0.450  0.9476 -0.6668 -0.6981
   19MOL    H84 7680   6.514   7.428   0.551  1.3923  1.7372 -0.4400
   19MOL    H85 7681   6.354   7.499   0.587 -0.7321  1.5192 -0.7603
   19MOL    C86 7682   6.455   7.532   1.203  0.6690 -0.1615 -0.5542
   19MOL    C87 7683   6.337   7.465   1.136  0.0900 -0.3554  0.2286
   19MOL    C88 7684   6.354   7.321   1.093 -0.5013  0.4350 -0.1844
   19MOL    C89 7685   6.398   7.224   1.202 -0.2868 -0.4830 -0.3656
   19MOL    C90 7686   6.409   7.078   1.159  0.1031  0.2330 -0.1352
   19MOL    C91 7687   6.483   6.996   1.266 -0.0906 -0.1122  0.0543
   19MOL    C92 7688   6.507   6.860   1.208  0.1117  0.3498 -0.0970
   19MOL    H93 7689   6.492   7.461   1.277 -2.1566 -2.0411 -0.8790
   19MOL    H94 7690   6.433   7.622   1.260  0.0030 -1.0875  0.6875
   19MOL    H95 7691   6.317   7.518   1.042 -0.5076  0.9008  1.0528
   19MOL    H96 7692   6.264   7.279   1.047 -2.0401  1.2546  1.9810
   19MOL    H97 7693   6.425   7.324   1.010  1.0836  2.5662  1.1831
   19MOL    H98 7694   6.500   7.242   1.238 -0.0386  0.7810 -1.6649
   19MOL    H99 7695   6.328   7.232   1.285 -0.0461  2.0273 -0.3748
   19MOL   H100 7696   6.464   7.082   1.065  0.5361  0.2913  0.1175
   19MOL   H101 7697   6.311   7.035   1.135  0.5984  0.0792 -1.9588
   19MOL   H102 7698   6.582   7.040   1.278  0.2242 -0.5498 -0.8310
   19MOL   H103 7699   6.427   7.009   1.358 -0.9866  1.0232 -0.6294
   19MOL   H104 7700   6.572   6.864   1.121  1.4117 -1.9186  0.7286
   19MOL   H105 7701   6.414   6.806   1.188 -1.2531  2.3056  0.7998
   19MOL   H106 7702   6.568   6.799   1.274 -0.7341  1.9344  2.2012
   19MOL   C107 7703   6.209   7.500   1.215  0.5126  0.3618 -0.2683
   19MOL   C108 7704   6.079   7.519   1.130 -0.5571 -0.2876  0.5119
   19MOL   C109 7705   5.953   7.508   1.220 -0.4795 -0.6432 -0.3800
   19MOL   C110 7706   5.941   7.613   1.328  0.6199  0.1338 -0.2508
   19MOL   C111 7707   5.825   7.573   1.429 -0.7176  0.5629  0.5960
   19MOL   C112 7708   5.689   7.539   1.362  0.5090 -0.0407 -0.1135
   19MOL   C113 7709   5.582   7.522   1.465 -0.1891  0.3632 -0.1400
   19MOL   H114 7710   6.222   7.588   1.278 -2.0199  0.1546  0.6274
   19MOL   H115 7711   6.198   7.420   1.289  1.1566  1.9033  1.5476
   19MOL   H116 7712   6.073   7.434   1.062  1.2236  0.2713 -0.3709
   19MOL   H117 7713   5.956   7.409   1.265  1.0418 -0.5526 -0.2344
   19MOL   H118 7714   5.862   7.516   1.161  0.0899 -1.0706 -1.3177
   19MOL   H119 7715   6.032   7.629   1.387  0.3466 -0.5002  0.3513
   19MOL   H120 7716   5.915   7.709   1.284  1.8061  0.0458 -1.1853
   19MOL   H121 7717   5.806   7.656   1.497 -3.7630  0.9437 -0.6193
   19MOL   H122 7718   5.859   7.487   1.487 -1.9438 -0.3461 -0.0046
   19MOL   H123 7719   5.666   7.619   1.292 -0.3409 -0.8983 -0.8293
   19MOL   H124 7720   5.691   7.444   1.308  1.5264 -0.2239  0.2349
   19MOL   H125 7721   5.588   7.428   1.520  1.8936  0.5202 -0.0530
   19MOL   H126 7722   5.563   7.614   1.520  0.1539  0.7515 -0.6668
   19MOL   H127 7723   5.487   7.513   1.412 -1.0609 -1.2637  1.6384
   19MOL   C128 7724   6.096   7.657   1.058 -0.3359 -0.3046  0.1481
   19MOL   C129 7725   6.024   7.671   0.922 -0.2983  0.3770  0.4986
   19MOL   C130 7726   6.060   0.090   0.852  0.3384  0.2072  0.0734
   19MOL   C131 7727   6.020   0.096   0.700  0.0026 -0.3026  0.2043
   19MOL   C132 7728   6.088   0.205   0.622  0.1342 -0.1186  0.7699
   19MOL   C133 7729   6.234   0.180   0.587  0.5704 -0.2638  0.4080
   19MOL   C134 7730   6.293   0.309   0.527 -0.5638 -0.1874 -0.7556
   19MOL   H135 7731   6.067   0.029   1.119  2.0204  1.1114 -0.6588
   19MOL   H136 7732   6.200   7.690   1.059 -0.6551  0.7437 -0.2154
   19MOL   H137 7733   6.058   7.592   0.854 -1.7075 -0.5827  0.8792
   19MOL   H138 7734   6.167   0.110   0.857  0.8782 -0.1045 -5.7019
   19MOL   H139 7735   6.008   0.173   0.898  0.3425 -0.0721  0.5796
   19MOL   H140 7736   5.912   0.106   0.693  0.0157 -0.8325 -0.8442
   19MOL   H141 7737   6.051   0.006   0.646  1.2561  0.5678 -0.5447
   19MOL   H142 7738   6.096   0.291   0.687 -0.8650  0.8535 -0.3751
   19MOL   H143 7739   6.029   0.238   0.536  1.4255 -1.1750 -0.5482
   19MOL   H144 7740   6.252   0.095   0.521 -1.1083 -1.9329  2.0658
   19MOL   H145 7741   6.288   0.149   0.676  1.9358 -1.0421 -0.6642
   19MOL   H146 7742   6.266   0.399   0.582  1.3918 -1.1438  1.9006
   19MOL   H147 7743   6.262   0.314   0.423  0.1524 -1.5833 -1.0478
   19MOL   H148 7744   6.401   0.303   0.518 -0.5149  0.1798 -0.4382
   19MOL   C149 7745   5.873   7.651   0.931 -0.2495 -1.0689  0.1342
   19MOL   C150 7746   5.821   7.506   0.893 -0.5193  0.0908  0.6238
   19MOL   C151 7747   5.852   7.454   0.746 -0.0875  0.6197  0.1573
   19MOL   C152 7748   5.770   7.538   0.643 -0.3817  0.6274 -0.1830
   19MOL   C153 7749   5.792   7.494   0.499  0.3609 -0.3046 -0.8758
   19MOL   C154 7750   5.913   7.552   0.425 -0.9665  1.2655 -0.5848
   19MOL   C155 7751   5.916   7.514   0.278 -0.2869 -0.1901 -0.7301
   19MOL   H156 7752   5.836   7.674   1.031 -2.3642  0.5978 -0.9817
   19MOL   H157 7753   5.827   0.016   0.871  0.0728  0.1800  1.4760
   19MOL   H158 7754   5.880   7.438   0.955 -0.2330 -2.5196 -2.3424
   19MOL   H159 7755   5.958   7.467   0.728 -0.2973  0.6240 -1.1031
   19MOL   H160 7756   5.840   7.351   0.714  1.0166  0.1390  1.2493
   19MOL   H161 7757   5.782   7.646   0.640 -2.1204  0.8407  0.2459
   19MOL   H162 7758   5.665   7.540   0.670  0.0139 -0.5244  1.5797
   19MOL   H163 7759   5.707   7.535   0.445 -0.5465 -0.8650  0.1095
   19MOL   H164 7760   5.777   7.386   0.491  1.8404 -0.5897  0.2058
   19MOL   H165 7761   6.003   7.514   0.474  1.1258  3.1926 -2.7340
   19MOL   H166 7762   5.929   7.660   0.436 -3.4459  1.5292  0.7272
   19MOL   H167 7763   5.927   7.405   0.279  1.7841 -0.0093  0.0327
   19MOL   H168 7764   6.006   7.555   0.232  1.3937  0.6651  3.1433
   19MOL   H169 7765   5.826   7.544   0.225 -0.2404  0.1413 -0.6191
   19MOL   C170 7766   5.678   7.488   0.941  0.4466 -0.0884  0.6824
   19MOL   C171 7767   5.618   7.344   0.932 -0.2235  0.4182  0.1905
   19MOL   C172 7768   5.678   7.253   1.036  0.7007  0.0596 -0.4599
   19MOL   C173 7769   5.694   7.102   1.005 -0.6027  0.3299 -0.0851
   19MOL   C174 7770   5.807   7.074   0.909  0.3728 -0.7258 -0.1441
   19MOL   C175 7771   5.787   6.937   0.842 -0.7771 -0.4716 -0.1485
   19MOL   C176 7772   5.802   6.823   0.948  0.1402 -0.3093  0.0825
   19MOL   H177 7773   5.616   7.554   0.880 -1.5346 -1.7498  0.8605
   19MOL   H178 7774   5.668   7.524   1.044 -1.5847 -0.8584  0.7809
   19MOL   H179 7775   5.649   7.307   0.834 -1.1489  1.9624 -0.7085
   19MOL   H180 7776   5.620   7.270   1.127  1.6832 -0.1565  0.2132
   19MOL   H181 7777   5.775   7.291   1.070  0.3045  0.9288 -0.2776
   19MOL   H182 7778   5.603   7.052   0.973 -1.0615 -1.1945  3.3232
   19MOL   H183 7779   5.724   7.052   1.097 -1.8940 -1.8103 -0.7910
   19MOL   H184 7780   5.906   7.082   0.953  0.3973  0.4748 -0.4022
   19MOL   H185 7781   5.820   7.155   0.838  0.9885 -0.9448 -0.2856
   19MOL   H186 7782   5.866   6.919   0.769 -0.4303 -0.0686  0.1209
   19MOL   H187 7783   5.691   6.916   0.794 -0.9339  0.2917 -0.1786
   19MOL   H188 7784   5.706   6.813   1.000  0.4221  0.1743  0.6970
   19MOL   H189 7785   5.883   6.848   1.016  0.5927  1.3549 -1.0224
   19MOL   H190 7786   5.806   6.734   0.886 -3.1965 -0.3206 -0.2335
   19MOL   C191 7787   5.460   7.328   0.928  0.2830 -0.0941 -0.0124
   19MOL   C192 7788   5.398   7.375   0.788  0.1663 -0.5747 -0.5800
   19MOL   C193 7789   5.366   7.249   0.712  0.8665  0.3616 -0.1108
   19MOL   C194 7790   5.442   7.116   0.709  0.2790 -0.5910  0.4068
   19MOL   C195 7791   5.369   7.020   0.616 -0.2382 -0.7316  0.5395
   19MOL   C196 7792   5.424   6.874   0.614  0.1013 -1.5262 -0.1516
   19MOL   C197 7793   5.391   6.801   0.750  0.3625 -0.2529 -0.0459
   19MOL   H198 7794   5.423   7.381   1.016  1.5671 -1.3289  1.2911
   19MOL   H199 7795   5.420   7.233   0.963  0.0786  0.4906  1.3776
   19MOL   H200 7796   5.486   7.412   0.734  0.9439 -1.9470 -0.2790
   19MOL   H201 7797   5.347   7.272   0.607 -2.8683  0.0335  0.4330
   19MOL   H202 7798   5.270   7.210   0.745  1.3597 -3.2807 -2.6014
   19MOL   H203 7799   5.453   7.062   0.803  0.0241  0.5084  1.0840
   19MOL   H204 7800   5.542   7.138   0.671 -0.0405  0.0507 -0.0834
   19MOL   H205 7801   5.263   7.026   0.642 -0.5180 -0.9967 -0.4959
   19MOL   H206 7802   5.363   7.050   0.512 -0.5600 -0.2884  0.6846
   19MOL   H207 7803   5.532   6.866   0.604  0.0974 -1.2163 -0.4216
   19MOL   H208 7804   5.387   6.817   0.528 -0.2835  2.8940 -3.0740
   19MOL   H209 7805   5.434   6.701   0.741  2.3611  0.4610  1.3191
   19MOL   H210 7806   5.284   6.795   0.767  0.4713  0.5244  0.9187
   19MOL   H211 7807   5.434   6.844   0.840  1.5927  1.8491 -1.5734
   19MOL   C212 7808   5.288   7.480   0.806 -0.2291  0.3028  0.2265
   19MOL   C213 7809   5.329   7.623   0.851  0.2565  0.0488  0.6157
   19MOL   C214 7810   5.413   7.705   0.734 -0.5100 -0.2095 -0.4654
   19MOL   C215 7811   5.481   0.126   0.785  0.0562 -0.0474  0.7699
   19MOL   C216 7812   5.607   0.167   0.706  0.3313 -0.7446 -0.0756
   19MOL   C217 7813   5.575   0.188   0.562 -0.3266 -0.0848  0.5122
   19MOL   C218 7814   5.691   0.190   0.465 -0.2929 -0.1679 -0.1371
   19MOL   H219 7815   5.220   7.433   0.876 -0.4193  0.4931  0.1686
   19MOL   H220 7816   5.228   7.492   0.716 -0.6292  3.9021  0.9048
   19MOL   H221 7817   5.406   7.626   0.928  1.4767 -0.1086 -0.5743
   19MOL   H222 7818   5.491   7.638   0.699 -0.0677  1.1527 -2.0945
   19MOL   H223 7819   5.350   0.008   0.647 -0.9269  0.2482 -0.0818
   19MOL   H224 7820   5.516   0.110   0.887  1.2243 -2.7523 -0.0288
   19MOL   H225 7821   5.404   0.204   0.786 -1.9501 -1.9772 -0.3208
   19MOL   H226 7822   5.654   0.251   0.757  0.8285 -0.9525 -0.1899
   19MOL   H227 7823   5.675   0.083   0.717  0.1840 -0.9108 -0.4332
   19MOL   H228 7824   5.499   0.115   0.533  0.8517 -0.4225 -1.7806
   19MOL   H229 7825   5.527   0.285   0.548 -1.7284 -0.8787 -0.3091
   19MOL   H230 7826   5.776   0.243   0.509  0.6229 -2.1920  0.5768
   19MOL   H231 7827   5.662   0.237   0.371 -0.5679 -1.4963 -0.7171
   19MOL   H232 7828   5.745   0.097   0.446  0.5970  0.2474  0.2887
   19MOL   C233 7829   5.196   7.704   0.880 -0.3970 -0.2907 -0.4192
   19MOL   C234 7830   5.135   7.671   1.017 -0.2653  0.2975 -0.2685
   19MOL   C235 7831   5.162   0.066   1.127  0.8053 -0.0121 -0.2730
   19MOL   C236 7832   5.317   0.075   1.173 -0.2624 -0.6448 -0.2949
   19MOL   C237 7833   5.335   0.164   1.296  0.0844  0.0043  0.1400
   19MOL   C238 7834   5.463   0.121   1.371 -0.5488 -0.4215 -0.6842
   19MOL   C239 7835   5.514   0.216   1.485  0.4937 -0.3198  0.2368
   19MOL   H240 7836   5.125   7.678   0.801 -3.5203 -0.8124  2.4745
   19MOL   H241 7837   5.206   0.098   0.866  2.3591 -0.8340 -3.3787
   19MOL   H242 7838   5.184   7.580   1.053  0.6297  0.7089 -0.4402
   19MOL   H243 7839   5.097   0.034   1.209 -0.6993  0.9390 -1.0762
   19MOL   H244 7840   5.126   0.161   1.086  0.3241 -0.8063 -1.7177
   19MOL   H245 7841   5.385   0.093   1.090  0.0623  0.6571  0.2417
   19MOL   H246 7842   5.343   7.690   1.212 -0.6515 -0.5891  0.1077
   19MOL   H247 7843   5.250   0.150   1.363 -0.5719 -0.1967 -0.7330
   19MOL   H248 7844   5.336   0.268   1.266 -0.3386 -0.0793 -0.1568
   19MOL   H249 7845   5.450   0.023   1.417 -1.1811 -0.1868 -0.3636
   19MOL   H250 7846   5.544   0.112   1.298  1.2873 -1.4673  1.4267
   19MOL   H251 7847   5.500   0.317   1.447  2.6529 -0.1709 -0.2412
   19MOL   H252 7848   5.447   0.209   1.570 -0.6915  0.7286 -0.6003
   19MOL   H253 7849   5.618   0.196   1.511  0.2333 -0.6659  1.0211
   19MOL   C254 7850   4.985   7.634   1.012 -0.2325 -0.3625  0.2841
   19MOL   C255 7851   4.939   7.495   0.955 -0.1108  0.7892 -0.3746
   19MOL   C256 7852   4.783   7.481   0.943  0.3019 -0.8441  0.3605
   19MOL   C257 7853   4.733   7.395   0.829 -0.6544  0.4108  0.5570
   19MOL   C258 7854   4.583   7.419   0.800  0.1406  0.8045 -0.0272
   19MOL   C259 7855   4.489   7.390   0.911  0.3079 -0.4603  0.2191
   19MOL   C260 7856   4.480   7.243   0.933 -0.3521 -0.1309  0.2071
   19MOL   H261 7857   4.941   0.004   0.957 -1.4209 -1.6340 -0.7098
   19MOL   H262 7858   4.939   7.642   1.111  1.5780  1.1802  1.0517
   19MOL   H263 7859   4.978   7.478   0.855  0.8494 -2.9870  0.5374
   19MOL   H264 7860   4.739   7.581   0.937  1.1087 -0.3516  2.1100
   19MOL   H265 7861   4.745   7.447   1.039  1.2101 -1.2347  0.5878
   19MOL   H266 7862   4.789   7.425   0.741 -1.9425  0.4432 -0.2602
   19MOL   H267 7863   4.747   7.288   0.847  0.4369  0.6562  1.2295
   19MOL   H268 7864   4.550   7.359   0.715 -2.4058  2.2360 -0.1036
   19MOL   H269 7865   4.567   7.521   0.766  0.7018  0.5632 -1.0331
   19MOL   H270 7866   4.515   7.460   0.991 -0.8525  1.7968 -1.3285
   19MOL   H271 7867   4.390   7.425   0.885  0.8985 -0.0166 -1.5170
   19MOL   H272 7868   4.415   7.237   1.021 -0.9055  1.0671 -0.1025
   19MOL   H273 7869   4.431   7.197   0.847  1.3492  1.8399 -1.8913
   19MOL   H274 7870   4.577   7.197   0.950  1.7288  2.6508 -3.4600
   19MOL   C275 7871   4.987   7.368   1.039 -0.1631  0.6372 -0.3652
   19MOL   C276 7872   4.958   7.362   1.189  0.3861  0.2639 -0.1689
   19MOL   C277 7873   5.085   7.391   1.274  0.8207  0.6822 -0.0360
   19MOL   C278 7874   5.082   7.389   1.432 -0.0502  0.0184 -0.3035
   19MOL   C279 7875   5.203   7.456   1.503  0.4175  0.2194  0.2736
   19MOL   C280 7876   5.184   7.468   1.649 -0.1122  0.2189  0.2476
   19MOL   C281 7877   5.310   7.531   1.720 -0.2345  0.5422  0.8799
   19MOL   H282 7878   5.095   7.362   1.026 -0.1283  0.1395  0.1517
   19MOL   H283 7879   4.941   7.282   0.990  0.4620  0.0349  0.0959
   19MOL   H284 7880   4.888   7.437   1.225  0.8759  0.0119  1.3527
   19MOL   H285 7881   5.169   7.325   1.249 -0.3554 -0.9510  0.2352
   19MOL   H286 7882   5.110   7.491   1.240  0.6152  1.2552  1.4692
   19MOL   H287 7883   5.079   7.288   1.471  2.5989  0.4214  1.0495
   19MOL   H288 7884   4.986   7.439   1.444 -0.2888 -0.2108 -1.2350
   19MOL   H289 7885   5.206   7.555   1.457  2.0027  0.2677  0.4637
   19MOL   H290 7886   5.297   7.407   1.477  0.0287 -0.8566  0.8383
   19MOL   H291 7887   5.087   7.513   1.670 -2.0316 -3.0485 -1.1770
   19MOL   H292 7888   5.163   7.375   1.703 -1.0616  1.2189  1.6548
   19MOL   H293 7889   5.332   7.622   1.665  1.1271 -1.3732 -1.8875
   19MOL   H294 7890   5.395   7.465   1.703 -0.2490  1.2343 -2.0844
   19MOL   H295 7891   5.294   7.553   1.826  2.3846  0.9374  1.2448
   19MOL   C296 7892   4.883   7.229   1.225  0.5368 -0.0647 -0.3392
   19MOL   C297 7893   4.796   7.221   1.353 -0.4233 -1.1411 -0.0643
   19MOL   C298 7894   4.788   7.081   1.417 -0.1544  0.1811  0.3923
   19MOL   C299 7895   4.922   7.027   1.475  0.4058  0.0206 -0.1905
   19MOL   C300 7896   4.914   6.880   1.527 -0.3449 -0.3640 -0.0211
   19MOL   C301 7897   5.045   6.820   1.561 -0.7051  0.1013 -0.1933
   19MOL   C302 7898   5.118   6.870   1.683 -0.1141  0.7296  0.0334
   19MOL   H303 7899   4.814   7.206   1.144  0.8909 -1.0204 -0.3808
   19MOL   H304 7900   4.956   7.148   1.222  0.0084 -0.6135  1.2234
   19MOL   H305 7901   4.846   7.286   1.425  0.5542 -1.5737 -0.3504
   19MOL   H306 7902   4.714   7.079   1.497 -4.4595  1.3971 -3.3874
   19MOL   H307 7903   4.753   7.009   1.343  4.0223 -0.7582 -0.8086
   19MOL   H308 7904   4.960   7.103   1.544 -2.8779  0.7670  0.8697
   19MOL   H309 7905   5.000   7.027   1.399 -0.4218  0.2191 -1.0383
   19MOL   H310 7906   4.862   6.818   1.455 -0.9183 -1.1250  1.0255
   19MOL   H311 7907   4.847   6.871   1.613 -0.1188  0.4087  0.2432
   19MOL   H312 7908   5.028   6.712   1.562  0.7524 -0.1254  1.2641
   19MOL   H313 7909   5.117   6.838   1.481 -2.1950  0.0232 -1.5783
   19MOL   H314 7910   5.140   6.976   1.687  0.8015  0.5868 -1.2149
   19MOL   H315 7911   5.058   6.850   1.772  0.6002 -2.5143 -0.1369
   19MOL   H316 7912   5.210   6.815   1.699 -1.0103 -0.6111  0.6642
   19MOL   C317 7913   4.655   7.296   1.333  0.7144  0.5583 -0.8087
   19MOL   C318 7914   4.637   7.415   1.429  0.8602 -0.0944  0.2755
   19MOL   C319 7915   4.565   7.532   1.356 -0.0742 -1.1280 -1.5782
   19MOL   C320 7916   4.423   7.509   1.293  0.1402 -0.5346  0.6777
   19MOL   C321 7917   4.385   7.627   1.196  0.2573 -0.1240  0.9148
   19MOL   C322 7918   4.319   0.040   1.260  0.0730  0.6148  0.0278
   19MOL   C323 7919   4.249   0.128   1.155 -0.1274 -0.1187  0.0225
   19MOL   H324 7920   4.586   7.214   1.355  1.0459 -0.0087 -1.8001
   19MOL   H325 7921   4.644   7.331   1.230 -0.1174  1.4816 -0.4108
   19MOL   H326 7922   4.737   7.453   1.451  0.9866 -0.0722 -0.3216
   19MOL   H327 7923   4.630   7.564   1.274  2.0595 -2.6618 -0.5468
   19MOL   H328 7924   4.559   7.620   1.420 -0.1409 -1.5858 -0.9561
   19MOL   H329 7925   4.358   7.496   1.379 -1.2665  1.3495 -0.0610
   19MOL   H330 7926   4.433   7.417   1.235  1.4742 -1.2441  2.0025
   19MOL   H331 7927   4.305   7.586   1.135  2.1697  1.1706 -2.5572
   19MOL   H332 7928   4.460   7.661   1.125  0.5254 -1.8625  0.3354
   19MOL   H333 7929   4.398   0.097   1.309  1.5565 -2.2280  1.0093
   19MOL   H334 7930   4.253   0.003   1.338  0.1042  2.2289  0.8519
   19MOL   H335 7931   4.220   0.222   1.202  1.0722 -1.6338  3.9968
   19MOL   H336 7932   4.157   0.088   1.112 -0.4365 -0.5292  1.0648
   19MOL   H337 7933   4.325   0.153   1.081  0.4191 -3.1884 -0.4915
   19MOL   C338 7934   4.563   7.364   1.555  0.0388 -0.3554 -0.3388
   19MOL   C339 7935   4.597   7.441   1.681  0.1088 -0.2765 -0.5383
   19MOL   C340 7936   4.733   7.384   1.730 -0.0531 -0.3075 -0.0130
   19MOL   C341 7937   4.726   7.245   1.797  0.5573  0.2502  0.6326
   19MOL   C342 7938   4.854   7.184   1.850 -0.1791 -0.3735  0.1926
   19MOL   C343 7939   4.855   7.029   1.887 -0.7108  0.6027  0.3758
   19MOL   C344 7940   4.747   6.989   1.985  0.2246  0.1189 -0.4920
   19MOL   H345 7941   4.571   7.256   1.569  0.0967 -0.2426  0.5239
   19MOL   H346 7942   4.459   7.389   1.533  0.5892  1.3495 -1.0990
   19MOL   H347 7943   4.625   7.545   1.662 -2.4910  0.7053  0.6809
   19MOL   H348 7944   4.802   7.371   1.647  0.6470  4.5583 -0.3908
   19MOL   H349 7945   4.777   7.462   1.793  0.9276 -1.5391  0.8502
   19MOL   H350 7946   4.669   7.172   1.740  0.8050  1.6259 -1.4204
   19MOL   H351 7947   4.664   7.244   1.887  0.7856 -0.5770  0.7832
   19MOL   H352 7948   4.930   7.213   1.778  0.2411  2.2645  1.6202
   19MOL   H353 7949   4.875   7.245   1.938 -3.5187  3.7207 -1.6547
   19MOL   H354 7950   4.851   6.956   1.806  1.0457 -0.5279  1.2718
   19MOL   H355 7951   4.946   7.013   1.944 -0.4647  2.2259  0.4502
   19MOL   H356 7952   4.751   7.045   2.078  1.7897  1.4443 -1.3283
   19MOL   H357 7953   4.755   6.882   2.003 -0.8191  0.1254  0.0787
   19MOL   H358 7954   4.653   7.005   1.932  0.3380  2.0635 -0.1574
   19MOL   C359 7955   4.482   7.446   1.787 -0.5858  0.4177 -0.0509
   19MOL   C360 7956   4.511   7.533   1.913 -0.3063 -0.6403  0.4176
   19MOL   C361 7957   4.525   7.689   1.880  0.2731 -0.3257 -0.5411
   19MOL   C362 7958   4.430   0.041   1.784 -0.0688  0.4905 -0.1572
   19MOL   C363 7959   4.466   0.191   1.765 -0.0162  0.0673 -0.8172
   19MOL   C364 7960   4.362   0.266   1.681 -0.0150 -0.3800 -0.0535
   19MOL   C365 7961   4.224   0.278   1.753 -0.0826  0.4457 -0.2918
   19MOL   H366 7962   4.480   7.340   1.816  0.3351  0.6951  1.0519
   19MOL   H367 7963   4.389   7.476   1.739 -0.9502 -0.3564  0.1569
   19MOL   H368 7964   4.604   7.496   1.955  0.5255 -2.4787 -2.8854
   19MOL   H369 7965   4.528   0.037   1.970 -1.0898 -2.9854  1.4045
   19MOL   H370 7966   4.621   7.682   1.828 -0.1565  0.7435 -1.4988
   19MOL   H371 7967   4.431   7.708   1.686  1.5698  0.7739 -0.2805
   19MOL   H372 7968   4.330   0.027   1.827  0.5865  2.5840  2.2111
   19MOL   H373 7969   4.469   0.238   1.863  2.4748  1.5732 -1.5590
   19MOL   H374 7970   4.565   0.215   1.726 -0.2434  1.5175 -0.5344
   19MOL   H375 7971   4.394   0.370   1.672 -0.4272 -0.2742 -0.3004
   19MOL   H376 7972   4.347   0.231   1.579 -1.8265  1.7797 -0.5534
   19MOL   H377 7973   4.175   0.374   1.732 -0.7981  0.0413 -0.4957
   19MOL   H378 7974   4.153   0.213   1.701 -0.9326  0.5155  0.7556
   19MOL   H379 7975   4.233   0.256   1.859  0.8014 -0.1130 -0.4794
   19MOL   C380 7976   4.403   7.522   2.026  0.4878 -0.0678  0.6304
   19MOL   C381 7977   4.386   7.390   2.101  0.3103  0.1841 -0.9118
   19MOL   C382 7978   4.496   7.367   2.205  0.2263  0.3163 -0.2503
   19MOL   C383 7979   4.511   7.223   2.253 -0.5269  0.1659 -0.3715
   19MOL   C384 7980   4.636   7.207   2.339 -0.3261 -0.2732  1.0212
   19MOL   C385 7981   4.657   7.059   2.361 -0.2764 -0.3555  0.5174
   19MOL   C386 7982   4.786   7.044   2.438  0.5471 -0.1048 -0.9074
   19MOL   H387 7983   4.437   7.598   2.097 -0.5193  0.2573  0.7636
   19MOL   H388 7984   4.308   7.561   1.992  0.2857 -2.1501 -1.2083
   19MOL   H389 7985   4.395   7.310   2.027 -1.5041 -0.9353  0.0426
   19MOL   H390 7986   4.475   7.435   2.287  1.5921 -0.2747  0.6102
   19MOL   H391 7987   4.588   7.409   2.164 -0.0875 -1.9017 -3.4796
   19MOL   H392 7988   4.418   7.204   2.307 -0.5890  1.8713  0.1610
   19MOL   H393 7989   4.524   7.157   2.167 -2.6971 -0.6970 -0.0848
   19MOL   H394 7990   4.717   7.257   2.286 -1.0972  0.4808  0.5311
   19MOL   H395 7991   4.628   7.262   2.433 -0.6134  0.7564  0.4081
   19MOL   H396 7992   4.665   6.994   2.274  2.2025 -0.5610  0.8796
   19MOL   H397 7993   4.575   7.014   2.417 -1.0052  1.6498  1.1089
   19MOL   H398 7994   4.795   6.938   2.464  0.9362 -0.5053 -2.6562
   19MOL   H399 7995   4.768   7.108   2.525 -1.0996  0.1533 -1.4216
   19MOL   H400 7996   4.871   7.067   2.374  0.3312  0.2095 -1.0762
   19MOL   C401 7997   4.239   7.363   2.154 -1.0704  0.3449 -0.4807
   19MOL   C402 7998   4.118   7.383   2.066  0.0246 -0.2895  0.4215
   19MOL   C403 7999   3.995   7.311   2.126 -0.1926  1.0745  0.4774
   19MOL   C404 8000   3.871   7.326   2.037 -0.3315  0.8405 -0.2483
   19MOL   C405 8001   3.737   7.284   2.100  0.4566 -0.3118 -0.8630
   19MOL   C406 8002   3.737   7.123   2.113  0.2284 -0.2355  1.0845
   19MOL   C407 8003   3.605   7.047   2.116 -0.2320  0.1157 -0.0331
   19MOL   H408 8004   4.220   7.416   2.248  3.8072 -0.3617  1.0654
   19MOL   H409 8005   4.224   7.261   2.188  0.6415  0.0959 -0.4058
   19MOL   H410 8006   4.129   7.337   1.968 -0.1467 -0.9388  0.7064
   19MOL   H411 8007   3.973   7.349   2.225  0.8146  0.2349  1.0358
   19MOL   H412 8008   4.020   7.206   2.140  0.9032  0.8626 -2.6488
   19MOL   H413 8009   3.885   7.276   1.942  0.6160  1.3565 -0.3869
   19MOL   H414 8010   3.861   7.429   2.003 -0.8459  1.1583  0.8314
   19MOL   H415 8011   3.728   7.312   2.205 -2.3218  1.0297 -1.4160
   19MOL   H416 8012   3.649   7.321   2.047 -0.2202 -2.4974 -1.3207
   19MOL   H417 8013   3.798   7.086   2.032 -0.1134 -0.4628  0.9299
   19MOL   H418 8014   3.789   7.094   2.205  1.0647 -0.5932  0.4991
   19MOL   H419 8015   3.548   7.087   2.199 -0.1802 -1.4142  0.7594
   19MOL   H420 8016   3.630   6.942   2.131 -1.2103 -0.0538  0.4425
   19MOL   H421 8017   3.547   7.061   2.024  2.7832  1.3232 -1.8233
   19MOL   H422 8018   4.098   7.488   2.046  0.4581  0.0239  1.5844
   20MOL     C1 8019   6.339   6.573   2.425 -0.0440 -0.0781 -0.3952
   20MOL     C2 8020   6.267   6.704   2.463 -0.5659  0.5075  0.2141
   20MOL     C3 8021   6.356   6.768   2.573 -0.3342  0.3219  0.3621
   20MOL     C4 8022   6.314   6.914   2.605  0.2306  0.3336  0.1753
   20MOL     C5 8023   6.401   6.983   2.711  0.2617 -0.4618 -0.0779
   20MOL     C6 8024   6.374   7.129   2.729 -0.3645  0.2677 -0.4114
   20MOL     C7 8025   6.249   7.161   2.811  0.5098 -0.1380  0.7855
   20MOL     H8 8026   6.283   6.523   2.346 -0.4287 -0.8510  0.3518
   20MOL     H9 8027   6.340   6.502   2.508  2.4570  0.1297 -0.2054
   20MOL    H10 8028   6.268   6.770   2.376 -2.3615 -2.3479 -2.0800
   20MOL    H11 8029   6.357   6.709   2.665 -0.6385  0.6009  0.5443
   20MOL    H12 8030   6.461   6.774   2.544 -0.4673  0.1556 -0.1601
   20MOL    H13 8031   6.324   6.968   2.511  1.3239  2.3368  1.4131
   20MOL    H14 8032   6.207   6.921   2.624 -0.1182 -0.1774 -1.5360
   20MOL    H15 8033   6.500   6.982   2.665 -0.0163 -1.4361 -0.6722
   20MOL    H16 8034   6.384   6.933   2.807  2.3478  1.1189  1.1629
   20MOL    H17 8035   6.364   7.168   2.627 -0.7016  0.2229 -0.3933
   20MOL    H18 8036   6.456   7.186   2.773  0.1902 -0.1913 -0.8315
   20MOL    H19 8037   6.203   7.257   2.790  1.3255  0.5726  2.1723
   20MOL    H20 8038   6.263   7.157   2.919  0.1136  1.2878  0.8935
   20MOL    H21 8039   6.169   7.088   2.798  1.3728 -0.7786 -1.1530
   20MOL    H22 8040   6.439   6.601   2.390  0.5267 -2.2708 -0.6234
   20MOL    C23 8041   6.127   6.669   2.528 -0.3057  0.2062 -0.0212
   20MOL    C24 8042   6.034   6.605   2.420 -0.2424 -0.6131  1.2528
   20MOL    C25 8043   6.009   6.695   2.286  0.5969 -0.1779  0.5964
   20MOL    C26 8044   6.049   6.617   2.150  0.3063  0.9078 -0.1341
   20MOL    C27 8045   6.002   6.698   2.024 -0.9066  0.7718  0.7436
   20MOL    C28 8046   6.042   6.638   1.883  0.0821  0.2501 -0.4260
   20MOL    C29 8047   5.962   6.686   1.763 -0.5818  0.1398  0.2169
   20MOL    H30 8048   6.141   6.609   2.618  1.1368  2.0762  1.0404
   20MOL    H31 8049   6.074   6.755   2.568 -0.4361 -0.6218  1.6124
   20MOL    H32 8050   6.072   6.509   2.385 -0.4578  0.4068 -1.9089
   20MOL    H33 8051   6.056   6.794   2.283  2.3870 -1.0474 -0.4177
   20MOL    H34 8052   5.902   6.717   2.280 -0.0071 -2.9209  0.8668
   20MOL    H35 8053   6.007   6.517   2.148  0.8953  0.4655  4.1570
   20MOL    H36 8054   6.157   6.610   2.139  0.1340 -1.3098 -0.5091
   20MOL    H37 8055   6.051   6.794   2.037 -0.0042  0.1224  2.1994
   20MOL    H38 8056   5.893   6.708   2.027 -0.7806  2.5293  0.0769
   20MOL    H39 8057   6.027   6.530   1.887  1.4002  0.0607 -0.4616
   20MOL    H40 8058   6.151   6.641   1.872  0.1622  1.4234  0.5436
   20MOL    H41 8059   5.978   6.791   1.738  0.7697  0.3723  1.9763
   20MOL    H42 8060   5.976   6.626   1.674 -2.7268 -1.4502  0.9060
   20MOL    H43 8061   5.856   6.673   1.785 -0.2715 -1.5579  0.7739
   20MOL    C44 8062   5.891   6.578   2.479 -0.0080 -0.3811 -0.7063
   20MOL    C45 8063   5.868   6.481   2.602 -0.0482 -0.1068 -0.3995
   20MOL    C46 8064   5.738   6.518   2.672  0.0487 -0.1573 -0.1000
   20MOL    C47 8065   5.717   6.472   2.823  0.3114 -0.2599 -0.0184
   20MOL    C48 8066   5.594   6.545   2.895 -0.4541 -0.5165  0.3972
   20MOL    C49 8067   5.613   6.539   3.052 -0.2690 -0.4843  0.4255
   20MOL    C50 8068   5.596   6.399   3.104 -0.3559  0.0436 -0.1535
   20MOL    H51 8069   5.825   6.538   2.402  0.6071 -1.0069 -0.9171
   20MOL    H52 8070   5.858   6.679   2.505  2.1805  0.4894 -1.1160
   20MOL    H53 8071   5.941   6.507   2.679  1.9436 -0.1077 -2.2370
   20MOL    H54 8072   5.648   6.487   2.619 -0.1146  1.0881 -0.5591
   20MOL    H55 8073   5.734   6.626   2.663 -0.2204 -0.2801 -1.5884
   20MOL    H56 8074   5.716   6.363   2.827  2.0598 -0.2660  0.8473
   20MOL    H57 8075   5.805   6.500   2.882  0.5633 -3.1525  1.0945
   20MOL    H58 8076   5.500   6.502   2.862 -0.8471 -0.3101  1.2317
   20MOL    H59 8077   5.600   6.647   2.859 -1.3520 -1.2472 -1.8911
   20MOL    H60 8078   5.540   6.608   3.093  1.2776  0.7128  1.2019
   20MOL    H61 8079   5.710   6.579   3.081 -0.1472  0.3726 -1.0904
   20MOL    H62 8080   5.595   6.407   3.213  1.2016  0.7088 -0.1683
   20MOL    H63 8081   5.675   6.329   3.075 -0.8821  0.4321 -2.6798
   20MOL    H64 8082   5.502   6.359   3.068 -0.3472  0.0611 -0.1956
   20MOL    C65 8083   5.889   6.331   2.584 -0.4747 -0.1557 -0.4180
   20MOL    C66 8084   6.037   6.291   2.599 -0.2497  0.3213  0.7600
   20MOL    C67 8085   6.071   6.168   2.513 -0.6080 -0.7425 -0.4987
   20MOL    C68 8086   6.109   6.212   2.370 -0.4196  0.4821  0.3693
   20MOL    C69 8087   6.123   6.091   2.283  0.1313 -0.0827  0.0340
   20MOL    C70 8088   6.153   6.109   2.135 -0.2414  0.2388  0.1785
   20MOL    C71 8089   6.190   5.981   2.069  0.5572  0.3017  0.1067
   20MOL    H72 8090   5.828   6.264   2.644 -0.0588 -0.0099  0.1712
   20MOL    H73 8091   5.865   6.316   2.478  0.3243 -1.6634 -0.4041
   20MOL    H74 8092   6.105   6.368   2.563  1.2702 -0.5088  1.7843
   20MOL    H75 8093   6.154   6.109   2.552 -0.7214 -0.2801  0.4593
   20MOL    H76 8094   5.986   6.100   2.516  0.1320 -1.6814 -0.1927
   20MOL    H77 8095   6.044   6.286   2.323 -1.4274  0.3215  1.4886
   20MOL    H78 8096   6.207   6.260   2.376 -0.7557  1.4651 -1.5701
   20MOL    H79 8097   6.189   6.012   2.319 -2.0233 -2.2004 -0.5092
   20MOL    H80 8098   6.022   6.049   2.288 -0.5388  1.0829 -2.8847
   20MOL    H81 8099   6.236   6.178   2.126  1.9825 -2.2821  0.9631
   20MOL    H82 8100   6.069   6.146   2.076 -0.2105  1.9386  1.1562
   20MOL    H83 8101   6.298   5.977   2.056  0.4558 -2.1131 -0.1415
   20MOL    H84 8102   6.152   5.904   2.137 -1.9231  1.8063  0.5163
   20MOL    H85 8103   6.143   5.966   1.971 -0.4815 -0.9763  0.7826
   20MOL    C86 8104   6.077   6.264   2.744 -0.4487 -0.8702 -0.3788
   20MOL    C87 8105   6.211   6.329   2.800  0.4663  0.2544 -0.0450
   20MOL    C88 8106   6.198   6.338   2.960  0.0776  0.2604  0.7947
   20MOL    C89 8107   6.223   6.208   3.040  0.5085  0.4855 -0.3838
   20MOL    C90 8108   6.139   6.195   3.161 -0.7361  0.5453 -0.5682
   20MOL    C91 8109   5.993   6.172   3.117 -0.3621 -1.0387  0.1894
   20MOL    C92 8110   5.910   6.106   3.231  0.5186  0.3930 -0.7063
   20MOL    H93 8111   5.995   6.287   2.811 -0.1203  0.1809 -0.3309
   20MOL    H94 8112   6.089   6.157   2.761 -0.9496 -1.1728 -1.7997
   20MOL    H95 8113   6.205   6.430   2.761  1.9651  0.1126 -0.6766
   20MOL    H96 8114   6.269   6.408   3.003  0.2746  1.3397 -1.2499
   20MOL    H97 8115   6.099   6.372   2.991 -0.1300 -1.3135  1.9188
   20MOL    H98 8116   6.210   6.119   2.979  0.8588  0.9056 -1.0666
   20MOL    H99 8117   6.325   6.223   3.073  0.4858 -1.5770  0.7465
   20MOL   H100 8118   6.165   6.270   3.235  1.0910 -1.1911  0.6336
   20MOL   H101 8119   6.164   6.102   3.213 -1.6288  0.8838  0.4905
   20MOL   H102 8120   5.932   6.262   3.112 -0.4732 -1.1627 -0.6678
   20MOL   H103 8121   5.991   6.113   3.025  0.0381 -0.4584 -0.1889
   20MOL   H104 8122   5.881   6.176   3.309 -0.2907  0.0525 -0.6932
   20MOL   H105 8123   5.966   6.031   3.286 -0.1314  1.3962  1.3846
   20MOL   H106 8124   5.814   6.066   3.197  0.5128 -1.8751  1.8421
   20MOL   C107 8125   6.338   6.262   2.748  0.8634  0.0181  0.2150
   20MOL   C108 8126   6.473   6.313   2.802  0.5085  0.2740 -0.4275
   20MOL   C109 8127   6.580   6.202   2.786 -0.2420  0.5894  0.0948
   20MOL   C110 8128   6.555   6.062   2.854  0.3741  0.1315  0.5701
   20MOL   C111 8129   6.616   6.042   2.986 -0.1380  0.2564 -0.1838
   20MOL   C112 8130   6.573   5.902   3.047 -0.0653 -0.3643 -0.4058
   20MOL   C113 8131   6.417   5.882   3.077 -0.0609 -0.1388 -0.0544
   20MOL   H114 8132   6.338   6.267   2.639 -0.1563  1.2911  0.2598
   20MOL   H115 8133   6.323   6.159   2.780 -0.5219  0.7484  2.0232
   20MOL   H116 8134   6.471   6.334   2.909 -0.2680 -0.2926 -0.3252
   20MOL   H117 8135   6.675   6.242   2.819  0.5621 -1.4068  0.2415
   20MOL   H118 8136   6.603   6.202   2.679  1.6287 -0.6247  0.4834
   20MOL   H119 8137   6.450   6.042   2.873  0.4726 -0.5460  0.4176
   20MOL   H120 8138   6.588   5.977   2.795  0.9162 -0.2413  1.4049
   20MOL   H121 8139   6.587   6.122   3.054  0.4478  1.3244 -1.1769
   20MOL   H122 8140   6.724   6.031   2.979  0.0741  1.7394  0.4574
   20MOL   H123 8141   6.614   5.823   2.985  0.6350 -0.5587  0.3116
   20MOL   H124 8142   6.623   5.890   3.143  0.6140  1.7804 -0.4537
   20MOL   H125 8143   6.365   5.872   2.982 -0.3630 -0.9823  0.1971
   20MOL   H126 8144   6.405   5.791   3.137 -0.8300 -0.7054 -1.0701
   20MOL   H127 8145   6.379   5.963   3.139 -0.0982  0.1214 -0.4162
   20MOL   C128 8146   6.520   6.451   2.744 -0.4987  0.6620 -0.5012
   20MOL   C129 8147   6.634   6.525   2.824  1.0288 -0.0021  0.0820
   20MOL   C130 8148   6.580   6.628   2.927  0.2258 -0.0100 -0.1943
   20MOL   C131 8149   6.531   6.573   3.061  0.0766 -0.1983 -0.5746
   20MOL   C132 8150   6.507   6.666   3.172  0.2943  0.3649  0.2106
   20MOL   C133 8151   6.446   6.593   3.296  0.7008 -0.2246 -0.1456
   20MOL   C134 8152   6.295   6.601   3.311  0.0079 -0.0551  0.6150
   20MOL   H135 8153   6.555   6.443   2.641 -2.1187  1.4766 -1.1414
   20MOL   H136 8154   6.432   6.515   2.736 -1.8590 -1.2724 -1.3210
   20MOL   H137 8155   6.700   6.467   2.887  0.3865 -0.2038  0.5728
   20MOL   H138 8156   6.508   6.698   2.883 -1.3376 -1.8351 -0.5707
   20MOL   H139 8157   6.667   6.684   2.961  2.0953 -2.2358 -1.1985
   20MOL   H140 8158   6.608   6.501   3.089 -0.2497 -0.0312  0.7776
   20MOL   H141 8159   6.440   6.515   3.050 -1.4956  1.3906  3.2165
   20MOL   H142 8160   6.443   6.746   3.136 -1.3993 -0.9492  0.2397
   20MOL   H143 8161   6.605   6.708   3.195 -1.0275  2.9143  1.3924
   20MOL   H144 8162   6.487   6.631   3.390  0.2458 -1.1324  0.4248
   20MOL   H145 8163   6.485   6.491   3.299  1.1202 -0.0788 -0.5840
   20MOL   H146 8164   6.251   6.571   3.406 -0.8312 -2.3074 -0.4503
   20MOL   H147 8165   6.255   6.539   3.231  2.0960 -0.6358 -0.0207
   20MOL   H148 8166   6.275   6.706   3.288 -0.7738  0.0398  1.7130
   20MOL   C149 8167   6.725   6.599   2.724 -0.2494 -0.0812  0.5267
   20MOL   C150 8168   6.824   6.511   2.642 -0.4002  0.2307  0.4157
   20MOL   C151 8169   6.939   6.455   2.725  0.1366  0.4414 -0.2523
   20MOL   C152 8170   7.037   6.355   2.654  0.1443  0.0730 -0.5561
   20MOL   C153 8171   7.084   6.246   2.749 -0.9038 -0.1582  0.5972
   20MOL   C154 8172   6.966   6.158   2.808  0.3180  0.5271  0.3560
   20MOL   C155 8173   7.018   6.052   2.904  0.4479 -0.2779  0.3636
   20MOL   H156 8174   6.669   6.652   2.647 -0.0997  1.9194  1.7814
   20MOL   H157 8175   6.780   6.675   2.780 -1.3452  0.9971  0.1515
   20MOL   H158 8176   6.764   6.433   2.594 -0.2892  1.9435 -2.6450
   20MOL   H159 8177   7.003   6.538   2.756 -1.8470  1.9805 -0.1688
   20MOL   H160 8178   6.889   6.409   2.810  0.6185 -0.3356 -0.3852
   20MOL   H161 8179   7.128   6.402   2.617 -0.3154  1.5327  0.1354
   20MOL   H162 8180   6.987   6.311   2.567 -1.6616  1.6660 -0.3437
   20MOL   H163 8181   7.138   6.291   2.832  0.5585 -1.0241  0.1382
   20MOL   H164 8182   7.156   6.184   2.696 -1.9355 -0.0109 -1.0317
   20MOL   H165 8183   6.911   6.128   2.718  1.4301  2.2975 -0.9564
   20MOL   H166 8184   6.902   6.225   2.864 -1.3019 -0.1121 -0.6701
   20MOL   H167 8185   7.069   6.078   2.997  0.6397 -2.8166  1.0037
   20MOL   H168 8186   7.092   5.988   2.856  3.4590  1.7418  2.1519
   20MOL   H169 8187   6.930   5.993   2.931 -0.1669  0.4761  0.0401
   20MOL   C170 8188   6.876   6.590   2.522 -0.1776 -0.8280 -0.7126
   20MOL   C171 8189   6.783   6.615   2.405  0.1955  0.2083  0.3044
   20MOL   C172 8190   6.802   6.767   2.375  0.1291  0.1007 -0.1771
   20MOL   C173 8191   6.699   6.827   2.280  0.4565  0.1026 -0.1276
   20MOL   C174 8192   6.697   6.982   2.286 -0.6372 -0.0147 -0.0707
   20MOL   C175 8193   6.631   7.035   2.418  0.1870  0.2630  0.7270
   20MOL   C176 8194   6.678   7.182   2.440 -0.5539 -0.2424 -0.0219
   20MOL   H177 8195   6.953   6.536   2.466 -0.5385  0.4502 -2.4930
   20MOL   H178 8196   6.932   6.677   2.553 -1.4432 -0.4317  0.5202
   20MOL   H179 8197   6.678   6.617   2.435 -0.4733  3.7402 -1.9735
   20MOL   H180 8198   6.904   6.793   2.344  0.5117  1.5979  2.2104
   20MOL   H181 8199   6.798   6.808   2.475  4.1598 -0.9440  0.5042
   20MOL   H182 8200   6.599   6.794   2.306  0.8312 -0.1100  1.0887
   20MOL   H183 8201   6.720   6.798   2.177  0.6881 -0.2702  0.0224
   20MOL   H184 8202   6.646   7.018   2.197  1.3430  2.6918 -0.1810
   20MOL   H185 8203   6.804   6.999   2.289 -0.6183  0.2971 -2.1474
   20MOL   H186 8204   6.674   6.977   2.499 -0.3802 -0.4624  0.5168
   20MOL   H187 8205   6.522   7.031   2.417  0.2035 -0.5391  2.2598
   20MOL   H188 8206   6.632   7.239   2.359 -2.3570 -0.4691  0.8235
   20MOL   H189 8207   6.786   7.170   2.434 -0.7369 -1.5604 -1.1034
   20MOL   H190 8208   6.652   7.229   2.534  0.4131  1.5671 -0.6409
   20MOL   C191 8209   6.808   6.529   2.284  0.0681 -0.4953  0.3066
   20MOL   C192 8210   6.786   6.378   2.293 -0.6284 -0.0383 -0.0764
   20MOL   C193 8211   6.643   6.346   2.288 -1.0705  0.0819 -0.3867
   20MOL   C194 8212   6.620   6.201   2.350 -0.3138 -0.0199  0.3645
   20MOL   C195 8213   6.479   6.157   2.357  0.6335  0.0356  0.1464
   20MOL   C196 8214   6.457   6.020   2.417 -0.2470 -0.0061  0.6767
   20MOL   C197 8215   6.484   5.906   2.322  0.8726  0.9696  0.9796
   20MOL   H198 8216   6.907   6.557   2.251 -0.3972  0.3378 -0.3959
   20MOL   H199 8217   6.739   6.559   2.205  1.2336  1.6216  0.0486
   20MOL   H200 8218   6.824   6.341   2.388 -1.1544  0.1114  0.1967
   20MOL   H201 8219   6.601   6.337   2.188  1.0314  1.2617 -1.3863
   20MOL   H202 8220   6.589   6.422   2.344  0.4094  0.7223  0.1904
   20MOL   H203 8221   6.664   6.190   2.449  0.1936 -1.3731 -0.0044
   20MOL   H204 8222   6.666   6.125   2.288  0.5586  0.0795  0.8929
   20MOL   H205 8223   6.430   6.229   2.423  1.6751 -0.7425  1.7904
   20MOL   H206 8224   6.439   6.166   2.256 -0.2897 -2.7812  0.2214
   20MOL   H207 8225   6.356   6.010   2.458 -0.8102 -4.5664 -1.4825
   20MOL   H208 8226   6.517   6.008   2.507 -2.1948  1.0276  2.1707
   20MOL   H209 8227   6.466   5.809   2.369  0.5953  0.3788 -0.3278
   20MOL   H210 8228   6.585   5.910   2.282 -0.9305  2.7535 -3.7374
   20MOL   H211 8229   6.420   5.909   2.234  0.4695  0.7947  1.2636
   20MOL   C212 8230   6.864   6.309   2.177  0.4922  0.3751 -0.8558
   20MOL   C213 8231   7.011   6.281   2.206  0.6317  0.2119 -0.8659
   20MOL   C214 8232   7.043   6.131   2.210  0.3994 -0.5218 -0.0933
   20MOL   C215 8233   6.988   6.082   2.350  0.0827 -0.1965  0.0067
   20MOL   C216 8234   7.004   5.929   2.373  0.0572 -0.3923  1.1482
   20MOL   C217 8235   6.976   5.903   2.518 -0.6055 -0.3577  0.3061
   20MOL   C218 8236   6.827   5.912   2.547  0.3825  0.3966 -0.6546
   20MOL   H219 8237   6.861   6.377   2.092  2.0671  1.6540  0.0816
   20MOL   H220 8238   6.804   6.226   2.140  1.9696 -0.4433 -1.4699
   20MOL   H221 8239   7.038   6.332   2.298 -0.6791  1.7547 -1.3124
   20MOL   H222 8240   7.007   6.073   2.126  2.1689 -0.4554 -0.9088
   20MOL   H223 8241   7.150   6.117   2.194  0.7049  1.1637  0.2994
   20MOL   H224 8242   6.882   6.101   2.366  0.3715  1.6387 -0.2051
   20MOL   H225 8243   7.039   6.137   2.429 -0.2919 -0.0627  0.1523
   20MOL   H226 8244   6.923   5.880   2.320 -2.3446  3.2674  1.2929
   20MOL   H227 8245   7.108   5.908   2.346  0.3148  1.6066  0.4637
   20MOL   H228 8246   6.999   5.798   2.537  0.8769 -0.2928 -1.0356
   20MOL   H229 8247   7.027   5.974   2.583 -1.6888 -0.1112  0.9047
   20MOL   H230 8248   6.787   6.013   2.545  0.9332  0.6078 -1.0609
   20MOL   H231 8249   6.817   5.879   2.650 -0.0715 -2.1123 -1.4510
   20MOL   H232 8250   6.779   5.847   2.474  1.6761 -1.4205  0.0694
   20MOL   C233 8251   7.091   6.367   2.103  0.3036 -0.5778 -0.6392
   20MOL   C234 8252   7.243   6.378   2.132  0.0365 -0.4705  0.2829
   20MOL   C235 8253   7.332   6.343   2.013  0.2513 -0.3595  0.2190
   20MOL   C236 8254   7.309   6.196   1.956 -0.0318  0.1671 -0.1389
   20MOL   C237 8255   7.399   6.176   1.830 -0.1188  0.1093  0.7115
   20MOL   C238 8256   7.339   6.246   1.708 -0.2844  0.2537 -0.5128
   20MOL   C239 8257   7.424   6.255   1.581 -0.2130 -0.3065 -0.2584
   20MOL   H240 8258   7.040   6.462   2.090 -0.8623 -1.5694 -3.8048
   20MOL   H241 8259   7.068   6.324   2.006  1.6367  0.0664 -1.2532
   20MOL   H242 8260   7.271   6.302   2.205  0.8998 -1.8025 -1.3966
   20MOL   H243 8261   7.437   6.353   2.042  0.7433  0.5107 -1.7774
   20MOL   H244 8262   7.316   6.423   1.941 -0.2820  0.9156  1.7070
   20MOL   H245 8263   7.205   6.180   1.928  1.3579 -3.4667 -3.7315
   20MOL   H246 8264   7.313   6.130   2.042  0.0136  2.0557  1.3462
   20MOL   H247 8265   7.397   6.069   1.810 -0.6187  0.5763 -2.0291
   20MOL   H248 8266   7.499   6.215   1.848 -0.4526  1.6398 -0.6322
   20MOL   H249 8267   7.240   6.207   1.690 -0.4930  1.4004 -1.9727
   20MOL   H250 8268   7.305   6.349   1.723 -1.1305  0.3755 -3.0567
   20MOL   H251 8269   7.356   6.297   1.507 -0.5267  2.8971  1.7324
   20MOL   H252 8270   7.504   6.328   1.592 -0.5067 -0.0928  0.4946
   20MOL   H253 8271   7.453   6.158   1.541 -0.4583  0.4559 -2.3332
   20MOL   C254 8272   7.268   6.521   2.179  0.1398  0.4792 -0.6376
   20MOL   C255 8273   7.401   6.527   2.262  0.1895 -0.1622 -0.1785
   20MOL   C256 8274   7.379   6.488   2.404 -0.3294 -0.0224 -0.6513
   20MOL   C257 8275   7.500   6.458   2.491 -0.5116 -0.4852  0.2457
   20MOL   C258 8276   7.458   6.422   2.630  0.1844  0.7024  0.0421
   20MOL   C259 8277   7.562   6.359   2.720  0.6374  0.3396  1.0343
   20MOL   C260 8278   7.657   6.459   2.785 -0.2931 -0.6756 -0.6195
   20MOL   H261 8279   7.194   6.551   2.253  1.5768  0.0502  1.0052
   20MOL   H262 8280   7.273   6.594   2.097 -1.2599  0.6854 -0.5500
   20MOL   H263 8281   7.471   6.456   2.219 -1.1878 -1.6887  0.0429
   20MOL   H264 8282   7.314   6.400   2.401  0.1060 -0.3646 -0.1444
   20MOL   H265 8283   7.315   6.562   2.453 -0.2516 -0.1690 -0.3256
   20MOL   H266 8284   7.560   6.385   2.435 -2.0783 -0.7772 -1.0892
   20MOL   H267 8285   7.565   6.546   2.487  1.5301 -1.8059  2.9614
   20MOL   H268 8286   7.374   6.354   2.617  0.5755  0.0239  1.0347
   20MOL   H269 8287   7.413   6.506   2.682 -0.6937 -0.0142  0.4614
   20MOL   H270 8288   7.508   6.306   2.799  0.3389  0.6041  1.0078
   20MOL   H271 8289   7.613   6.286   2.657 -0.9911 -0.4839  0.6535
   20MOL   H272 8290   0.023   6.477   2.712 -1.0047  0.2618 -1.1876
   20MOL   H273 8291   7.605   6.554   2.798 -0.2655 -0.6503 -0.7005
   20MOL   H274 8292   7.710   6.421   2.872 -1.5573 -1.7548 -0.3156
   20MOL   C275 8293   7.469   6.665   2.239  0.0089  0.3464 -0.4452
   20MOL   C276 8294   7.578   6.647   2.132  0.9891  0.0169  0.0128
   20MOL   C277 8295   7.709   6.591   2.190 -0.1916 -0.3421  0.2636
   20MOL   C278 8296   0.073   6.677   2.287 -0.4579  0.2914 -0.3689
   20MOL   C279 8297   0.215   6.618   2.329  0.0116 -0.3059  0.4361
   20MOL   C280 8298   0.205   6.515   2.443  1.4484  0.7802  0.0013
   20MOL   C281 8299   0.323   6.426   2.451  0.1937  0.4298 -0.4329
   20MOL   H282 8300   7.510   6.712   2.329  0.2331  0.7539 -0.7598
   20MOL   H283 8301   7.394   6.738   2.211 -0.8306  0.2341  1.4546
   20MOL   H284 8302   7.532   6.584   2.057 -2.1435  2.7972 -0.5244
   20MOL   H285 8303   7.692   6.493   2.234 -1.7534  0.2039  0.9309
   20MOL   H286 8304   0.059   6.562   2.107 -1.8058  1.4221 -1.6518
   20MOL   H287 8305   0.021   6.699   2.380 -1.9956  1.9353 -1.5659
   20MOL   H288 8306   0.097   6.774   2.242  2.5945 -0.1115  0.2368
   20MOL   H289 8307   0.279   6.696   2.370  0.1339 -1.7564  3.1150
   20MOL   H290 8308   0.275   6.581   2.245 -0.2598 -0.2934  0.2347
   20MOL   H291 8309   0.192   6.566   2.538  1.8048  0.3081  0.3062
   20MOL   H292 8310   0.127   6.439   2.433  1.7661  0.4304  0.1549
   20MOL   H293 8311   0.405   6.495   2.474  0.9444 -0.1524 -1.3034
   20MOL   H294 8312   0.343   6.368   2.361  1.6588 -1.6373  1.1454
   20MOL   H295 8313   0.287   6.356   2.526  0.4772  0.7436 -0.0023
   20MOL   C296 8314   7.606   6.789   2.068  0.4591 -0.9496 -0.0612
   20MOL   C297 8315   7.512   6.825   1.955  0.1846 -0.5161  0.0829
   20MOL   C298 8316   7.533   6.738   1.828  0.1365  0.1534  0.1179
   20MOL   C299 8317   7.403   6.707   1.746 -0.2434  0.6702  0.1236
   20MOL   C300 8318   7.421   6.636   1.610  0.0754  0.8674  0.0025
   20MOL   C301 8319   7.284   6.621   1.551 -0.0667 -0.0254  0.1224
   20MOL   C302 8320   7.283   6.586   1.398  0.1872  0.0993 -0.1753
   20MOL   H303 8321   7.604   6.873   2.137  1.5938  0.2645 -1.4800
   20MOL   H304 8322   7.708   6.805   2.036  0.6181  0.2606  1.0074
   20MOL   H305 8323   7.414   6.788   1.987  0.7250  0.6428  3.3595
   20MOL   H306 8324   7.614   6.777   1.766  1.0279 -2.7590 -0.6267
   20MOL   H307 8325   7.573   6.640   1.851  0.6699  0.4815  0.6056
   20MOL   H308 8326   7.347   6.799   1.726 -1.4536 -0.4060 -1.5305
   20MOL   H309 8327   7.336   6.640   1.800 -0.3974  0.7801  0.0714
   20MOL   H310 8328   7.468   6.537   1.617 -1.2316  0.3705  2.4293
   20MOL   H311 8329   7.492   6.693   1.550  0.7054  4.4312  3.9042
   20MOL   H312 8330   7.245   6.528   1.594  0.1058 -1.2942 -2.3703
   20MOL   H313 8331   7.225   6.706   1.586  0.9121  0.8504 -0.3568
   20MOL   H314 8332   7.340   6.498   1.370  1.5802  0.8828  0.1049
   20MOL   H315 8333   7.179   6.591   1.368 -0.3211 -3.4758  0.8370
   20MOL   H316 8334   7.337   6.672   1.357 -1.2167 -0.1746 -2.6457
   20MOL   C317 8335   7.503   6.965   1.918  0.2325 -0.1916 -0.2954
   20MOL   C318 8336   7.425   7.055   2.031  0.0997  0.4551 -0.0387
   20MOL   C319 8337   7.476   7.202   2.028  0.0671  0.3554  0.3735
   20MOL   C320 8338   7.617   7.211   2.093 -0.4037 -0.5131 -0.3758
   20MOL   C321 8339   7.656   7.357   2.121  0.1270 -0.4789 -0.1601
   20MOL   C322 8340   0.087   7.375   2.177 -0.2361 -0.5315  0.1653
   20MOL   C323 8341   0.114   7.281   2.293  0.6560  0.2456 -0.1959
   20MOL   H324 8342   7.443   6.989   1.830  1.1402  2.9758 -0.1207
   20MOL   H325 8343   7.597   7.008   1.886  0.3373 -0.5824 -0.5135
   20MOL   H326 8344   7.447   7.025   2.133  1.2858  1.4573  0.0170
   20MOL   H327 8345   7.407   7.262   2.088 -0.9343 -0.5239  0.1225
   20MOL   H328 8346   7.468   7.244   1.928  1.7006 -0.4275 -0.1061
   20MOL   H329 8347   7.699   7.173   2.032  0.8603  0.3175  0.7663
   20MOL   H330 8348   7.606   7.146   2.180 -0.3769 -0.8754 -0.6373
   20MOL   H331 8349   7.592   7.405   2.195  2.6868  0.2155  1.6487
   20MOL   H332 8350   7.657   7.411   2.026  0.4644 -0.6375 -0.2483
   20MOL   H333 8351   0.105   7.477   2.212  0.5913 -0.5222 -0.2827
   20MOL   H334 8352   0.163   7.367   2.100 -1.2436 -0.5167 -0.8530
   20MOL   H335 8353   0.054   7.312   2.379  0.2569 -1.7978  0.2757
   20MOL   H336 8354   0.214   7.295   2.333  0.6791 -2.3166  0.7500
   20MOL   H337 8355   0.102   7.174   2.279 -0.6766  0.6144 -2.0616
   20MOL   C338 8356   7.270   7.055   2.022 -0.0879  0.5288 -0.1326
   20MOL   C339 8357   7.183   7.085   2.157  0.3006 -0.3740  0.1163
   20MOL   C340 8358   7.185   6.967   2.252  0.4330 -0.0151 -0.3308
   20MOL   C341 8359   7.149   7.002   2.395  0.8562  0.0586 -1.0202
   20MOL   C342 8360   7.188   6.882   2.484  0.3948 -0.0438  0.0920
   20MOL   C343 8361   7.129   6.895   2.619  0.1869  0.4146  0.1291
   20MOL   C344 8362   7.191   6.798   2.718  0.2992 -0.4742 -0.8086
   20MOL   H345 8363   7.245   6.959   1.976 -1.0646  1.3141 -1.2693
   20MOL   H346 8364   7.259   7.124   1.938  0.5835 -1.3842 -1.8573
   20MOL   H347 8365   7.238   7.167   2.203  1.8328 -1.6661  0.6376
   20MOL   H348 8366   7.114   6.893   2.216 -0.2648  0.3848  0.2194
   20MOL   H349 8367   7.283   6.921   2.262 -0.2078 -1.8251 -2.1234
   20MOL   H350 8368   7.044   7.029   2.407  1.1230  1.5266 -1.8038
   20MOL   H351 8369   7.195   7.095   2.428 -0.7027  0.5411 -0.1522
   20MOL   H352 8370   7.164   6.783   2.447 -0.6417 -0.1705  1.0686
   20MOL   H353 8371   7.297   6.876   2.493  0.7727  3.0314 -1.6595
   20MOL   H354 8372   7.163   6.995   2.644  0.7627  0.2923 -0.1424
   20MOL   H355 8373   7.022   6.902   2.603  0.2037  1.3693  0.4255
   20MOL   H356 8374   7.144   6.789   2.816  2.0569  1.5718  0.2658
   20MOL   H357 8375   7.296   6.820   2.736  0.0895 -0.0804 -0.0531
   20MOL   H358 8376   7.182   6.698   2.677  0.3427 -0.0590 -1.8596
   20MOL   C359 8377   7.035   7.123   2.125 -0.0603 -0.1341 -0.2461
   20MOL   C360 8378   6.999   7.251   2.033  0.8735 -0.8816  0.1969
   20MOL   C361 8379   6.899   7.209   1.916  0.1893  0.2676  0.2435
   20MOL   C362 8380   6.959   7.110   1.815  0.1385  0.6510 -0.0547
   20MOL   C363 8381   6.849   7.054   1.729 -0.2310  0.2447 -0.0080
   20MOL   C364 8382   6.901   6.965   1.615 -0.3886  0.5573  0.6016
   20MOL   C365 8383   6.801   6.878   1.541  0.0010 -0.2853 -0.5805
   20MOL   H366 8384   6.977   7.139   2.216 -0.1544 -0.0521 -0.3196
   20MOL   H367 8385   6.974   7.044   2.081 -0.4746  0.6513 -1.0899
   20MOL   H368 8386   7.086   7.290   1.980 -1.0229 -0.0307 -2.3885
   20MOL   H369 8387   6.812   7.164   1.963  0.9052 -2.5719 -1.0436
   20MOL   H370 8388   6.863   7.289   1.851 -0.0027  1.5100  1.8419
   20MOL   H371 8389   7.024   7.176   1.757  1.3116  2.1374  2.8274
   20MOL   H372 8390   7.037   7.044   1.853 -0.4459 -0.8839 -1.4845
   20MOL   H373 8391   6.787   6.998   1.799 -0.3002  0.0837 -0.1983
   20MOL   H374 8392   6.789   7.133   1.682 -1.6432  0.4721  2.0879
   20MOL   H375 8393   6.955   7.032   1.548  0.2646 -0.1933  0.3635
   20MOL   H376 8394   6.972   6.889   1.648  1.2609  2.4792  1.5879
   20MOL   H377 8395   6.710   6.935   1.524  0.0855  0.3299  1.0343
   20MOL   H378 8396   6.851   6.853   1.447  1.1195 -1.3073  0.2712
   20MOL   H379 8397   6.773   6.791   1.601 -0.2118 -0.1039 -0.4163
   20MOL   C380 8398   6.918   7.365   2.104 -1.0790 -0.0630 -0.1922
   20MOL   C381 8399   6.996   7.425   2.229  0.1616  0.5500  0.4770
   20MOL   C382 8400   7.080   7.544   2.194 -0.6066 -0.2040 -0.0144
   20MOL   C383 8401   7.187   7.524   2.089 -0.4287 -0.7304  0.1754
   20MOL   C384 8402   7.262   7.662   2.076  0.1186  0.2314  0.2112
   20MOL   C385 8403   7.406   7.644   2.029  0.1004  0.5762  0.1001
   20MOL   C386 8404   7.454   0.065   1.976  0.3974 -0.6048  0.0859
   20MOL   H387 8405   6.890   7.445   2.036 -0.6388  0.4609  0.2402
   20MOL   H388 8406   6.821   7.328   2.138 -0.8575  0.5893  1.1972
   20MOL   H389 8407   7.060   7.344   2.265 -2.2662 -2.3721 -1.4968
   20MOL   H390 8408   7.124   7.589   2.283 -1.5880  0.3928  0.1729
   20MOL   H391 8409   7.008   7.613   2.149 -2.0341 -0.8134  1.2768
   20MOL   H392 8410   7.262   7.451   2.118  0.0877 -0.2503  0.0558
   20MOL   H393 8411   7.148   7.489   1.993  1.8194 -1.2403 -0.5822
   20MOL   H394 8412   7.203   0.013   2.010 -0.3650  0.3618  0.7692
   20MOL   H395 8413   7.278   7.700   2.177  0.9259 -1.1151  0.6040
   20MOL   H396 8414   7.401   7.580   1.941  1.3467  2.3457 -1.2859
   20MOL   H397 8415   7.470   7.604   2.108 -1.9789  1.5124  2.3180
   20MOL   H398 8416   7.545   0.074   1.916  0.0454  0.2535 -0.3308
   20MOL   H399 8417   7.468   0.139   2.056 -3.6826  0.9058 -0.4462
   20MOL   H400 8418   7.375   0.104   1.911 -0.6056  0.1065  1.6953
   20MOL   C401 8419   6.900   7.456   2.348 -0.4880 -0.5291 -0.5108
   20MOL   C402 8420   6.958   7.431   2.488  0.5788  0.0636 -0.4500
   20MOL   C403 8421   6.874   7.502   2.589 -0.1474 -0.4929 -0.8297
   20MOL   C404 8422   6.923   7.480   2.742 -0.3805 -0.1761 -0.6665
   20MOL   C405 8423   6.826   7.539   2.849 -0.0316  0.4031 -0.3301
   20MOL   C406 8424   6.878   7.522   2.995  0.3897 -0.1805  1.0127
   20MOL   C407 8425   6.849   7.385   3.057 -0.6446  0.3789 -0.4194
   20MOL   H408 8426   6.804   7.407   2.331 -0.8144  0.0807 -0.4317
   20MOL   H409 8427   6.872   7.561   2.342  1.4535  0.1458  1.6718
   20MOL   H410 8428   7.064   7.453   2.503  0.3216  2.3764 -1.7993
   20MOL   H411 8429   6.765   7.488   2.588 -0.4935  1.0748  4.0531
   20MOL   H412 8430   6.878   7.609   2.568 -2.2391  0.1480  1.7795
   20MOL   H413 8431   7.017   7.533   2.758 -0.0718 -1.1855  0.9578
   20MOL   H414 8432   6.946   7.377   2.771  2.2350  0.5962  0.0891
   20MOL   H415 8433   6.809   7.646   2.838 -0.9540  0.5518  2.1097
   20MOL   H416 8434   6.731   7.490   2.833  0.1950  0.5860 -2.3468
   20MOL   H417 8435   6.982   7.551   3.014  0.2042  2.9429 -2.2245
   20MOL   H418 8436   6.818   7.597   3.047 -0.0649  1.1325 -1.3245
   20MOL   H419 8437   6.741   7.372   3.069 -0.2509 -1.4863  1.4299
   20MOL   H420 8438   6.887   7.365   3.157 -1.5291 -1.1710 -0.3680
   20MOL   H421 8439   6.885   7.301   2.998  0.0722  0.8319 -0.6376
   20MOL   H422 8440   6.948   7.326   2.514 -0.1119  0.1263 -0.4418
   21MOL     C1 8441   7.100   4.236   5.079  0.4572  0.3154  0.1680
   21MOL     C2 8442   7.161   4.273   5.218  0.0862  0.3467 -0.1023
   21MOL     C3 8443   7.195   4.148   5.295  0.0729 -0.1881 -0.4477
   21MOL     C4 8444   7.322   4.076   5.239  0.0496  0.9363 -0.0807
   21MOL     C5 8445   7.371   3.963   5.332 -0.0793  0.8379 -0.0646
   21MOL     C6 8446   7.514   3.917   5.305 -0.2478  0.2182  0.1983
   21MOL     C7 8447   7.615   4.020   5.342 -0.5852  1.1859 -0.9559
   21MOL     H8 8448   7.050   4.314   5.022 -2.7789 -1.8333 -0.0249
   21MOL     H9 8449   7.035   4.149   5.083  1.6280 -0.5877 -0.2263
   21MOL    H10 8450   7.247   4.338   5.202  1.2242 -0.6167  1.9334
   21MOL    H11 8451   7.206   4.173   5.400 -2.2745  0.3182 -0.2962
   21MOL    H12 8452   7.116   4.073   5.290 -0.7039  0.6712 -1.0604
   21MOL    H13 8453   7.314   4.044   5.135 -1.2732  0.3137  0.2019
   21MOL    H14 8454   7.399   4.153   5.244  1.6021 -0.5889 -0.0039
   21MOL    H15 8455   7.304   3.876   5.325  1.0210 -0.1543  1.3492
   21MOL    H16 8456   7.353   4.003   5.432 -0.2304 -2.7812  1.4516
   21MOL    H17 8457   7.517   3.889   5.199  0.5776  2.4328 -0.3837
   21MOL    H18 8458   7.523   3.826   5.364  1.2732  0.2604  0.0428
   21MOL    H19 8459   7.685   4.036   5.260  2.8653 -0.1635  1.6321
   21MOL    H20 8460   7.667   3.988   5.432 -1.0740 -2.2270 -1.8113
   21MOL    H21 8461   7.560   4.112   5.363 -1.1595  0.9514 -1.3915
   21MOL    H22 8462   7.182   4.200   5.016 -2.5764 -1.8636 -2.6667
   21MOL    C23 8463   7.058   4.362   5.286  0.4759 -0.1727 -0.5152
   21MOL    C24 8464   7.093   4.431   5.423  0.3973  0.4092  0.4304
   21MOL    C25 8465   7.003   4.555   5.444  0.2406 -0.0347 -0.5346
   21MOL    C26 8466   6.862   4.510   5.461 -0.3182  0.0740  0.2852
   21MOL    C27 8467   6.760   4.624   5.489  0.0269  0.3660  0.4850
   21MOL    C28 8468   6.630   4.575   5.540 -0.0140  0.7549 -0.8917
   21MOL    C29 8469   6.627   4.527   5.679  0.6528  0.1541 -0.2388
   21MOL    H30 8470   7.048   4.444   5.215 -0.1630  0.3651  0.1882
   21MOL    H31 8471   6.969   4.298   5.293 -0.3737  0.9643 -0.8238
   21MOL    H32 8472   7.060   4.361   5.499  1.2299  0.8603  1.2122
   21MOL    H33 8473   7.016   4.628   5.364  1.9739  1.1368  0.7755
   21MOL    H34 8474   7.032   4.596   5.541 -1.0126 -3.0962  1.1842
   21MOL    H35 8475   6.864   4.441   5.545 -2.0927 -0.9497 -0.4782
   21MOL    H36 8476   6.833   4.441   5.381  0.3316  0.5051 -0.3341
   21MOL    H37 8477   6.732   4.674   5.396  0.7439 -0.0585  0.0338
   21MOL    H38 8478   6.814   4.700   5.545 -0.0621  0.9872 -0.2688
   21MOL    H39 8479   6.613   4.487   5.479  2.0600 -2.1342  2.4353
   21MOL    H40 8480   6.557   4.653   5.521 -2.7198 -0.8629  2.3576
   21MOL    H41 8481   6.531   4.480   5.702  0.0687  0.0418 -2.7617
   21MOL    H42 8482   6.700   4.448   5.696  2.1172  1.2820 -1.2514
   21MOL    H43 8483   6.648   4.605   5.752 -1.5066  0.3276  0.2507
   21MOL    C44 8484   7.238   4.477   5.435 -0.4129 -0.6400 -0.3582
   21MOL    C45 8485   7.289   4.531   5.571 -0.2840 -0.1948  0.3374
   21MOL    C46 8486   7.306   4.422   5.677 -0.6715 -0.7884 -0.5440
   21MOL    C47 8487   7.398   4.313   5.642 -0.1263  0.3900  0.0900
   21MOL    C48 8488   7.412   4.200   5.747 -0.3151 -0.3500  0.5235
   21MOL    C49 8489   7.535   4.106   5.734 -0.2240 -0.3416 -0.1641
   21MOL    C50 8490   7.544   3.997   5.843  0.8404 -0.0277  0.0458
   21MOL    H51 8491   7.247   4.544   5.349 -0.5716  2.4783  1.9722
   21MOL    H52 8492   7.309   4.401   5.405  2.6454  1.5131  1.1644
   21MOL    H53 8493   7.219   4.603   5.612  0.5569 -0.1705  1.7547
   21MOL    H54 8494   7.203   4.401   5.705 -0.5085 -2.3169 -1.0330
   21MOL    H55 8495   7.342   4.456   5.774  0.3588  0.3174 -1.2987
   21MOL    H56 8496   7.358   4.254   5.559 -0.6798  1.6724 -0.5672
   21MOL    H57 8497   7.492   4.359   5.612 -0.6267  0.4750 -1.4027
   21MOL    H58 8498   7.322   4.137   5.747  0.2068 -1.1265 -2.0604
   21MOL    H59 8499   7.416   4.253   5.842 -1.3245  3.3167 -1.3983
   21MOL    H60 8500   7.623   4.171   5.730 -0.8886  0.6413  0.8706
   21MOL    H61 8501   7.531   4.065   5.633  0.1112  0.8571 -0.6730
   21MOL    H62 8502   7.541   4.044   5.942 -0.7158 -2.0031  0.9796
   21MOL    H63 8503   7.644   3.953   5.836  0.7609 -0.4656  1.4410
   21MOL    H64 8504   7.466   3.921   5.843 -0.7989  1.6392 -0.8493
   21MOL    C65 8505   7.426   4.602   5.543  0.3470  0.2837 -0.1609
   21MOL    C66 8506   7.419   4.748   5.483 -0.3309 -0.1320 -0.3983
   21MOL    C67 8507   7.542   4.782   5.392  0.0481  0.0094  0.2726
   21MOL    C68 8508   7.554   4.676   5.282 -1.0525  0.5995 -0.5744
   21MOL    C69 8509   7.682   4.589   5.285  0.5514 -0.1971 -0.1445
   21MOL    C70 8510   7.684   4.478   5.184  0.1742 -0.3909  0.4358
   21MOL    C71 8511   0.076   4.378   5.211  0.0406  0.0942  0.4494
   21MOL    H72 8512   7.483   4.619   5.634 -0.2270 -0.2319  0.3027
   21MOL    H73 8513   7.480   4.538   5.473  1.1408 -0.4658  1.1274
   21MOL    H74 8514   7.332   4.743   5.417  0.3771  0.8162 -1.4388
   21MOL    H75 8515   7.526   4.877   5.342  0.8881 -0.4915 -0.9605
   21MOL    H76 8516   7.629   4.782   5.457 -0.3905 -0.0616  0.8730
   21MOL    H77 8517   7.465   4.615   5.267 -1.3602  1.2023 -1.2246
   21MOL    H78 8518   7.555   4.726   5.185 -0.8522  1.3098 -0.2100
   21MOL    H79 8519   0.049   4.663   5.276 -1.3250  1.9401  0.2505
   21MOL    H80 8520   7.703   4.551   5.385 -2.8358  1.3450  1.2161
   21MOL    H81 8521   7.699   4.517   5.084  0.3954  0.9791  0.9925
   21MOL    H82 8522   7.587   4.427   5.185  0.3176 -0.7956 -2.5962
   21MOL    H83 8523   0.132   4.395   5.303  3.5949  0.2458 -1.6583
   21MOL    H84 8524   0.041   4.275   5.222 -1.0506  0.5275  1.0825
   21MOL    H85 8525   0.148   4.372   5.129  0.1347  0.1046  0.5311
   21MOL    C86 8526   7.400   4.855   5.599 -0.7759  0.0127  0.2434
   21MOL    C87 8527   7.355   4.993   5.555 -0.0638  0.4012  0.0222
   21MOL    C88 8528   7.211   5.032   5.593 -0.5570 -0.1760  0.2664
   21MOL    C89 8529   7.099   4.985   5.497 -0.2525 -0.2565  0.6110
   21MOL    C90 8530   6.954   5.026   5.534 -0.4381 -0.1277  0.7484
   21MOL    C91 8531   6.907   4.972   5.673  0.0781  0.2132  0.6882
   21MOL    C92 8532   6.758   4.999   5.690 -0.5329 -0.3447  0.3099
   21MOL    H93 8533   7.337   4.816   5.679 -0.7242 -0.7199 -0.0733
   21MOL    H94 8534   7.496   4.875   5.646 -0.2747  1.3821 -1.2907
   21MOL    H95 8535   7.357   4.997   5.446 -1.8865 -0.6550 -0.0627
   21MOL    H96 8536   7.181   4.999   5.693  1.1251 -0.0930  0.8048
   21MOL    H97 8537   7.197   5.140   5.593  0.5494 -0.0278  0.3072
   21MOL    H98 8538   7.119   5.031   5.400 -1.5905  0.2163  0.5639
   21MOL    H99 8539   7.114   4.879   5.478 -0.7024 -0.1225 -0.5160
   21MOL   H100 8540   6.882   4.982   5.465  0.2217 -0.1430  0.0734
   21MOL   H101 8541   6.947   5.135   5.536 -2.4708 -0.2261  0.3234
   21MOL   H102 8542   6.925   4.864   5.675 -2.5940 -0.3121 -0.3510
   21MOL   H103 8543   6.961   5.018   5.755  0.1496 -0.5972  1.1032
   21MOL   H104 8544   6.722   4.971   5.789  1.5956 -0.4235  1.0947
   21MOL   H105 8545   6.695   4.946   5.618 -1.8512  1.6273 -0.0448
   21MOL   H106 8546   6.743   5.106   5.672 -1.2374 -0.5701 -0.5016
   21MOL   C107 8547   7.452   5.121   5.586 -0.4413  0.2765  0.4862
   21MOL   C108 8548   7.500   5.148   5.729 -0.5083 -1.1684  0.2138
   21MOL   C109 8549   7.581   5.279   5.737  0.4906 -0.2579 -0.6929
   21MOL   C110 8550   0.004   5.292   5.805  0.4534 -0.0308 -0.1061
   21MOL   C111 8551   0.060   5.431   5.792  0.2545 -0.3011 -0.2948
   21MOL   C112 8552   0.213   5.442   5.789 -0.0614 -0.0659  0.6809
   21MOL   C113 8553   0.275   5.393   5.920 -0.0775  0.0553  0.2347
   21MOL   H114 8554   7.401   5.210   5.550  0.3520  0.4163 -0.3061
   21MOL   H115 8555   7.537   5.111   5.519  0.8606 -0.0211  2.1451
   21MOL   H116 8556   7.570   5.073   5.765 -0.2667 -0.0928  2.0134
   21MOL   H117 8557   7.517   5.357   5.779  0.3570 -2.4693  3.4959
   21MOL   H118 8558   7.588   5.306   5.631 -1.3001 -0.3289 -0.8519
   21MOL   H119 8559   0.005   5.261   5.909  0.7628 -1.2473 -0.4638
   21MOL   H120 8560   0.069   5.220   5.755 -1.4622  0.1647 -2.9963
   21MOL   H121 8561   0.018   5.493   5.871 -1.2929 -1.3669 -0.2567
   21MOL   H122 8562   0.025   5.472   5.697  0.6355  2.3450  0.6598
   21MOL   H123 8563   0.255   5.381   5.709 -2.0054  1.8150 -1.8463
   21MOL   H124 8564   0.232   5.549   5.781 -2.6240  0.4469  0.8521
   21MOL   H125 8565   0.379   5.423   5.930 -0.2531  0.7120  0.1336
   21MOL   H126 8566   0.223   5.435   6.007  1.8336  0.9318  0.9821
   21MOL   H127 8567   0.263   5.287   5.944  1.8587 -0.4128 -0.8213
   21MOL   C128 8568   7.382   5.132   5.830 -0.2837  0.0102 -1.1565
   21MOL   C129 8569   7.408   5.181   5.977 -0.0341 -0.4705  0.1333
   21MOL   C130 8570   7.363   5.073   6.068  0.0239  0.2428  0.0578
   21MOL   C131 8571   7.204   5.068   6.096  0.2095 -0.0436  0.6130
   21MOL   C132 8572   7.150   4.942   6.176  0.1687  0.2414  0.4064
   21MOL   C133 8573   7.007   4.966   6.228 -0.1245  1.0387  0.3930
   21MOL   C134 8574   6.991   5.055   6.354  0.2565 -0.5292  0.1064
   21MOL   H135 8575   7.298   5.181   5.780 -0.1419  1.4235 -0.0467
   21MOL   H136 8576   7.377   5.023   5.832  2.1426 -0.1071 -0.0222
   21MOL   H137 8577   7.517   5.181   5.984 -0.0733 -2.2952  1.3121
   21MOL   H138 8578   7.420   5.096   6.158  0.9800 -0.4768 -0.3551
   21MOL   H139 8579   7.400   4.974   6.041 -1.1828 -0.1115 -0.3168
   21MOL   H140 8580   7.141   5.065   6.007 -1.8605  0.9537  1.9960
   21MOL   H141 8581   7.176   5.159   6.149  3.6301  0.0838  2.3090
   21MOL   H142 8582   7.220   4.926   6.258  1.2137  0.6098 -0.3956
   21MOL   H143 8583   7.161   4.858   6.107 -3.7193 -0.0354  0.0375
   21MOL   H144 8584   6.975   4.865   6.255 -1.6003  1.3022 -0.3160
   21MOL   H145 8585   6.929   4.995   6.157  0.2033 -1.3994 -1.0074
   21MOL   H146 8586   6.969   5.150   6.307  1.2025  0.2604  1.2509
   21MOL   H147 8587   7.080   5.072   6.415 -1.4116  0.2242  2.3862
   21MOL   H148 8588   6.903   5.017   6.405 -0.3254  0.4250 -0.1853
   21MOL   C149 8589   7.341   5.321   6.007  0.0595 -0.3733  0.1406
   21MOL   C150 8590   7.378   5.392   6.142 -0.7475 -0.2886  0.0551
   21MOL   C151 8591   7.290   5.516   6.174 -0.4336 -0.4287  0.3886
   21MOL   C152 8592   7.291   5.621   6.066  0.3482 -0.1280 -0.2966
   21MOL   C153 8593   7.164   5.713   6.082 -0.4772  0.3414 -0.5739
   21MOL   C154 8594   7.137   5.817   5.971 -0.1074  1.0871  0.7954
   21MOL   C155 8595   7.097   5.756   5.835 -0.4177 -0.4986 -0.7778
   21MOL   H156 8596   7.377   5.388   5.929  1.5617 -0.9634  0.3042
   21MOL   H157 8597   7.233   5.321   5.996  0.3564 -1.3123 -3.4055
   21MOL   H158 8598   7.371   5.325   6.227 -0.9043 -2.2214 -1.4516
   21MOL   H159 8599   7.188   5.480   6.185  0.3040 -2.5261  0.7307
   21MOL   H160 8600   7.312   5.569   6.267 -0.5374  0.7859 -0.2660
   21MOL   H161 8601   7.280   5.576   5.968  1.5244 -0.2436 -0.3868
   21MOL   H162 8602   7.384   5.678   6.072 -0.1115  0.5544  0.4674
   21MOL   H163 8603   7.161   5.763   6.179  2.8329  0.5791 -0.5430
   21MOL   H164 8604   7.075   5.651   6.094 -1.4554  2.1957  2.3134
   21MOL   H165 8605   7.230   5.870   5.950  1.2954 -2.4179 -2.4483
   21MOL   H166 8606   7.063   5.887   6.010  0.5386  1.9978  0.4051
   21MOL   H167 8607   7.015   5.686   5.849 -1.2664 -0.2733 -4.2419
   21MOL   H168 8608   7.173   5.705   5.777  1.5626  0.1124  1.2020
   21MOL   H169 8609   7.068   5.844   5.777  0.5194  0.8890  0.7986
   21MOL   C170 8610   7.536   5.436   6.152  1.6710  0.7412  0.0454
   21MOL   C171 8611   7.584   5.463   6.296 -0.7933 -0.0773 -0.2372
   21MOL   C172 8612   7.622   5.323   6.353  0.2156 -0.1832  0.0807
   21MOL   C173 8613   7.596   5.315   6.507  0.1013 -0.8946  0.3212
   21MOL   C174 8614   7.659   5.184   6.567  0.2862 -0.1786  0.0307
   21MOL   C175 8615   7.621   5.180   6.718  0.2668 -0.8208  0.1819
   21MOL   C176 8616   7.686   5.057   6.783 -0.7193  0.1178 -0.7922
   21MOL   H177 8617   7.549   5.521   6.085 -3.8316  1.5607 -0.1786
   21MOL   H178 8618   7.595   5.353   6.113 -0.0954  0.4540 -2.1542
   21MOL   H179 8619   7.502   5.507   6.351 -2.2910  0.8900 -3.1476
   21MOL   H180 8620   0.017   5.310   6.344 -0.0134 -2.2735  0.0164
   21MOL   H181 8621   7.573   5.239   6.305  1.3497 -0.4939 -0.5670
   21MOL   H182 8622   7.488   5.320   6.521 -0.0147 -0.8669 -0.5238
   21MOL   H183 8623   7.644   5.400   6.554  2.6206 -1.0008 -1.9626
   21MOL   H184 8624   0.054   5.186   6.550  0.0573 -1.5740 -1.7093
   21MOL   H185 8625   7.630   5.093   6.515 -1.8654  0.4310  0.1486
   21MOL   H186 8626   7.513   5.171   6.720 -0.1073  2.7791 -0.4800
   21MOL   H187 8627   7.651   5.275   6.763 -1.4042 -1.3524  2.5077
   21MOL   H188 8628   7.674   4.966   6.725 -0.1021  1.0376 -2.3828
   21MOL   H189 8629   7.626   5.033   6.872 -0.5970 -3.1710 -1.5646
   21MOL   H190 8630   0.074   5.062   6.823 -0.7166  1.8243 -0.9796
   21MOL   C191 8631   7.704   5.557   6.309  0.4695 -0.3954  0.5036
   21MOL   C192 8632   7.689   5.696   6.245  0.7489  0.2279  0.3966
   21MOL   C193 8633   7.566   5.777   6.306  0.0866  0.6650  0.1317
   21MOL   C194 8634   7.572   5.810   6.454  0.5292 -0.2592  0.3856
   21MOL   C195 8635   7.459   5.911   6.497 -0.1518 -0.3572  1.0756
   21MOL   C196 8636   7.330   5.836   6.508 -0.0471  0.2558  0.4105
   21MOL   C197 8637   7.206   5.915   6.568 -0.5298 -0.1194  0.7341
   21MOL   H198 8638   0.072   5.506   6.258  0.2917  0.1898 -0.3771
   21MOL   H199 8639   0.023   5.564   6.413  1.6649 -0.6434  0.1476
   21MOL   H200 8640   7.675   5.688   6.138  1.2052  1.5920  0.2285
   21MOL   H201 8641   7.476   5.726   6.271  0.8736 -0.4808 -0.2450
   21MOL   H202 8642   7.559   5.873   6.253  0.3854 -0.0968 -1.3065
   21MOL   H203 8643   7.664   5.861   6.482  0.3859 -0.0026  0.3808
   21MOL   H204 8644   7.570   5.725   6.524  2.7244 -0.5843  0.0939
   21MOL   H205 8645   7.478   5.960   6.593  0.5687  0.1866  0.6619
   21MOL   H206 8646   7.444   5.987   6.420  1.4324  0.5426  1.6212
   21MOL   H207 8647   7.337   5.736   6.552 -1.0331  0.3635  0.8355
   21MOL   H208 8648   7.296   5.824   6.405 -1.0934 -1.4028  0.9157
   21MOL   H209 8649   7.204   5.921   6.676 -0.8912 -1.0670  0.7822
   21MOL   H210 8650   7.106   5.875   6.551 -0.5156 -0.2701  1.0050
   21MOL   H211 8651   7.200   6.023   6.550 -1.7109 -0.2149  0.4573
   21MOL   C212 8652   0.111   5.771   6.267 -0.4285  0.3447  0.5208
   21MOL   C213 8653   0.137   5.892   6.172  0.5260  0.0679 -0.0115
   21MOL   C214 8654   0.209   6.009   6.240 -0.1217  0.0331 -0.1535
   21MOL   C215 8655   0.121   6.104   6.334  0.1386 -0.4364  0.2426
   21MOL   C216 8656   0.041   6.210   6.262 -0.2692  0.2190 -0.2214
   21MOL   C217 8657   7.673   6.305   6.349 -0.0730  0.4391 -0.2392
   21MOL   C218 8658   7.558   6.239   6.426 -0.2568  0.0714  0.1338
   21MOL   H219 8659   0.194   5.701   6.251  0.4442  1.5790 -0.5053
   21MOL   H220 8660   0.122   5.808   6.368 -0.9403  2.4470 -0.1676
   21MOL   H221 8661   0.043   5.932   6.134  0.8034 -0.4252 -1.2157
   21MOL   H222 8662   0.277   5.962   6.311 -2.0353 -0.2516  1.5254
   21MOL   H223 8663   0.261   6.068   6.165 -1.6419  0.6178 -0.7672
   21MOL   H224 8664   0.186   6.148   6.410  0.7603 -1.9712  0.6387
   21MOL   H225 8665   0.048   6.048   6.392 -0.8678 -1.5565 -2.0356
   21MOL   H226 8666   0.109   6.261   6.194  1.1162  0.9361  1.6585
   21MOL   H227 8667   7.688   6.152   6.199  0.3815  0.1965 -0.8851
   21MOL   H228 8668   0.026   6.357   6.418  0.5838  1.1945 -1.4171
   21MOL   H229 8669   7.634   6.372   6.272 -1.6604  0.3938  0.5196
   21MOL   H230 8670   7.477   6.212   6.357  0.5115 -2.2964  0.0887
   21MOL   H231 8671   7.527   6.321   6.490  0.6523 -0.7809  1.6954
   21MOL   H232 8672   7.587   6.155   6.490  1.0697 -0.6375 -1.3417
   21MOL   C233 8673   0.216   5.847   6.048 -0.4475 -0.2086  0.5957
   21MOL   C234 8674   0.204   5.942   5.924  0.8042 -0.5673 -0.1706
   21MOL   C235 8675   0.331   5.957   5.847 -0.2868  0.2923 -0.2763
   21MOL   C236 8676   0.392   5.829   5.777 -1.1513 -0.3637  0.5611
   21MOL   C237 8677   0.328   5.797   5.640 -0.1657  0.4466 -0.5975
   21MOL   C238 8678   0.429   5.729   5.547 -0.2933  0.2253  0.4100
   21MOL   C239 8679   0.485   5.594   5.602  0.5542  0.2106 -0.0225
   21MOL   H240 8680   0.178   5.746   6.031  0.4411 -0.6246  1.0756
   21MOL   H241 8681   0.320   5.842   6.078 -0.0907  3.0014  0.1127
   21MOL   H242 8682   0.168   6.038   5.959 -0.4069 -1.1724  0.2853
   21MOL   H243 8683   0.407   5.999   5.912  0.8174 -0.1183 -1.2846
   21MOL   H244 8684   0.320   6.031   5.767 -1.3900  1.2813  0.7692
   21MOL   H245 8685   0.386   5.742   5.842 -0.3046 -0.2891  0.7402
   21MOL   H246 8686   0.497   5.852   5.760 -1.2820 -0.1073  0.0532
   21MOL   H247 8687   0.283   5.887   5.598  2.3547  1.8330 -0.4358
   21MOL   H248 8688   0.241   5.738   5.668  0.3481 -1.2217 -2.4282
   21MOL   H249 8689   0.391   5.717   5.445  3.8567 -0.2723 -1.1807
   21MOL   H250 8690   0.510   5.801   5.534  1.0731 -0.9255  2.3289
   21MOL   H251 8691   0.565   5.556   5.539  1.2971 -0.2958  1.2009
   21MOL   H252 8692   0.511   5.606   5.707 -0.8758 -1.3007  0.5333
   21MOL   H253 8693   0.415   5.511   5.594 -0.1675  0.7683  0.3764
   21MOL   C254 8694   0.078   5.910   5.833  0.4672 -0.4703  0.4206
   21MOL   C255 8695   0.025   6.023   5.734 -0.1776 -0.7194 -0.7192
   21MOL   C256 8696   7.650   6.135   5.804  0.6526  0.2071 -0.1891
   21MOL   C257 8697   7.529   6.085   5.884  0.1535 -0.0044  0.0945
   21MOL   C258 8698   7.474   6.184   5.984  0.0003  0.0785 -0.3514
   21MOL   C259 8699   7.359   6.135   6.074 -0.5320  0.0422 -0.5291
   21MOL   C260 8700   7.268   6.245   6.132 -0.2162 -0.1220 -0.2444
   21MOL   H261 8701   0.002   5.879   5.904  0.4703  1.0774  1.1105
   21MOL   H262 8702   0.101   5.818   5.778 -0.4604 -0.0945 -0.6144
   21MOL   H263 8703   0.116   6.077   5.707 -0.2960 -0.8140 -1.3102
   21MOL   H264 8704   7.629   6.212   5.729 -0.7925 -1.0980 -1.1540
   21MOL   H265 8705   7.711   6.187   5.878  3.2581 -4.1348  0.8836
   21MOL   H266 8706   7.454   6.032   5.826 -0.2225 -2.0616  2.3334
   21MOL   H267 8707   7.558   5.997   5.943 -0.7557 -0.2858  0.1360
   21MOL   H268 8708   7.451   6.268   5.919  3.7242  0.3937 -1.3796
   21MOL   H269 8709   7.549   6.229   6.049 -1.7793  1.3057  0.8852
   21MOL   H270 8710   7.293   6.078   6.008 -1.4381  0.5365 -0.0616
   21MOL   H271 8711   7.404   6.070   6.149 -2.5768 -0.7799  0.0116
   21MOL   H272 8712   7.330   6.328   6.166  0.5617 -0.1923 -1.4523
   21MOL   H273 8713   7.197   6.275   6.055  1.9789  0.7072 -1.9985
   21MOL   H274 8714   7.208   6.211   6.216 -0.9057  1.0103 -0.2693
   21MOL   C275 8715   7.663   5.964   5.611 -0.5706  0.3474  0.2223
   21MOL   C276 8716   7.640   6.062   5.488  0.5689 -0.1395  0.3214
   21MOL   C277 8717   7.525   6.009   5.402 -0.5551 -0.3793  0.4847
   21MOL   C278 8718   7.382   6.049   5.441  0.1788  0.1859 -0.3570
   21MOL   C279 8719   7.265   6.015   5.344 -0.6007 -0.8026  0.2006
   21MOL   C280 8720   7.124   6.059   5.388  0.1818  0.0668  0.2090
   21MOL   C281 8721   7.007   6.005   5.299 -0.6099 -0.4952  0.6814
   21MOL   H282 8722   7.565   5.932   5.648 -0.2977  0.2602  0.8646
   21MOL   H283 8723   0.011   5.882   5.575  1.9321  0.8564  3.1708
   21MOL   H284 8724   7.619   6.160   5.531 -0.6943 -0.4465  0.4226
   21MOL   H285 8725   7.536   6.036   5.297 -1.3445 -0.9413  0.2544
   21MOL   H286 8726   7.530   5.901   5.409 -1.0854 -0.4572 -0.3159
   21MOL   H287 8727   7.387   6.157   5.453 -0.3848  0.0022  1.7190
   21MOL   H288 8728   7.364   6.008   5.541 -2.3630  0.3282 -0.7270
   21MOL   H289 8729   7.260   5.907   5.331  0.1319 -0.8243  0.0920
   21MOL   H290 8730   7.284   6.059   5.246  1.4803  2.1018  1.8221
   21MOL   H291 8731   7.114   6.008   5.484  2.6601 -0.1171  0.4157
   21MOL   H292 8732   7.116   6.166   5.405 -0.7794  0.1269 -0.5465
   21MOL   H293 8733   6.998   6.059   5.205 -1.0555 -0.6482  0.6342
   21MOL   H294 8734   6.907   5.994   5.342 -0.2409 -2.1947  1.1446
   21MOL   H295 8735   7.044   5.907   5.271  0.8426  0.5255 -1.0609
   21MOL   C296 8736   0.057   6.058   5.408 -0.2537 -0.3961  0.1770
   21MOL   C297 8737   0.079   6.182   5.324 -0.5701  0.1060 -0.0062
   21MOL   C298 8738   0.197   6.185   5.220 -0.6939  0.4964 -0.3128
   21MOL   C299 8739   0.220   6.048   5.151  0.5796  0.2277 -0.6960
   21MOL   C300 8740   0.329   6.052   5.048 -0.0158  0.2400  0.4709
   21MOL   C301 8741   0.353   5.913   4.993  0.4228  0.3488  0.1248
   21MOL   C302 8742   0.420   5.817   5.091  0.0851 -0.3841  0.4471
   21MOL   H303 8743   0.140   6.068   5.478  0.5021 -0.9387 -0.6447
   21MOL   H304 8744   0.074   5.964   5.357 -0.3394  1.0989 -2.7166
   21MOL   H305 8745   7.701   6.183   5.265 -0.8872  0.7292  0.4823
   21MOL   H306 8746   0.187   6.252   5.135 -0.6344  1.8107  0.7014
   21MOL   H307 8747   0.289   6.209   5.274  0.2184 -4.7467  0.7835
   21MOL   H308 8748   0.130   6.007   5.105 -0.2073  0.6282  0.4890
   21MOL   H309 8749   0.239   5.971   5.225 -3.0818  1.8026  2.0421
   21MOL   H310 8750   0.423   6.090   5.089  1.7074 -1.0998 -2.1123
   21MOL   H311 8751   0.296   6.118   4.968  0.4096 -0.8914 -0.6569
   21MOL   H312 8752   0.256   5.873   4.963  1.1448 -2.4588  1.4272
   21MOL   H313 8753   0.413   5.923   4.902 -2.0528 -0.0034 -1.5749
   21MOL   H314 8754   0.455   5.736   5.027  0.5646  0.4379 -0.3482
   21MOL   H315 8755   0.513   5.861   5.128 -0.7049  0.5480  1.3371
   21MOL   H316 8756   0.345   5.793   5.166  0.2197 -1.4284  0.2523
   21MOL   C317 8757   0.087   6.323   5.406 -0.4417  0.2465 -0.8306
   21MOL   C318 8758   7.701   6.435   5.348  0.4183  0.6356  0.0234
   21MOL   C319 8759   7.555   6.392   5.382 -0.1006  0.5847 -0.1776
   21MOL   C320 8760   7.449   6.462   5.298  0.3634  0.7394 -0.4132
   21MOL   C321 8761   7.313   6.379   5.284 -0.6999 -0.8385  0.7345
   21MOL   C322 8762   7.212   6.454   5.182  0.6068  0.0706  0.2366
   21MOL   C323 8763   7.069   6.400   5.199 -0.3198  0.1479  0.1293
   21MOL   H324 8764   0.190   6.359   5.401  0.1390 -0.9034  1.6729
   21MOL   H325 8765   0.058   6.295   5.507  0.0503 -0.0840 -0.7771
   21MOL   H326 8766   7.705   6.435   5.239 -0.2827  2.1686 -0.0098
   21MOL   H327 8767   7.525   6.401   5.487 -0.6734 -1.4002 -0.1393
   21MOL   H328 8768   7.542   6.285   5.364 -0.4727  1.0451 -2.7842
   21MOL   H329 8769   7.508   6.471   5.207  4.3340  4.1259  2.2899
   21MOL   H330 8770   7.428   6.563   5.333  2.6071  0.9497  0.3822
   21MOL   H331 8771   7.273   6.374   5.385 -1.6416 -2.6474  0.2796
   21MOL   H332 8772   7.328   6.275   5.255  1.3384  0.0008 -1.3983
   21MOL   H333 8773   7.250   6.447   5.080  2.3648 -2.5506  1.0128
   21MOL   H334 8774   7.210   6.561   5.204 -0.5924  0.0630  0.1889
   21MOL   H335 8775   7.064   6.297   5.164 -1.1884 -0.1339  1.0759
   21MOL   H336 8776   7.000   6.467   5.148 -0.8930 -1.0892 -0.7331
   21MOL   H337 8777   7.042   6.408   5.304 -1.0775 -1.3499  0.0597
   21MOL   C338 8778   0.026   6.570   5.398  0.0937  0.0569 -0.1971
   21MOL   C339 8779   0.007   6.601   5.543  0.2001 -0.1734  0.2112
   21MOL   C340 8780   7.686   6.757   5.552 -0.6199  0.2179 -0.4334
   21MOL   C341 8781   0.087   6.856   5.519 -0.1915  0.6516  0.0092
   21MOL   C342 8782   0.037   6.996   5.506  0.0087 -0.3376  0.3495
   21MOL   C343 8783   0.148   7.091   5.468  0.1685 -0.2708  0.9584
   21MOL   C344 8784   0.121   7.237   5.485 -0.0841 -0.7777  0.2536
   21MOL   H345 8785   7.687   6.648   5.342  0.8911  0.7608  0.0250
   21MOL   H346 8786   0.128   6.605   5.380 -0.4082  0.8142 -1.6969
   21MOL   H347 8787   7.626   6.557   5.572  0.1451 -2.5146 -3.1919
   21MOL   H348 8788   7.601   6.780   5.488 -0.8222  2.4677  0.5868
   21MOL   H349 8789   7.646   6.761   5.653  0.3323  1.6518 -0.0935
   21MOL   H350 8790   0.139   6.826   5.427  0.4745  2.1592 -0.1339
   21MOL   H351 8791   0.165   6.843   5.594 -0.6954 -2.5029  0.0458
   21MOL   H352 8792   7.673   7.003   5.429  0.3213  1.3849  0.1733
   21MOL   H353 8793   7.699   7.036   5.593  0.9921  0.0130  0.7733
   21MOL   H354 8794   0.236   7.075   5.530  0.4353 -0.5340  0.5174
   21MOL   H355 8795   0.186   7.064   5.369 -1.3219 -1.7677  0.7688
   21MOL   H356 8796   0.030   7.266   5.433 -0.5623  0.0850  1.5518
   21MOL   H357 8797   0.210   7.296   5.464 -1.6053  1.0741 -1.1532
   21MOL   H358 8798   0.108   7.260   5.591 -0.0594 -0.1479  0.1244
   21MOL   C359 8799   0.119   6.561   5.636 -0.3773 -0.0113 -0.4333
   21MOL   C360 8800   0.100   6.576   5.787  0.8258  0.3050 -0.4396
   21MOL   C361 8801   7.675   6.517   5.844 -0.2312 -0.4548  0.3157
   21MOL   C362 8802   7.650   6.523   6.001 -0.0443  0.4111  0.2029
   21MOL   C363 8803   7.652   6.664   6.062 -0.0200 -0.7252 -0.6569
   21MOL   C364 8804   7.664   6.661   6.215  0.1857 -0.8380 -0.5106
   21MOL   C365 8805   0.093   6.630   6.267 -0.3852  0.3192  0.1565
   21MOL   H366 8806   0.196   6.636   5.615  0.8946 -1.3603 -0.6652
   21MOL   H367 8807   0.156   6.460   5.616 -0.4383  0.2361 -1.8846
   21MOL   H368 8808   0.095   6.681   5.816  0.2956  0.3943 -0.8504
   21MOL   H369 8809   7.596   6.562   5.785 -0.8945 -0.7369  0.9900
   21MOL   H370 8810   7.684   6.413   5.813  1.5157 -0.6465  1.4024
   21MOL   H371 8811   7.546   6.495   6.014 -0.9671  2.7506 -1.7198
   21MOL   H372 8812   0.002   6.451   6.050 -1.1074 -0.9605 -0.3606
   21MOL   H373 8813   0.019   6.728   6.026 -0.4489  0.8068  1.0090
   21MOL   H374 8814   7.560   6.720   6.043 -0.0498 -0.8635 -0.9185
   21MOL   H375 8815   7.642   6.764   6.242  0.0625 -0.2234 -2.8333
   21MOL   H376 8816   7.584   6.598   6.253  0.4200 -1.1178 -0.4758
   21MOL   H377 8817   0.117   6.525   6.247 -3.3704 -0.1569 -1.2809
   21MOL   H378 8818   0.164   6.694   6.214 -0.7585  0.4840 -0.1482
   21MOL   H379 8819   0.093   6.638   6.375 -1.9806  2.7547  0.0167
   21MOL   C380 8820   0.218   6.515   5.863 -0.1748  0.1550 -0.3411
   21MOL   C381 8821   0.363   6.558   5.809  0.0602  0.6309  0.0225
   21MOL   C382 8822   0.395   6.701   5.852 -0.5580  0.3787  0.2541
   21MOL   C383 8823   0.405   6.720   6.004 -0.4952 -0.0032 -0.8666
   21MOL   C384 8824   0.421   6.867   6.040  0.3199  0.0766  0.2749
   21MOL   C385 8825   0.445   6.885   6.193  0.1027 -0.8892  0.1864
   21MOL   C386 8826   0.427   7.031   6.244 -0.3282  0.0777 -0.2355
   21MOL   H387 8827   0.213   6.520   5.972 -0.5203 -1.0950 -0.2944
   21MOL   H388 8828   0.206   6.409   5.839  0.6853  0.3757 -1.7917
   21MOL   H389 8829   0.362   6.543   5.701  0.3039 -1.1092  0.2435
   21MOL   H390 8830   0.316   6.765   5.815 -1.0366 -1.5639 -2.2743
   21MOL   H391 8831   0.493   6.724   5.809 -0.8024  0.9824  0.0256
   21MOL   H392 8832   0.315   6.687   6.056 -2.0167  3.0147 -1.4516
   21MOL   H393 8833   0.490   6.665   6.046 -1.3211 -0.9356 -0.4048
   21MOL   H394 8834   0.514   6.903   5.995 -0.9614  0.9692 -1.7191
   21MOL   H395 8835   0.329   6.907   5.999 -0.1670  1.6578  2.8246
   21MOL   H396 8836   0.546   6.861   6.228  0.2172  2.1714  2.1658
   21MOL   H397 8837   0.381   6.822   6.255  0.8950  0.1226  2.0754
   21MOL   H398 8838   0.508   7.068   6.307 -0.3919  0.9358 -0.6455
   21MOL   H399 8839   0.334   7.048   6.298 -0.4106  0.3395 -0.4615
   21MOL   H400 8840   0.411   7.092   6.156 -1.0113 -0.8824 -0.7893
   21MOL   C401 8841   0.480   6.457   5.837  0.0886  0.3749 -1.5316
   21MOL   C402 8842   0.591   6.446   5.733 -0.1090  0.1704  0.0841
   21MOL   C403 8843   0.720   6.370   5.763  1.0005  0.5004 -0.5647
   21MOL   C404 8844   0.811   6.432   5.871 -0.3536 -0.0031  0.1552
   21MOL   C405 8845   0.943   6.361   5.901 -0.9200  0.5171  0.0298
   21MOL   C406 8846   1.049   6.367   5.795  0.2514  0.2046 -0.2279
   21MOL   C407 8847   1.179   6.288   5.845 -0.0832 -0.4103  0.1705
   21MOL   H408 8848   0.435   6.361   5.861  0.0205  0.7145 -0.2931
   21MOL   H409 8849   0.528   6.494   5.927  1.5079  0.8400 -2.4602
   21MOL   H410 8850   0.616   6.547   5.701 -0.5547  0.3060  0.1542
   21MOL   H411 8851   0.776   6.376   5.669  0.0939 -1.4539 -1.2665
   21MOL   H412 8852   0.696   6.265   5.778 -2.2679  1.6094  2.4407
   21MOL   H413 8853   0.755   6.444   5.964  2.5873  0.8248  1.8753
   21MOL   H414 8854   0.835   6.535   5.848 -1.3350  0.4419  1.0943
   21MOL   H415 8855   0.981   6.414   5.989  0.5471 -1.6054  0.7084
   21MOL   H416 8856   0.937   6.260   5.940  1.1145 -0.3725 -1.8917
   21MOL   H417 8857   1.012   6.318   5.705 -0.3315  1.1963 -0.5331
   21MOL   H418 8858   1.078   6.471   5.777  0.5581 -0.2184 -2.2678
   21MOL   H419 8859   1.225   6.330   5.935 -1.0525  0.1353  0.4240
   21MOL   H420 8860   1.249   6.281   5.761 -1.0751 -1.0059 -0.6191
   21MOL   H421 8861   1.132   6.193   5.868 -3.1303  0.8680 -0.4482
   21MOL   H422 8862   0.559   6.397   5.640 -0.1271  0.6144 -0.1459
   22MOL     C1 8863   2.688   7.069   5.342 -0.2228  0.3951 -0.6083
   22MOL     C2 8864   2.553   7.004   5.328 -0.5209  0.7227  0.0356
   22MOL     C3 8865   2.571   6.870   5.258  0.2892  0.4744  0.6736
   22MOL     C4 8866   2.609   6.872   5.108 -0.0591  0.5358  0.4746
   22MOL     C5 8867   2.558   6.755   5.024 -0.1248  0.5429  0.1046
   22MOL     C6 8868   2.614   6.773   4.880 -0.2003  0.0183 -0.2369
   22MOL     C7 8869   2.514   6.817   4.771  0.3452  0.1195 -0.3621
   22MOL     H8 8870   2.758   7.007   5.398  0.6295 -0.0948 -2.1921
   22MOL     H9 8871   2.693   7.170   5.383 -0.1070 -0.5909  1.9154
   22MOL    H10 8872   2.523   6.994   5.432 -2.2674 -2.0505 -0.6827
   22MOL    H11 8873   2.649   6.810   5.305 -0.4303 -0.3205  0.8802
   22MOL    H12 8874   2.477   6.816   5.269 -1.3757  3.2475  0.3326
   22MOL    H13 8875   2.562   6.961   5.067 -1.6175 -0.8905 -0.8613
   22MOL    H14 8876   2.718   6.885   5.107  0.0708 -0.5906  0.0107
   22MOL    H15 8877   2.450   6.751   5.033 -0.0231 -0.6019  0.9067
   22MOL    H16 8878   2.599   6.661   5.061 -1.2929  0.3711  0.9827
   22MOL    H17 8879   2.661   6.683   4.840  1.3900  0.9925 -0.6077
   22MOL    H18 8880   2.697   6.844   4.877 -2.3505  2.5532 -1.3400
   22MOL    H19 8881   2.457   6.905   4.800  0.3876 -0.7352  2.4091
   22MOL    H20 8882   2.454   6.731   4.744  0.2660  0.2714 -0.6799
   22MOL    H21 8883   2.569   6.841   4.680  2.0287 -1.0086  0.3479
   22MOL    H22 8884   2.742   7.084   5.249  2.5189 -0.5282  0.8003
   22MOL    C23 8885   2.449   7.105   5.278 -0.2463  0.6193  0.2151
   22MOL    C24 8886   2.297   7.088   5.313 -0.0095 -0.6055 -0.1961
   22MOL    C25 8887   2.214   7.194   5.236 -0.3200 -0.1157  0.0378
   22MOL    C26 8888   2.076   7.144   5.187 -0.8655  0.3427  0.1234
   22MOL    C27 8889   1.989   7.258   5.115  0.6120 -0.4741  0.3110
   22MOL    C28 8890   1.866   7.203   5.038 -0.0432 -0.5661 -0.8484
   22MOL    C29 8891   1.785   7.312   4.970 -0.1776 -0.1720 -0.4463
   22MOL    H30 8892   2.482   7.203   5.311  1.2875 -0.0548  0.7412
   22MOL    H31 8893   2.454   7.111   5.169  0.0653  0.5545  0.2250
   22MOL    H32 8894   2.269   6.990   5.274 -0.5048  0.1176 -1.6669
   22MOL    H33 8895   2.263   7.224   5.143  0.2334  1.2474  0.7550
   22MOL    H34 8896   2.213   7.282   5.301 -0.1905 -0.4233  0.4546
   22MOL    H35 8897   2.012   7.112   5.270  0.6841 -1.7578  0.5487
   22MOL    H36 8898   2.081   7.064   5.114 -2.4582 -2.4934  2.9894
   22MOL    H37 8899   2.057   7.310   5.047  0.4954  1.1283  1.3965
   22MOL    H38 8900   1.960   7.333   5.189  1.5665  0.8504 -0.6366
   22MOL    H39 8901   1.804   7.162   5.117  1.5979  0.8024  1.2232
   22MOL    H40 8902   1.888   7.126   4.964  0.6726 -0.6072 -0.5948
   22MOL    H41 8903   1.812   7.322   4.865 -0.0168  0.7992 -0.3127
   22MOL    H42 8904   1.685   7.267   4.973  0.2708 -1.1595 -0.0073
   22MOL    H43 8905   1.780   7.411   5.014 -0.1455 -0.8586  1.1453
   22MOL    C44 8906   2.275   7.099   5.467  0.6436  0.7740 -0.2533
   22MOL    C45 8907   2.279   6.967   5.553 -0.0619 -0.2233 -0.0082
   22MOL    C46 8908   2.294   7.003   5.694 -0.0297 -0.2823 -0.6232
   22MOL    C47 8909   2.429   7.071   5.742  0.2978 -0.5886 -0.5131
   22MOL    C48 8910   2.432   7.078   5.897 -0.0091 -0.2105 -0.6044
   22MOL    C49 8911   2.541   7.165   5.965  0.5024 -0.0070 -0.9941
   22MOL    C50 8912   2.510   7.183   6.115  0.6510 -0.1073  0.5636
   22MOL    H51 8913   2.172   7.122   5.495 -0.2976 -0.3447 -2.6742
   22MOL    H52 8914   2.340   7.181   5.498  0.5007  1.5569 -1.9842
   22MOL    H53 8915   2.368   6.907   5.534  1.1631  0.8235  2.1999
   22MOL    H54 8916   2.283   6.913   5.755  1.2670  0.1198  0.2179
   22MOL    H55 8917   2.216   7.070   5.729 -0.4546 -1.7845  1.4526
   22MOL    H56 8918   2.519   7.013   5.723 -0.7724 -2.5790  0.3030
   22MOL    H57 8919   2.449   7.166   5.693 -0.3764 -1.2429 -2.1024
   22MOL    H58 8920   2.426   6.983   5.949  1.9550  0.2229  0.4856
   22MOL    H59 8921   2.342   7.133   5.923 -0.0521 -0.4636 -0.2291
   22MOL    H60 8922   2.543   7.259   5.909 -0.6560  1.3631  1.1857
   22MOL    H61 8923   2.640   7.122   5.946 -0.1844 -1.8318 -0.5495
   22MOL    H62 8924   2.587   7.242   6.164  3.3306 -0.4571 -3.0120
   22MOL    H63 8925   2.487   7.083   6.153  3.4758 -0.6946  0.8069
   22MOL    H64 8926   2.415   7.237   6.115  1.2633  1.0058 -1.2986
   22MOL    C65 8927   2.149   6.882   5.535 -0.3435 -0.2572 -0.4245
   22MOL    C66 8928   2.166   6.736   5.582  0.3622 -0.2571  0.8513
   22MOL    C67 8929   2.266   6.651   5.495  0.2437  0.7171  0.2274
   22MOL    C68 8930   2.222   6.651   5.347 -0.4830  0.1194 -0.4945
   22MOL    C69 8931   2.315   6.562   5.258 -0.8196 -0.1932 -0.4306
   22MOL    C70 8932   2.245   6.536   5.124  0.4221  0.0870 -0.1425
   22MOL    C71 8933   2.331   6.456   5.031 -0.2173 -0.0462 -0.8966
   22MOL    H72 8934   2.071   6.941   5.583  0.7779  1.0006 -0.0980
   22MOL    H73 8935   2.112   6.890   5.433  1.5311  4.3977 -0.8505
   22MOL    H74 8936   2.207   6.735   5.683 -0.4673  1.6625  1.2245
   22MOL    H75 8937   2.360   6.702   5.514  0.4712  0.5410 -0.4432
   22MOL    H76 8938   2.281   6.549   5.533  0.3620  0.3176 -0.8712
   22MOL    H77 8939   2.120   6.612   5.338  0.1793 -2.0909  1.2976
   22MOL    H78 8940   2.232   6.753   5.309 -0.4427  1.2530  2.4656
   22MOL    H79 8941   2.416   6.598   5.244 -0.4856 -0.9320  0.0400
   22MOL    H80 8942   2.336   6.464   5.302  2.4013  0.6933  0.0936
   22MOL    H81 8943   2.219   6.633   5.080 -2.1109  0.1699  1.4703
   22MOL    H82 8944   2.154   6.483   5.148 -0.4930  1.0672 -1.3498
   22MOL    H83 8945   2.341   6.350   5.054  3.1252  0.7205  1.5852
   22MOL    H84 8946   2.287   6.464   4.932  0.0911  0.4355 -0.9970
   22MOL    H85 8947   2.429   6.501   5.012 -0.9539  1.6683 -0.6380
   22MOL    C86 8948   2.031   6.655   5.598  0.5976  0.1422  0.3567
   22MOL    C87 8949   1.925   6.717   5.693 -0.6577  0.4973  0.2837
   22MOL    C88 8950   1.790   6.751   5.622 -0.2024  0.1072 -0.0843
   22MOL    C89 8951   1.802   6.854   5.502 -0.4019  0.3888  0.4991
   22MOL    C90 8952   1.667   6.873   5.436 -0.3140  0.3485  0.1864
   22MOL    C91 8953   1.678   6.942   5.298 -0.2422  0.4635 -0.3080
   22MOL    C92 8954   1.548   6.944   5.216  0.4488 -0.2874  0.2247
   22MOL    H93 8955   1.968   6.649   5.510  0.5899 -2.1881  0.5047
   22MOL    H94 8956   2.058   6.552   5.622  1.3506 -0.1759 -1.7564
   22MOL    H95 8957   1.961   6.814   5.728 -1.7666  0.6656  0.9935
   22MOL    H96 8958   1.733   6.662   5.595 -2.5722  1.2382  0.9716
   22MOL    H97 8959   1.721   6.794   5.696 -0.0354  0.1033  0.0735
   22MOL    H98 8960   1.843   6.947   5.541 -1.7091  1.4063 -0.5065
   22MOL    H99 8961   1.877   6.829   5.428  0.8034  1.4724  1.3136
   22MOL   H100 8962   1.597   6.934   5.493  0.2010  1.4017 -0.2851
   22MOL   H101 8963   1.615   6.778   5.421 -0.9864  0.4173  1.8903
   22MOL   H102 8964   1.700   7.048   5.311 -1.7775  0.6912  0.5204
   22MOL   H103 8965   1.755   6.890   5.240 -1.0078 -2.8469  1.5051
   22MOL   H104 8966   1.552   6.975   5.112 -0.1608  0.6839  0.4822
   22MOL   H105 8967   1.492   7.026   5.261  0.1166 -0.9090  0.9583
   22MOL   H106 8968   1.474   6.863   5.211 -1.6571  1.5113  1.1694
   22MOL   C107 8969   1.901   6.631   5.823 -0.5199 -0.0700 -0.2440
   22MOL   C108 8970   2.030   6.608   5.904  0.2620 -0.2444 -0.5939
   22MOL   C109 8971   2.091   6.736   5.954  0.2655 -0.5053  0.1399
   22MOL   C110 8972   2.010   6.827   6.045  0.5034 -0.1758 -0.8936
   22MOL   C111 8973   2.085   6.950   6.079 -0.3518  0.2155 -0.3332
   22MOL   C112 8974   2.002   7.053   6.150  0.2148 -0.0117 -0.3766
   22MOL   C113 8975   2.087   7.163   6.201 -0.2615  0.1169 -0.1425
   22MOL   H114 8976   1.863   6.534   5.793 -0.0598 -0.3155 -0.0306
   22MOL   H115 8977   1.818   6.682   5.873 -0.1468  1.4747 -1.1676
   22MOL   H116 8978   2.106   6.562   5.841  2.2703  0.7570  1.0038
   22MOL   H117 8979   2.124   6.802   5.874 -1.7609  1.0590  0.5489
   22MOL   H118 8980   2.188   6.719   6.000 -0.9753 -0.6203  2.8311
   22MOL   H119 8981   1.922   6.862   5.990  0.4376  1.5971  0.3075
   22MOL   H120 8982   1.974   6.780   6.136  0.4229 -2.2580 -1.9710
   22MOL   H121 8983   2.138   6.989   5.992 -0.4595 -0.8295 -0.8733
   22MOL   H122 8984   2.161   6.917   6.151  0.4476 -0.3161 -1.3980
   22MOL   H123 8985   1.924   7.091   6.083  1.1374  2.6862  0.0187
   22MOL   H124 8986   1.957   7.012   6.240  1.7544  0.3060  0.5683
   22MOL   H125 8987   2.171   7.132   6.263 -1.5639 -0.8278  1.1903
   22MOL   H126 8988   2.127   7.228   6.123 -3.1953  0.4759 -1.3858
   22MOL   H127 8989   2.033   7.236   6.262  0.0042  0.1986 -0.0052
   22MOL   C128 8990   1.985   6.512   6.019  0.0499 -1.0675 -0.1410
   22MOL   C129 8991   2.095   6.419   6.064  0.0198 -0.1296 -0.0788
   22MOL   C130 8992   2.132   6.320   5.958  0.3694 -0.0093  0.4751
   22MOL   C131 8993   2.018   6.221   5.913 -0.3150 -0.4529  0.6108
   22MOL   C132 8994   2.063   6.104   5.821  0.2626 -0.0126  0.4634
   22MOL   C133 8995   2.098   6.129   5.673  0.3650 -0.0332 -0.4197
   22MOL   C134 8996   2.177   6.249   5.640 -0.3462 -1.1534  0.3772
   22MOL   H135 8997   1.941   6.572   6.099 -1.0650 -2.0243 -0.0202
   22MOL   H136 8998   1.897   6.455   5.989 -1.4494  1.1646 -0.0803
   22MOL   H137 8999   2.180   6.486   6.080 -0.6700  0.6925  0.2249
   22MOL   H138 9000   2.210   6.254   5.997 -1.0237 -2.1245 -0.2682
   22MOL   H139 9001   2.171   6.369   5.869 -1.6424  0.0354 -0.4077
   22MOL   H140 9002   1.942   6.277   5.859 -0.3926  0.3976  1.5815
   22MOL   H141 9003   1.968   6.163   5.990  1.3331 -0.1254  1.9530
   22MOL   H142 9004   1.980   6.035   5.807  2.2219 -1.8636 -2.7178
   22MOL   H143 9005   2.142   6.048   5.870 -2.1367 -1.7577  2.4646
   22MOL   H144 9006   2.000   6.141   5.628  0.3096 -1.2714 -0.6581
   22MOL   H145 9007   2.133   6.042   5.617 -2.4138 -0.9515 -0.7877
   22MOL   H146 9008   2.260   6.263   5.708 -0.0259 -1.1517 -0.0149
   22MOL   H147 9009   2.115   6.338   5.625 -0.2371 -1.1820 -0.2649
   22MOL   H148 9010   2.219   6.229   5.541 -0.3627  0.4819  0.0246
   22MOL   C149 9011   2.051   6.353   6.197 -0.6267 -0.5280 -0.5709
   22MOL   C150 9012   2.035   6.435   6.321 -0.0848 -0.3944 -0.5575
   22MOL   C151 9013   2.172   6.488   6.365  0.1268  0.1560  0.5235
   22MOL   C152 9014   2.200   6.644   6.348 -0.0542  0.7577  0.2073
   22MOL   C153 9015   2.334   6.687   6.402 -0.5511  0.3566  0.2474
   22MOL   C154 9016   2.369   6.825   6.354  0.6289 -0.7001 -0.6678
   22MOL   C155 9017   2.510   6.868   6.389 -0.1569  0.2873 -1.3311
   22MOL   H156 9018   1.949   6.322   6.176 -1.4224  2.0942 -0.7776
   22MOL   H157 9019   2.118   6.268   6.209 -0.2770 -0.1632  0.0887
   22MOL   H158 9020   1.962   6.515   6.308  0.1780 -0.4172 -2.2185
   22MOL   H159 9021   2.198   6.452   6.464 -1.4504 -1.5552  0.3522
   22MOL   H160 9022   2.250   6.445   6.302  0.3457  0.4191  0.6119
   22MOL   H161 9023   2.115   6.692   6.398  0.3172  3.3171 -1.5270
   22MOL   H162 9024   2.193   6.680   6.246 -0.3542  1.6853  0.5543
   22MOL   H163 9025   2.407   6.614   6.368 -0.8627 -1.0435  2.5350
   22MOL   H164 9026   2.324   6.693   6.510 -0.8117  0.4200  0.2214
   22MOL   H165 9027   2.292   6.892   6.393  1.1818 -0.0395 -0.6947
   22MOL   H166 9028   2.363   6.827   6.246  0.3121  1.8379 -0.6499
   22MOL   H167 9029   2.522   6.975   6.368  1.6603  0.7610  1.8151
   22MOL   H168 9030   2.582   6.820   6.322  0.6499 -0.0236 -0.2570
   22MOL   H169 9031   2.534   6.851   6.494 -1.1059 -0.4545 -1.2345
   22MOL   C170 9032   1.980   6.341   6.437  0.2300 -0.2827 -1.0082
   22MOL   C171 9033   1.919   6.411   6.557  0.0184 -0.4056  0.2529
   22MOL   C172 9034   1.766   6.427   6.536 -0.0151  0.1419  0.2222
   22MOL   C173 9035   1.709   6.520   6.655  0.7760  0.2003 -0.0818
   22MOL   C174 9036   1.561   6.551   6.626  0.8574  0.4293  0.3024
   22MOL   C175 9037   1.485   6.631   6.739 -0.0763 -0.0314 -0.5930
   22MOL   C176 9038   1.557   6.758   6.798 -0.2887 -0.0854  0.0740
   22MOL   H177 9039   2.063   6.281   6.473  0.9568  1.7356  0.7765
   22MOL   H178 9040   1.909   6.268   6.399  1.8160 -1.5231 -1.6481
   22MOL   H179 9041   1.969   6.507   6.570 -0.0906 -0.1795 -0.9165
   22MOL   H180 9042   1.724   6.327   6.524  3.5346 -1.1910 -1.9681
   22MOL   H181 9043   1.743   6.480   6.443 -2.6104 -2.0037 -0.4365
   22MOL   H182 9044   1.763   6.614   6.649 -0.2166  0.6509 -2.5193
   22MOL   H183 9045   1.727   6.478   6.754 -0.1379 -0.6195 -0.2580
   22MOL   H184 9046   1.502   6.462   6.607  0.0998  0.5665  1.8444
   22MOL   H185 9047   1.553   6.607   6.533  1.7839  1.9821  1.1381
   22MOL   H186 9048   1.461   6.573   6.828  0.4179  0.9579  0.1966
   22MOL   H187 9049   1.392   6.668   6.695  1.2248  2.5710 -1.2355
   22MOL   H188 9050   1.595   6.813   6.712  0.7836 -0.8065  0.0848
   22MOL   H189 9051   1.632   6.734   6.873 -1.9241 -5.1460  0.2786
   22MOL   H190 9052   1.478   6.812   6.851 -0.7909 -1.9449  1.2917
   22MOL   C191 9053   1.952   6.325   6.683 -0.4865 -0.5578  0.4236
   22MOL   C192 9054   2.089   6.365   6.745  0.1285  0.4040 -0.2261
   22MOL   C193 9055   2.084   6.492   6.841  0.2281 -0.5452 -0.0841
   22MOL   C194 9056   2.168   6.613   6.798 -0.2865 -0.9836  0.2354
   22MOL   C195 9057   2.158   6.723   6.899 -0.0952  0.4385 -0.1227
   22MOL   C196 9058   2.266   6.831   6.901 -0.3004 -0.0760 -0.4393
   22MOL   C197 9059   2.316   6.895   6.771 -0.1142  0.3130 -0.4380
   22MOL   H198 9060   1.945   6.219   6.657 -3.4652  0.0655 -1.5769
   22MOL   H199 9061   1.885   6.333   6.769  0.6256  1.7393  1.1174
   22MOL   H200 9062   2.161   6.390   6.667 -0.7610  1.0782 -0.8332
   22MOL   H201 9063   2.112   6.460   6.942 -2.4158 -1.8130  0.2950
   22MOL   H202 9064   1.979   6.519   6.856  0.3880  1.0212 -1.6988
   22MOL   H203 9065   2.125   6.653   6.706  1.0456 -0.2901 -0.0955
   22MOL   H204 9066   2.275   6.594   6.791 -0.4546 -1.1934 -2.7318
   22MOL   H205 9067   2.056   6.760   6.903  0.7477  2.7077  0.6389
   22MOL   H206 9068   2.176   6.675   6.995 -1.0470  0.0919 -0.1090
   22MOL   H207 9069   2.357   6.797   6.949 -1.1102 -2.8845 -0.7858
   22MOL   H208 9070   2.233   6.903   6.976  1.2465  1.4411 -1.1875
   22MOL   H209 9071   2.399   6.954   6.810  0.3464 -1.2142  0.9778
   22MOL   H210 9072   2.237   6.957   6.729  1.0926  0.6827 -2.1903
   22MOL   H211 9073   2.354   6.828   6.694 -0.4936  1.6093 -1.7667
   22MOL   C212 9074   2.148   6.248   6.818 -0.3758 -0.4088  0.1493
   22MOL   C213 9075   2.305   6.249   6.843  0.5608  0.0800 -0.0052
   22MOL   C214 9076   2.337   6.215   6.993  0.1754  0.2967  0.3305
   22MOL   C215 9077   2.476   6.243   7.052  0.1237 -0.8740  0.4338
   22MOL   C216 9078   2.529   6.389   7.050  0.6018  0.2547  0.1979
   22MOL   C217 9079   2.658   6.412   7.127  0.0768 -0.3814  0.2310
   22MOL   C218 9080   2.778   6.343   7.069 -0.4899 -0.0860  0.4583
   22MOL   H219 9081   2.129   6.159   6.758 -1.1788  0.0401 -0.2608
   22MOL   H220 9082   2.093   6.225   6.910  3.0103 -0.0046  2.3996
   22MOL   H221 9083   2.333   6.352   6.821 -1.6130  0.4949 -0.9965
   22MOL   H222 9084   2.267   6.265   7.059  0.5002  1.6711 -0.3258
   22MOL   H223 9085   2.314   6.109   6.998  0.5074  0.2234  0.3407
   22MOL   H224 9086   2.553   6.175   7.017  2.5950  1.5504  0.9925
   22MOL   H225 9087   2.473   6.220   7.158  0.6370 -0.2806  0.5808
   22MOL   H226 9088   2.530   6.421   6.946 -1.2904  1.5520  0.5438
   22MOL   H227 9089   2.443   6.447   7.083  1.0713  1.3494 -0.4689
   22MOL   H228 9090   2.682   6.517   7.112  1.9805 -0.8377 -0.0529
   22MOL   H229 9091   2.630   6.389   7.229  0.4697  2.9991  1.1623
   22MOL   H230 9092   2.786   6.234   7.069 -0.1445 -0.0619  0.3059
   22MOL   H231 9093   2.863   6.382   7.124  0.6467  1.2133 -2.1137
   22MOL   H232 9094   2.795   6.359   6.962 -0.0336  0.2492  0.5781
   22MOL   C233 9095   2.384   6.160   6.757  0.2769  0.0547 -0.2944
   22MOL   C234 9096   2.395   6.201   6.601 -0.6000  0.2293  0.3690
   22MOL   C235 9097   2.442   6.343   6.569  0.2955  0.5889  0.0508
   22MOL   C236 9098   2.582   6.380   6.608  0.2040 -0.2018 -0.1764
   22MOL   C237 9099   2.620   6.531   6.594  0.1197 -0.0980 -0.3094
   22MOL   C238 9100   2.756   6.573   6.637  0.3366  0.1641  0.0985
   22MOL   C239 9101   2.793   6.714   6.576 -0.4450 -0.3014  0.4067
   22MOL   H240 9102   2.342   6.059   6.761  0.9364 -0.2400 -0.7007
   22MOL   H241 9103   2.484   6.149   6.798 -0.5444 -2.3928  1.1735
   22MOL   H242 9104   2.291   6.199   6.569 -0.5975  3.4461  0.0041
   22MOL   H243 9105   2.377   6.426   6.595  0.4497  1.4601 -2.2049
   22MOL   H244 9106   2.445   6.354   6.460  0.1679 -0.5961 -0.0882
   22MOL   H245 9107   2.640   6.324   6.535  0.4447  0.4050 -0.4526
   22MOL   H246 9108   2.606   6.346   6.709  1.0446  1.0444  0.0564
   22MOL   H247 9109   2.552   6.591   6.654  0.7436  0.4389 -0.1303
   22MOL   H248 9110   2.606   6.557   6.489 -1.5574  2.4198  0.4855
   22MOL   H249 9111   2.765   6.579   6.746  1.0831  1.6283 -0.0234
   22MOL   H250 9112   2.830   6.499   6.604 -0.5439 -0.2287 -1.0242
   22MOL   H251 9113   2.800   6.703   6.468 -0.8752 -0.1693  0.3636
   22MOL   H252 9114   2.709   6.781   6.595  2.2892  2.9377  1.7255
   22MOL   H253 9115   2.886   6.754   6.616 -0.3076  1.5239 -1.6388
   22MOL   C254 9116   2.466   6.100   6.516  0.4458  0.1638 -0.0024
   22MOL   C255 9117   2.368   5.979   6.494 -1.0329  0.2306  1.1578
   22MOL   C256 9118   2.462   5.854   6.500 -0.4633  0.3413 -0.5181
   22MOL   C257 9119   2.516   5.809   6.635  0.1265 -0.1847 -0.2818
   22MOL   C258 9120   2.602   5.678   6.628  0.9078 -0.1826  0.2159
   22MOL   C259 9121   2.745   5.694   6.577 -0.2432  0.7302 -0.7696
   22MOL   C260 9122   2.807   5.557   6.572  0.6843  1.0729 -0.3093
   22MOL   H261 9123   2.559   6.076   6.566  0.1778 -1.0604 -0.0698
   22MOL   H262 9124   2.494   6.149   6.423  2.0340 -0.9861 -0.1595
   22MOL   H263 9125   2.297   5.965   6.575 -0.7218 -2.3092  1.0259
   22MOL   H264 9126   2.548   5.878   6.436 -0.5996  0.0985 -0.7906
   22MOL   H265 9127   2.415   5.765   6.459 -0.3629  0.1330 -0.1876
   22MOL   H266 9128   2.556   5.892   6.692  0.3495 -0.5452  0.0902
   22MOL   H267 9129   2.432   5.794   6.703 -0.8110  0.4195 -1.2830
   22MOL   H268 9130   2.545   5.607   6.568 -0.5242 -0.4501  1.8553
   22MOL   H269 9131   2.599   5.647   6.733 -2.4594  1.6690  0.7293
   22MOL   H270 9132   2.757   5.740   6.479  1.2901  2.3127  0.1446
   22MOL   H271 9133   2.802   5.763   6.639  0.8948  1.3681 -2.4923
   22MOL   H272 9134   2.783   5.508   6.667 -1.1251  1.5437 -0.5101
   22MOL   H273 9135   2.757   5.501   6.493 -0.9836  2.1449 -0.0493
   22MOL   H274 9136   2.915   5.545   6.563  0.6671 -2.0992  2.6484
   22MOL   C275 9137   2.303   5.997   6.355 -0.3163 -0.0929  0.0986
   22MOL   C276 9138   2.175   5.922   6.329 -0.3541 -0.3775 -0.4003
   22MOL   C277 9139   2.163   5.899   6.173  0.2517  0.3579  0.2934
   22MOL   C278 9140   2.266   5.799   6.115  0.7104  0.0848 -0.5586
   22MOL   C279 9141   2.281   5.809   5.960 -0.2765 -0.0726 -0.0412
   22MOL   C280 9142   2.366   5.702   5.890 -0.0189  0.0442 -0.2688
   22MOL   C281 9143   2.360   5.709   5.741 -0.0798 -0.6781  0.2292
   22MOL   H282 9144   2.382   5.982   6.280  0.3576  1.4682  0.4697
   22MOL   H283 9145   2.273   6.102   6.348  2.0235  0.4719 -2.9044
   22MOL   H284 9146   2.190   5.826   6.378 -1.1629 -0.0551  0.4848
   22MOL   H285 9147   2.070   5.852   6.143  0.2956  0.7087 -0.4135
   22MOL   H286 9148   2.177   5.992   6.119  2.2251  0.5247  1.0552
   22MOL   H287 9149   2.246   5.696   6.142  2.1837 -0.1811 -0.3974
   22MOL   H288 9150   2.363   5.828   6.156  1.6854 -0.9894 -2.0222
   22MOL   H289 9151   2.311   5.908   5.925 -1.7209  0.6422  0.7192
   22MOL   H290 9152   2.181   5.798   5.919  0.4745 -0.4584 -1.8423
   22MOL   H291 9153   2.471   5.709   5.917  0.4676  1.6768 -2.4505
   22MOL   H292 9154   2.330   5.602   5.915 -0.6639  0.1250 -0.8449
   22MOL   H293 9155   2.423   5.633   5.694 -0.4686 -1.3483  0.7741
   22MOL   H294 9156   2.403   5.803   5.706 -0.4648 -1.3704 -2.2172
   22MOL   H295 9157   2.263   5.718   5.692  0.3535  1.5889 -0.2683
   22MOL   C296 9158   2.051   5.985   6.394 -0.0552 -0.6772  0.3434
   22MOL   C297 9159   1.924   5.896   6.395 -0.0142  0.1509  0.3548
   22MOL   C298 9160   1.787   5.967   6.388  0.5948 -0.2744 -0.0206
   22MOL   C299 9161   1.748   6.027   6.247 -0.4190  1.1022 -0.7431
   22MOL   C300 9162   1.631   6.121   6.267 -0.2914  0.5313  0.0270
   22MOL   C301 9163   1.577   6.171   6.132 -0.4141 -0.0560  0.1802
   22MOL   C302 9164   1.466   6.274   6.157  0.2927  0.1476 -0.4575
   22MOL   H303 9165   2.088   5.985   6.496 -1.3268  0.8672  0.8164
   22MOL   H304 9166   2.037   6.085   6.354 -1.1807 -0.4895  1.1728
   22MOL   H305 9167   1.919   5.850   6.297  1.2000  1.9877 -0.5823
   22MOL   H306 9168   1.704   5.900   6.411  0.7675 -0.3548  0.3726
   22MOL   H307 9169   1.770   6.034   6.473  1.1263 -0.2412  0.0614
   22MOL   H308 9170   1.725   5.951   6.171  0.3693  0.0301  0.0734
   22MOL   H309 9171   1.827   6.097   6.222  0.6084  0.0558 -0.5161
   22MOL   H310 9172   1.660   6.201   6.336  1.4196  0.2318 -0.3204
   22MOL   H311 9173   1.551   6.069   6.321  0.2197  0.8377  1.1021
   22MOL   H312 9174   1.653   6.210   6.065 -0.3735 -2.4263 -1.2243
   22MOL   H313 9175   1.529   6.084   6.086  2.0189 -1.4517  0.1764
   22MOL   H314 9176   1.410   6.306   6.070 -0.6840  0.0980  0.1445
   22MOL   H315 9177   1.391   6.245   6.230  0.9568 -0.4805 -0.0066
   22MOL   H316 9178   1.514   6.363   6.197  0.8999  0.9554 -2.9406
   22MOL   C317 9179   1.922   5.773   6.489 -0.1063  0.0612  0.4097
   22MOL   C318 9180   1.832   5.652   6.450  0.0024  0.1310 -0.4040
   22MOL   C319 9181   1.863   5.584   6.316 -0.3328  0.3240 -0.6544
   22MOL   C320 9182   2.003   5.544   6.304  0.0062 -0.2215  0.0677
   22MOL   C321 9183   2.020   5.494   6.156 -0.1171 -0.2309 -0.1098
   22MOL   C322 9184   2.144   5.408   6.124 -0.4029 -0.4693  0.2037
   22MOL   C323 9185   2.136   5.262   6.178  0.7299  0.6595 -0.7668
   22MOL   H324 9186   1.899   5.816   6.586 -0.8429 -0.3954  0.4386
   22MOL   H325 9187   2.021   5.734   6.514 -1.0171 -2.5161  0.1266
   22MOL   H326 9188   1.730   5.684   6.431  0.3480  1.2559 -0.3608
   22MOL   H327 9189   1.826   5.651   6.239 -2.2561  0.0531  0.0191
   22MOL   H328 9190   1.798   5.498   6.298 -0.4636  0.3056 -0.0885
   22MOL   H329 9191   2.017   5.469   6.382  0.8235 -0.3003 -0.1537
   22MOL   H330 9192   2.084   5.613   6.323 -1.3392  1.1161  1.0366
   22MOL   H331 9193   2.021   5.576   6.084  2.2195 -0.3825 -0.2741
   22MOL   H332 9194   1.935   5.432   6.128  0.7526 -0.8989 -1.3056
   22MOL   H333 9195   2.237   5.445   6.168 -1.6658  0.7847  1.9193
   22MOL   H334 9196   2.162   5.411   6.017 -0.0900  1.9392  0.2912
   22MOL   H335 9197   2.229   5.210   6.153 -0.2154 -0.2181 -2.5241
   22MOL   H336 9198   2.053   5.209   6.130 -0.6981  0.7591  1.5368
   22MOL   H337 9199   2.117   5.267   6.285  0.2683 -1.8080 -0.6970
   22MOL   C338 9200   1.821   5.549   6.566  0.3098  0.2304 -0.1376
   22MOL   C339 9201   1.698   5.579   6.660 -0.3665 -0.0483  0.0743
   22MOL   C340 9202   1.712   5.491   6.791  0.4147  0.0529  0.4744
   22MOL   C341 9203   1.704   5.340   6.774 -0.3448 -0.3846 -0.1962
   22MOL   C342 9204   1.710   5.268   6.909  0.3412  0.3502  0.3682
   22MOL   C343 9205   1.677   5.119   6.921  0.1235 -0.0664  0.4224
   22MOL   C344 9206   1.535   5.082   6.875  0.9986 -0.5743 -0.0601
   22MOL   H345 9207   1.910   5.546   6.629  0.5760  1.6420 -0.4418
   22MOL   H346 9208   1.804   5.450   6.525  1.0611  0.6365 -1.4224
   22MOL   H347 9209   1.712   5.683   6.691 -1.1695  0.5813 -1.6201
   22MOL   H348 9210   1.809   5.511   6.837  1.5669 -2.7223 -0.5911
   22MOL   H349 9211   1.632   5.533   6.852  0.8970  2.5799 -0.5733
   22MOL   H350 9212   1.781   5.301   6.708  1.0942 -0.4391  1.4916
   22MOL   H351 9213   1.607   5.313   6.732 -0.1580  0.5458 -1.2483
   22MOL   H352 9214   1.808   5.284   6.953  0.1266 -0.1183  1.0258
   22MOL   H353 9215   1.641   5.319   6.975  1.1277  2.3073 -0.3081
   22MOL   H354 9216   1.748   5.059   6.864  1.5041  1.9086  0.0107
   22MOL   H355 9217   1.693   5.097   7.026 -0.8309 -0.2025  0.5390
   22MOL   H356 9218   1.458   5.115   6.944  1.6348  0.9207 -0.0286
   22MOL   H357 9219   1.522   4.977   6.849 -1.3184 -0.5320  0.8501
   22MOL   H358 9220   1.510   5.133   6.782  0.2788  0.1514  0.5292
   22MOL   C359 9221   1.558   5.555   6.592 -0.3474 -0.0403  0.3030
   22MOL   C360 9222   1.434   5.636   6.646  0.0610 -0.2660 -0.3213
   22MOL   C361 9223   1.433   5.780   6.594 -0.6264  0.3305 -0.0487
   22MOL   C362 9224   1.369   5.882   6.688 -0.2530  0.2744  0.3396
   22MOL   C363 9225   1.364   6.021   6.635 -0.0958 -0.2586 -0.1059
   22MOL   C364 9226   1.491   6.102   6.627  0.4095  0.1182  0.1539
   22MOL   C365 9227   1.559   6.126   6.759  0.0537 -0.4084  0.4596
   22MOL   H366 9228   1.525   5.452   6.603  1.4547 -0.5519  1.1130
   22MOL   H367 9229   1.556   5.574   6.485 -1.2811 -1.7491  0.0066
   22MOL   H368 9230   1.444   5.625   6.754 -1.9507  0.6875 -0.0188
   22MOL   H369 9231   1.538   5.806   6.579 -0.6441  1.1239  1.1639
   22MOL   H370 9232   1.386   5.779   6.496  1.2915 -1.4432 -0.9842
   22MOL   H371 9233   1.271   5.838   6.707 -0.7629  1.2088 -0.0510
   22MOL   H372 9234   1.412   5.886   6.788  1.0386  1.7551 -0.2587
   22MOL   H373 9235   1.315   6.010   6.538  1.6466  3.2937 -1.4930
   22MOL   H374 9236   1.286   6.075   6.689 -0.0570 -1.1707  0.8905
   22MOL   H375 9237   1.564   6.056   6.561  0.5881 -0.3204  0.6461
   22MOL   H376 9238   1.471   6.193   6.572  2.0169 -0.3525 -1.2416
   22MOL   H377 9239   1.608   6.046   6.814  1.7533  0.2511 -0.0516
   22MOL   H378 9240   1.631   6.202   6.729 -0.3591 -0.3143 -0.3094
   22MOL   H379 9241   1.489   6.181   6.822  0.4303  2.5783 -1.6350
   22MOL   C380 9242   1.302   5.572   6.606 -0.3410  0.4514 -0.4569
   22MOL   C381 9243   1.249   5.471   6.717  0.7479  0.0400 -0.5562
   22MOL   C382 9244   1.167   5.548   6.830 -0.1750 -0.3693 -0.3101
   22MOL   C383 9245   1.136   5.461   6.949 -0.1438  0.1318  0.2511
   22MOL   C384 9246   1.099   5.532   7.081 -0.4601 -0.0966  0.3816
   22MOL   C385 9247   1.058   5.441   7.199  0.2857  0.0415 -0.0299
   22MOL   C386 9248   0.979   5.527   7.293  0.5640 -0.4166 -0.4480
   22MOL   H387 9249   1.236   5.649   6.566 -1.2094  0.7749  1.5144
   22MOL   H388 9250   1.330   5.524   6.513 -0.6540  0.3883 -0.5180
   22MOL   H389 9251   1.330   5.425   6.772  0.2853  1.1332  1.0933
   22MOL   H390 9252   1.074   5.594   6.797  0.3131  2.8616  2.5981
   22MOL   H391 9253   1.219   5.635   6.870 -0.5439  0.1362 -0.9177
   22MOL   H392 9254   1.051   5.397   6.925  1.3197 -1.3041 -1.3313
   22MOL   H393 9255   1.216   5.388   6.966  0.0216  0.6578  1.7921
   22MOL   H394 9256   1.177   5.603   7.108 -1.1199  0.1099  1.8176
   22MOL   H395 9257   1.025   5.608   7.054 -0.4090 -0.3154 -0.3932
   22MOL   H396 9258   1.144   5.394   7.247  0.5787  1.0536  0.4548
   22MOL   H397 9259   0.995   5.358   7.165 -0.4869  0.7714 -0.3913
   22MOL   H398 9260   0.895   5.576   7.244  0.9259 -0.6682 -1.3175
   22MOL   H399 9261   1.035   5.618   7.315 -2.2694  1.1720  0.4641
   22MOL   H400 9262   0.932   5.481   7.380 -2.0347  0.1958 -1.4911
   22MOL   C401 9263   1.161   5.361   6.648  0.1265 -0.2997 -0.6301
   22MOL   C402 9264   1.243   5.258   6.561 -0.7542 -0.0359  0.0288
   22MOL   C403 9265   1.170   5.123   6.537 -0.4207  0.7287  0.2377
   22MOL   C404 9266   1.225   5.005   6.452 -0.2848  0.2583 -0.0520
   22MOL   C405 9267   1.372   4.966   6.493 -0.5577  0.4211  0.2350
   22MOL   C406 9268   1.422   4.825   6.459  0.8394 -0.4315  0.1396
   22MOL   C407 9269   1.362   4.707   6.542 -0.0906 -0.3317 -0.1357
   22MOL   H408 9270   1.081   5.401   6.586  1.2553 -2.3034 -3.5157
   22MOL   H409 9271   1.116   5.297   6.724 -1.2459 -1.0608 -2.0526
   22MOL   H410 9272   1.339   5.245   6.611 -1.4696 -0.8874  1.2078
   22MOL   H411 9273   1.066   5.138   6.508 -0.4169 -3.9703 -2.7083
   22MOL   H412 9274   1.160   5.081   6.637  0.1505  0.7183  0.2905
   22MOL   H413 9275   1.233   5.028   6.346 -1.5363  1.9207  0.1850
   22MOL   H414 9276   1.162   4.917   6.460 -1.8829  1.3720 -0.0637
   22MOL   H415 9277   1.446   5.033   6.450 -0.1408 -0.1966 -0.0290
   22MOL   H416 9278   1.390   4.972   6.600 -0.8805 -0.1883  0.3274
   22MOL   H417 9279   1.400   4.818   6.352  2.3226 -0.4115 -0.1724
   22MOL   H418 9280   1.527   4.825   6.486  0.9198 -0.5140 -0.1687
   22MOL   H419 9281   1.271   4.740   6.593 -0.6334 -0.6327 -0.9007
   22MOL   H420 9282   1.434   4.679   6.619 -0.2246  1.8984  0.8427
   22MOL   H421 9283   1.344   4.620   6.479  1.6313 -0.1519 -0.9151
   22MOL   H422 9284   1.255   5.306   6.464  0.6130  0.6534  0.5324
   23MOL     C1 9285   0.947   4.555   2.455 -0.3133 -0.7129 -0.0418
   23MOL     C2 9286   1.063   4.503   2.539 -0.1296  0.5592  0.0020
   23MOL     C3 9287   1.042   4.533   2.689 -0.5947 -0.1372 -0.1612
   23MOL     C4 9288   0.955   4.430   2.763  0.5056  0.6680 -1.2019
   23MOL     C5 9289   0.917   4.475   2.912  0.5221  0.4415 -0.1396
   23MOL     C6 9290   0.841   4.379   2.995  0.2515 -0.2745  0.0383
   23MOL     C7 9291   0.860   4.403   3.144  0.3471 -0.4767 -0.1355
   23MOL     H8 9292   0.944   4.522   2.352 -0.7505  1.5395 -0.7682
   23MOL     H9 9293   0.953   4.664   2.457  0.7634 -0.7649  0.0709
   23MOL    H10 9294   1.062   4.396   2.518  2.2149 -0.2690  3.6921
   23MOL    H11 9295   1.136   4.541   2.744  0.7877 -0.4411 -2.3961
   23MOL    H12 9296   0.998   4.632   2.694 -1.2520 -0.2952 -2.2821
   23MOL    H13 9297   0.862   4.411   2.708 -0.5017  1.3891  0.2119
   23MOL    H14 9298   1.021   4.343   2.769  0.0123  0.2916 -1.1156
   23MOL    H15 9299   0.869   4.573   2.909 -1.2790 -0.2978  2.5859
   23MOL    H16 9300   1.015   4.482   2.958  1.2349 -2.5803 -1.1075
   23MOL    H17 9301   0.862   4.275   2.972 -1.2774 -0.9745  1.6701
   23MOL    H18 9302   0.735   4.383   2.970  0.3623  0.2985 -0.3589
   23MOL    H19 9303   0.967   4.395   3.164 -0.1226 -3.1363  1.4970
   23MOL    H20 9304   0.802   4.341   3.212  1.5492  1.4517  2.7284
   23MOL    H21 9305   0.831   4.502   3.178  0.9034 -0.7602  1.1848
   23MOL    H22 9306   0.849   4.527   2.494  0.1810 -0.9497  1.0734
   23MOL    C23 9307   1.196   4.554   2.467  0.2499 -0.4823 -0.2772
   23MOL    C24 9308   1.339   4.522   2.523  0.8253  0.4169 -0.6536
   23MOL    C25 9309   1.434   4.627   2.472 -0.6726 -0.1304  0.0051
   23MOL    C26 9310   1.468   4.639   2.325  0.2788  0.2431  0.5714
   23MOL    C27 9311   1.501   4.781   2.287 -0.6388  0.4663 -0.1951
   23MOL    C28 9312   1.383   4.879   2.288  0.8018  0.0814  0.0148
   23MOL    C29 9313   1.266   4.841   2.197 -0.3257 -0.5333  0.4481
   23MOL    H30 9314   1.202   4.516   2.365 -3.9006  0.7139 -1.0466
   23MOL    H31 9315   1.184   4.662   2.461 -0.6630 -0.6265 -1.2417
   23MOL    H32 9316   1.326   4.543   2.629 -3.5610 -1.3500 -0.7372
   23MOL    H33 9317   1.526   4.632   2.529 -0.7559  3.2335 -0.0374
   23MOL    H34 9318   1.377   4.716   2.498  1.1697  0.6350  1.5119
   23MOL    H35 9319   1.390   4.590   2.266  0.9370 -0.4857  0.2941
   23MOL    H36 9320   1.554   4.574   2.308 -0.3105 -0.7207  1.1698
   23MOL    H37 9321   1.543   4.788   2.186 -1.7023 -0.9606 -0.7507
   23MOL    H38 9322   1.580   4.813   2.354 -0.3265  0.4179 -0.5363
   23MOL    H39 9323   1.421   4.975   2.250  0.4658 -0.1412 -0.8886
   23MOL    H40 9324   1.337   4.914   2.380 -1.1012  2.0622 -1.6425
   23MOL    H41 9325   1.185   4.914   2.200 -1.4833 -1.6070 -2.1678
   23MOL    H42 9326   1.297   4.843   2.092  1.2206 -0.6162  0.9053
   23MOL    H43 9327   1.214   4.754   2.237 -0.8685 -0.4631 -0.0903
   23MOL    C44 9328   1.375   4.376   2.505  0.1476  0.3342  0.2636
   23MOL    C45 9329   1.501   4.324   2.586  0.3483  0.1131 -0.0472
   23MOL    C46 9330   1.466   4.308   2.738 -1.0246  0.5132  0.0278
   23MOL    C47 9331   1.577   4.299   2.846  0.0748 -0.3287  0.3189
   23MOL    C48 9332   1.518   4.276   2.983 -0.6806  0.1835 -0.0659
   23MOL    C49 9333   1.494   4.125   3.008  0.4414  0.8175 -0.2750
   23MOL    C50 9334   1.457   4.093   3.159 -0.4542 -0.1531 -0.1618
   23MOL    H51 9335   1.366   4.335   2.404 -1.5328 -1.6515  1.1719
   23MOL    H52 9336   1.291   4.324   2.552  0.0953  0.8757  0.7680
   23MOL    H53 9337   1.589   4.387   2.576  0.3154  0.7419  3.1975
   23MOL    H54 9338   1.399   4.223   2.751  0.3993 -0.3727  1.7679
   23MOL    H55 9339   1.396   4.387   2.768 -0.7735  0.1780  1.5674
   23MOL    H56 9340   1.645   4.217   2.820 -2.2419 -2.8771  2.0246
   23MOL    H57 9341   1.635   4.391   2.848 -2.6403  1.3912  1.2119
   23MOL    H58 9342   1.428   4.332   3.009 -0.9377 -0.5153  0.5848
   23MOL    H59 9343   1.579   4.303   3.069  1.5912  1.9456 -2.1843
   23MOL    H60 9344   1.587   4.080   2.976  0.3983  0.2028  0.4329
   23MOL    H61 9345   1.422   4.097   2.931 -0.5008 -0.8186  1.1567
   23MOL    H62 9346   1.532   4.122   3.233 -0.0561  0.9685 -0.9933
   23MOL    H63 9347   1.459   3.985   3.177 -1.1168 -0.3924 -1.4928
   23MOL    H64 9348   1.361   4.134   3.190  1.1709  1.0324  3.6502
   23MOL    C65 9349   1.544   4.174   2.535  0.6536 -0.7111 -0.4663
   23MOL    C66 9350   1.675   4.147   2.469  0.5238 -0.0896  0.1165
   23MOL    C67 9351   1.679   4.239   2.346  0.2185  0.4083  0.0807
   23MOL    C68 9352   1.606   4.186   2.219  0.8881 -0.4004 -0.8291
   23MOL    C69 9353   1.574   4.290   2.119  0.4397 -0.1491  0.2578
   23MOL    C70 9354   1.696   4.355   2.052  0.9527 -0.2974 -0.3210
   23MOL    C71 9355   1.667   4.453   1.940  0.4283  0.3975 -0.0804
   23MOL    H72 9356   1.523   4.102   2.614 -0.5491 -0.3971 -0.4930
   23MOL    H73 9357   1.467   4.138   2.467 -0.7693  1.3545  0.0113
   23MOL    H74 9358   1.750   4.188   2.537 -0.6027  1.3634  0.5115
   23MOL    H75 9359   1.637   4.336   2.375  1.2827  0.7196  0.5975
   23MOL    H76 9360   1.784   4.262   2.332  0.0263  1.4613  0.2780
   23MOL    H77 9361   1.665   4.110   2.168 -0.1125 -1.2494 -0.7393
   23MOL    H78 9362   1.509   4.143   2.244  0.0745  0.2704 -2.7776
   23MOL    H79 9363   1.519   4.241   2.038 -0.2108  0.8033  0.1166
   23MOL    H80 9364   1.514   4.369   2.164  0.8737  0.8476 -0.8953
   23MOL    H81 9365   1.767   4.282   2.013 -1.1543 -2.0698 -0.9104
   23MOL    H82 9366   1.749   4.404   2.134 -0.2760  0.5289 -0.0024
   23MOL    H83 9367   1.609   4.422   1.853  1.2685 -1.4475 -0.0049
   23MOL    H84 9368   1.609   4.539   1.973  0.8978  0.1272  1.4859
   23MOL    H85 9369   1.759   4.497   1.900  2.1457 -0.8334  2.4393
   23MOL    C86 9370   1.710   4.003   2.443 -0.1182  0.2405  0.1476
   23MOL    C87 9371   1.833   3.951   2.366 -0.4370  0.8352  0.5995
   23MOL    C88 9372   1.954   4.020   2.425 -0.3568 -0.6143  0.3176
   23MOL    C89 9373   2.086   4.003   2.351  0.4731 -0.1844 -0.1274
   23MOL    C90 9374   2.198   4.084   2.403  0.7377  0.5606 -0.1632
   23MOL    C91 9375   2.195   4.230   2.368  0.5907  0.0123 -0.7213
   23MOL    C92 9376   2.323   4.320   2.383 -0.6475  0.5640 -0.2080
   23MOL    H93 9377   1.715   3.956   2.541 -1.4039  0.4665  0.3292
   23MOL    H94 9378   1.630   3.958   2.382  0.5053 -1.2274  0.3942
   23MOL    H95 9379   1.836   3.973   2.259  1.7725  2.1894  0.9054
   23MOL    H96 9380   1.937   4.128   2.430 -0.9680 -0.7317  0.7604
   23MOL    H97 9381   1.971   3.989   2.528 -2.0051 -0.7828  0.5375
   23MOL    H98 9382   2.121   3.900   2.343  1.2969  0.0819  0.1020
   23MOL    H99 9383   2.066   4.025   2.246  3.4113  0.6833 -0.5487
   23MOL   H100 9384   2.290   4.054   2.353  2.2938 -0.1722  2.9987
   23MOL   H101 9385   2.204   4.062   2.509 -0.4761  0.0268 -0.1998
   23MOL   H102 9386   2.158   4.239   2.266 -1.1614 -1.6203 -0.2487
   23MOL   H103 9387   2.116   4.275   2.429 -0.5350 -1.5214 -1.0274
   23MOL   H104 9388   2.347   4.306   2.489 -0.9747  0.7423 -0.1085
   23MOL   H105 9389   2.306   4.425   2.361  0.1056  0.2986 -2.1037
   23MOL   H106 9390   2.410   4.290   2.325  0.6675 -0.3841  2.1430
   23MOL   C107 9391   1.861   3.797   2.387 -0.2855  0.0396  0.2482
   23MOL   C108 9392   1.730   3.704   2.375  0.4093  0.3500 -0.2533
   23MOL   C109 9393   1.665   3.698   2.235 -0.2629  0.2159 -0.2312
   23MOL   C110 9394   1.511   3.670   2.231 -0.0112 -0.2026  0.4949
   23MOL   C111 9395   1.439   3.656   2.099  0.5850 -0.5721  0.3140
   23MOL   C112 9396   1.446   3.509   2.040 -0.5919  0.7564 -0.5106
   23MOL   C113 9397   1.388   3.393   2.127 -0.5735 -0.3341  0.0857
   23MOL   H114 9398   1.894   3.785   2.490 -1.1323 -0.5900  0.4470
   23MOL   H115 9399   1.935   3.751   2.321 -0.2788  2.4077 -1.4746
   23MOL   H116 9400   1.648   3.734   2.441  0.3591  2.8509 -1.3731
   23MOL   H117 9401   1.727   3.635   2.172 -3.0928 -2.2993 -0.5969
   23MOL   H118 9402   1.675   3.799   2.194  0.4966  0.0523 -0.4610
   23MOL   H119 9403   1.481   3.588   2.297  1.0700 -2.0537 -1.2499
   23MOL   H120 9404   1.475   3.763   2.276 -1.4131 -0.8268  0.7005
   23MOL   H121 9405   1.495   3.733   2.045 -0.7817  1.1575  1.3170
   23MOL   H122 9406   1.336   3.691   2.111  0.7857  0.4864 -0.8634
   23MOL   H123 9407   1.385   3.501   1.950 -1.1595 -1.3531  0.0468
   23MOL   H124 9408   1.546   3.485   2.005 -1.5318 -3.1854 -0.7471
   23MOL   H125 9409   1.455   3.391   2.213  1.3256  0.1498 -1.3678
   23MOL   H126 9410   1.286   3.418   2.158  0.1067  0.0608  2.1339
   23MOL   H127 9411   1.384   3.293   2.083  2.1934 -1.2502  1.8247
   23MOL   C128 9412   1.760   3.554   2.413  0.4914  0.1083  0.3757
   23MOL   C129 9413   1.753   3.492   2.559 -0.2949 -0.2336 -0.3659
   23MOL   C130 9414   1.865   3.555   2.650 -0.0806 -0.6034 -0.5207
   23MOL   C131 9415   1.814   3.671   2.738 -0.4370 -0.1271  0.2378
   23MOL   C132 9416   1.923   3.754   2.818 -0.2821  0.2950  0.5616
   23MOL   C133 9417   1.871   3.887   2.881  0.7764 -0.7326 -0.1048
   23MOL   C134 9418   1.982   3.974   2.959  0.1193 -0.1770 -0.6503
   23MOL   H135 9419   1.689   3.491   2.359 -1.0036  1.8385  0.2511
   23MOL   H136 9420   1.855   3.526   2.369  0.7062  0.2940  0.7180
   23MOL   H137 9421   1.658   3.521   2.603  0.1088  0.3373  0.1364
   23MOL   H138 9422   1.939   3.595   2.581 -0.4071  1.2616  0.1869
   23MOL   H139 9423   1.908   3.479   2.714 -0.3690  0.6540  1.1973
   23MOL   H140 9424   1.737   3.637   2.808 -0.1089 -1.0146  0.1826
   23MOL   H141 9425   1.768   3.738   2.666  1.0644 -0.8730 -1.4369
   23MOL   H142 9426   2.003   3.782   2.750  0.6635 -1.7070  0.8175
   23MOL   H143 9427   1.975   3.701   2.898 -0.5492 -0.2581  0.3742
   23MOL   H144 9428   1.785   3.870   2.946  0.2852 -3.6665 -1.4327
   23MOL   H145 9429   1.835   3.941   2.793 -0.8112  0.8859  1.5031
   23MOL   H146 9430   2.010   3.934   3.057 -3.4268 -0.4150  0.3300
   23MOL   H147 9431   1.956   4.079   2.960 -0.9407 -0.4401  0.2402
   23MOL   H148 9432   2.072   3.968   2.898  0.8461 -0.3074  0.4080
   23MOL   C149 9433   1.768   3.339   2.567 -0.6994 -0.2307  0.8276
   23MOL   C150 9434   1.648   3.256   2.519 -0.0743  0.1051  0.3117
   23MOL   C151 9435   1.549   3.246   2.638  0.0993 -0.6987  1.3055
   23MOL   C152 9436   1.406   3.225   2.588 -0.7615  0.0793  0.4890
   23MOL   C153 9437   1.337   3.347   2.524  0.4797 -0.1162 -0.0304
   23MOL   C154 9438   1.193   3.335   2.517  0.4215 -0.4630  0.2226
   23MOL   C155 9439   1.125   3.452   2.442  0.2248 -0.7531  0.5915
   23MOL   H156 9440   1.851   3.325   2.497  0.1588  1.4062  1.4900
   23MOL   H157 9441   1.806   3.292   2.658  2.3500 -0.1345 -0.3086
   23MOL   H158 9442   1.602   3.308   2.435  1.2378  0.2615 -0.3220
   23MOL   H159 9443   1.581   3.160   2.697 -0.4096 -1.8631 -0.1082
   23MOL   H160 9444   1.553   3.339   2.695 -0.5943  1.9276 -2.7376
   23MOL   H161 9445   1.343   3.202   2.675  0.3890 -0.1897  1.2581
   23MOL   H162 9446   1.392   3.136   2.527  1.3274  0.4353 -0.5511
   23MOL   H163 9447   1.373   3.366   2.422  0.9573 -0.8933 -0.0102
   23MOL   H164 9448   1.373   3.435   2.577 -2.0224  0.1151  1.3592
   23MOL   H165 9449   1.139   3.331   2.612 -1.4755 -0.1217 -0.8153
   23MOL   H166 9450   1.168   3.248   2.457  2.2661 -1.3783  0.7349
   23MOL   H167 9451   1.162   3.467   2.341  0.6832  0.5671  0.9412
   23MOL   H168 9452   1.158   3.543   2.491  0.3813 -0.5158  0.0448
   23MOL   H169 9453   1.018   3.435   2.440  0.2799 -1.3361  1.6855
   23MOL   C170 9454   1.684   3.108   2.479 -0.3506 -0.2648 -0.3187
   23MOL   C171 9455   1.765   3.103   2.345  0.1114 -0.0118 -0.2355
   23MOL   C172 9456   1.820   2.958   2.343 -0.6844 -0.0514 -0.1824
   23MOL   C173 9457   1.969   2.951   2.297 -0.0819 -0.1037 -0.9529
   23MOL   C174 9458   2.030   2.811   2.301  0.1632  0.1382  0.4115
   23MOL   C175 9459   2.000   2.703   2.192  0.0277 -0.2037  0.2412
   23MOL   C176 9460   2.104   2.596   2.181  0.4228 -0.0450 -0.0374
   23MOL   H177 9461   1.590   3.054   2.467 -0.6659 -0.2286  1.7404
   23MOL   H178 9462   1.740   3.057   2.558 -1.0198 -1.9715 -0.9237
   23MOL   H179 9463   1.853   3.168   2.353  0.4943 -0.1495 -2.7503
   23MOL   H180 9464   1.769   2.902   2.265  3.1371 -0.7887 -2.2378
   23MOL   H181 9465   1.815   2.902   2.436 -0.4325  1.7310  0.9252
   23MOL   H182 9466   2.031   3.020   2.354 -2.1369  1.6091 -0.7227
   23MOL   H183 9467   1.973   2.989   2.195 -0.3269 -0.4082 -1.0776
   23MOL   H184 9468   2.011   2.756   2.393  2.3404 -1.3585  0.0075
   23MOL   H185 9469   2.137   2.832   2.297  0.4796 -1.3102  0.9933
   23MOL   H186 9470   1.986   2.759   2.099  0.1625 -1.5798 -0.6114
   23MOL   H187 9471   1.898   2.669   2.210 -0.2060  0.6508  0.5829
   23MOL   H188 9472   2.201   2.644   2.175 -0.1852  1.1556 -0.4417
   23MOL   H189 9473   2.090   2.527   2.098 -0.7607 -0.8494  0.8133
   23MOL   H190 9474   2.096   2.539   2.274  0.0987 -0.8734 -0.5655
   23MOL   C191 9475   1.686   3.147   2.220  0.2381 -0.3064  0.1231
   23MOL   C192 9476   1.764   3.200   2.099 -0.0346 -0.4770 -0.0192
   23MOL   C193 9477   1.678   3.187   1.967 -0.3296 -0.2856  0.1560
   23MOL   C194 9478   1.700   3.059   1.885  0.4956 -0.2461  0.0163
   23MOL   C195 9479   1.589   3.055   1.771  0.2670  0.2979 -0.7826
   23MOL   C196 9480   1.605   3.178   1.670  0.5436  0.9213  0.2667
   23MOL   C197 9481   1.746   3.190   1.603 -0.1453  0.2583 -0.3581
   23MOL   H198 9482   1.599   3.208   2.241 -1.0360 -0.8947 -3.0324
   23MOL   H199 9483   1.629   3.060   2.187 -0.7258 -0.3069  1.7346
   23MOL   H200 9484   1.847   3.132   2.077 -0.3433 -0.1844 -2.1828
   23MOL   H201 9485   1.693   3.270   1.898  0.0918 -0.3450  0.1762
   23MOL   H202 9486   1.575   3.202   1.999 -0.3583 -0.1743  0.0098
   23MOL   H203 9487   1.683   2.970   1.946 -5.7486  2.0387  2.0331
   23MOL   H204 9488   1.802   3.046   1.848  0.9872  0.2684  1.1610
   23MOL   H205 9489   1.593   2.963   1.712  0.2137 -0.2506  0.0486
   23MOL   H206 9490   1.486   3.067   1.804  0.0946 -0.9515 -0.8341
   23MOL   H207 9491   1.574   3.262   1.732  1.3845  0.6866  1.0095
   23MOL   H208 9492   1.530   3.178   1.590  1.3920  1.2439 -0.5450
   23MOL   H209 9493   1.816   3.237   1.672 -1.6309  1.3867  0.4055
   23MOL   H210 9494   1.751   3.245   1.509  2.7861  2.2622  0.9049
   23MOL   H211 9495   1.780   3.090   1.576 -0.4824 -0.2417  0.9837
   23MOL   C212 9496   1.803   3.352   2.113  0.4120  0.2706  0.2793
   23MOL   C213 9497   1.931   3.382   2.030  0.3009  0.5707 -0.4016
   23MOL   C214 9498   1.957   3.535   2.017 -0.6756 -0.2121 -0.4582
   23MOL   C215 9499   1.851   3.595   1.919  0.3739 -0.3128  0.0698
   23MOL   C216 9500   1.893   3.736   1.882 -0.6506 -0.5090 -0.1043
   23MOL   C217 9501   1.889   3.845   1.995 -0.6598 -0.2359 -0.2777
   23MOL   C218 9502   1.945   3.981   1.932  0.5335 -0.5350 -0.1680
   23MOL   H219 9503   1.824   3.380   2.216  2.8374  1.2323 -0.4463
   23MOL   H220 9504   1.718   3.415   2.089  1.0839  1.1380  0.1525
   23MOL   H221 9505   1.922   3.343   1.928 -1.1973  1.3220 -0.5633
   23MOL   H222 9506   1.934   3.575   2.116 -1.0680 -1.6568  0.0504
   23MOL   H223 9507   2.061   3.541   1.984 -1.0207  2.4779 -1.1437
   23MOL   H224 9508   1.749   3.603   1.956  1.0447  0.1010  1.9199
   23MOL   H225 9509   1.839   3.533   1.830 -0.0667  1.5006 -1.1523
   23MOL   H226 9510   1.998   3.737   1.852 -0.2205 -1.0796  1.3252
   23MOL   H227 9511   1.843   3.777   1.795  2.5819  0.6989 -1.4756
   23MOL   H228 9512   1.794   3.880   2.034 -0.9954  1.0177 -2.1445
   23MOL   H229 9513   1.957   3.811   2.073 -2.7441 -2.2587  0.7180
   23MOL   H230 9514   1.894   4.012   1.841 -0.8087  0.0943  0.7777
   23MOL   H231 9515   2.052   3.984   1.915  0.3697 -1.1945 -1.3489
   23MOL   H232 9516   1.932   4.070   1.993  0.2872 -0.1806 -0.7343
   23MOL   C233 9517   2.060   3.320   2.100 -0.1808 -0.2856 -0.4789
   23MOL   C234 9518   2.176   3.272   2.010  0.0275  0.0493  0.4014
   23MOL   C235 9519   2.313   3.320   2.066 -0.1796 -0.1418  0.4265
   23MOL   C236 9520   2.333   3.468   2.064 -0.2332  0.0904 -0.6576
   23MOL   C237 9521   2.479   3.513   2.058  0.1342  0.0488 -0.3676
   23MOL   C238 9522   2.563   3.449   2.174  0.1454  0.7486 -0.1624
   23MOL   C239 9523   2.512   3.498   2.314 -0.5506 -0.2330 -1.4708
   23MOL   H240 9524   2.027   3.241   2.167 -1.5078 -0.8323 -1.7624
   23MOL   H241 9525   2.085   3.401   2.168 -1.5085  0.5055 -0.9027
   23MOL   H242 9526   2.160   3.317   1.913  2.5671 -1.8927 -0.9751
   23MOL   H243 9527   2.395   3.268   2.017  1.8302  1.9154  1.5056
   23MOL   H244 9528   2.325   3.285   2.168 -0.8097 -0.9441  0.2260
   23MOL   H245 9529   2.277   3.496   2.153 -0.7584 -3.3478  0.1881
   23MOL   H246 9530   2.280   3.506   1.977 -0.2062  1.4064 -0.1114
   23MOL   H247 9531   2.491   3.621   2.064  0.6414  0.0836 -1.7436
   23MOL   H248 9532   2.519   3.478   1.962 -0.2076  1.6775 -1.1187
   23MOL   H249 9533   2.577   3.341   2.182  1.1257  0.8620 -0.2682
   23MOL   H250 9534   2.662   3.489   2.153 -0.7959  2.6857 -1.0221
   23MOL   H251 9535   2.493   3.606   2.311  2.2184  0.3673  0.5430
   23MOL   H252 9536   2.413   3.460   2.338 -0.4389 -0.1610 -0.8728
   23MOL   H253 9537   2.584   3.471   2.391  1.3725  2.0482 -2.4196
   23MOL   C254 9538   2.178   3.115   1.994  0.8145 -0.3585 -0.0544
   23MOL   C255 9539   2.268   3.055   1.889  0.4227 -0.4814  0.7251
   23MOL   C256 9540   2.183   3.020   1.767  0.1441 -0.4292 -0.0737
   23MOL   C257 9541   2.251   2.980   1.639  0.3678 -0.9047 -0.2534
   23MOL   C258 9542   2.147   2.973   1.521  0.5048 -0.1830 -0.3904
   23MOL   C259 9543   2.193   2.908   1.389  0.2068  0.4872  0.0683
   23MOL   C260 9544   2.210   2.750   1.401  0.2355 -0.5782 -0.0953
   23MOL   H261 9545   2.076   3.076   1.989 -0.4348  2.7738 -0.1343
   23MOL   H262 9546   2.204   3.071   2.091 -1.1158 -1.6630 -0.1017
   23MOL   H263 9547   2.334   3.132   1.848  0.7173 -0.3389  1.4408
   23MOL   H264 9548   2.114   3.104   1.758  1.5053  0.9859  2.2665
   23MOL   H265 9549   2.120   2.935   1.794  0.6443 -2.4620 -4.7125
   23MOL   H266 9550   2.341   3.034   1.608  0.8438 -2.7535 -2.2014
   23MOL   H267 9551   2.277   2.876   1.660  1.1865 -0.8716 -1.0818
   23MOL   H268 9552   2.103   3.067   1.489 -1.2150 -0.3991  1.2621
   23MOL   H269 9553   2.060   2.920   1.559 -0.1321 -0.6008 -2.3597
   23MOL   H270 9554   2.132   2.943   1.306  2.0370  2.1238 -0.5998
   23MOL   H271 9555   2.289   2.950   1.360  0.6151 -0.1552  0.4811
   23MOL   H272 9556   2.223   2.703   1.304 -0.3750  0.4868 -0.7122
   23MOL   H273 9557   2.282   2.718   1.476  1.6779  1.6821 -0.4460
   23MOL   H274 9558   2.119   2.705   1.439 -0.4133 -0.3397 -1.3379
   23MOL   C275 9559   2.344   2.931   1.938 -0.6240  0.1911 -0.3365
   23MOL   C276 9560   2.455   2.959   2.045 -0.0014 -0.6728 -0.0633
   23MOL   C277 9561   2.596   2.973   1.983 -0.3629  0.2482  0.1817
   23MOL   C278 9562   2.606   3.081   1.867 -0.2029  0.3501 -0.1802
   23MOL   C279 9563   2.739   3.086   1.799  1.0665  0.1520 -0.1635
   23MOL   C280 9564   2.732   3.186   1.683  0.1169  0.5299 -1.0015
   23MOL   C281 9565   2.736   3.330   1.743 -0.1218 -0.2533 -0.0022
   23MOL   H282 9566   2.386   2.879   1.852 -0.5441 -0.1065 -0.1196
   23MOL   H283 9567   2.267   2.871   1.986  0.2990 -1.0282 -0.3621
   23MOL   H284 9568   2.422   3.051   2.093 -0.7324 -0.9808  0.0254
   23MOL   H285 9569   2.681   2.993   2.049  1.4338 -0.5016 -1.8668
   23MOL   H286 9570   2.620   2.878   1.936 -0.6207 -0.3693  1.2807
   23MOL   H287 9571   2.571   3.182   1.888 -1.4770  0.0043 -0.5911
   23MOL   H288 9572   2.534   3.043   1.794 -1.6260 -0.8633  1.8019
   23MOL   H289 9573   2.764   2.987   1.762 -0.8639 -0.5508  0.3355
   23MOL   H290 9574   2.813   3.119   1.872  0.9634  2.0895 -0.9058
   23MOL   H291 9575   2.808   3.169   1.606 -0.3113 -0.2664 -1.2553
   23MOL   H292 9576   2.638   3.175   1.630  0.6808  0.4810 -1.9992
   23MOL   H293 9577   2.638   3.351   1.785  1.1929  0.1501  3.0448
   23MOL   H294 9578   2.740   3.396   1.656 -2.0190 -0.1140  0.0038
   23MOL   H295 9579   2.815   3.351   1.816 -0.8868 -0.8857  1.0249
   23MOL   C296 9580   2.453   2.837   2.144  0.2915 -0.3300  0.4274
   23MOL   C297 9581   2.527   2.842   2.274 -0.5378 -0.4942 -0.0614
   23MOL   C298 9582   2.538   2.701   2.334  0.3833 -0.8255  0.1547
   23MOL   C299 9583   2.421   2.625   2.409 -0.0353  0.3963  0.0713
   23MOL   C300 9584   2.469   2.499   2.489 -0.3272  0.5093 -0.1236
   23MOL   C301 9585   2.346   2.421   2.539 -0.3925 -0.4387  0.5036
   23MOL   C302 9586   2.403   2.289   2.593  0.7014 -0.3409 -0.0538
   23MOL   H303 9587   2.351   2.823   2.179  0.9911 -2.2868  1.7757
   23MOL   H304 9588   2.474   2.750   2.082  1.6874  0.1812  0.1757
   23MOL   H305 9589   2.630   2.864   2.248 -0.3324 -0.7443  0.5438
   23MOL   H306 9590   2.567   2.631   2.257 -0.3424 -0.2509 -0.6487
   23MOL   H307 9591   2.621   2.700   2.404  1.0536 -1.4531 -0.6501
   23MOL   H308 9592   2.351   2.598   2.330 -0.3950  2.2472 -0.2471
   23MOL   H309 9593   2.371   2.691   2.479 -2.0162 -0.6436 -0.3268
   23MOL   H310 9594   2.537   2.529   2.569  0.6615  0.0183 -0.7742
   23MOL   H311 9595   2.528   2.443   2.417 -1.0951 -1.0573  0.4461
   23MOL   H312 9596   2.290   2.484   2.608 -0.7093  2.5512 -2.3818
   23MOL   H313 9597   2.265   2.399   2.470  0.0141 -0.7496  0.1202
   23MOL   H314 9598   2.331   2.234   2.654 -0.0019  1.9601  1.2420
   23MOL   H315 9599   2.439   2.226   2.512 -0.6401 -0.3416 -0.6672
   23MOL   H316 9600   2.489   2.306   2.657  1.4545  0.6057 -1.2984
   23MOL   C317 9601   2.482   2.942   2.382  0.4401 -0.1577  0.1659
   23MOL   C318 9602   2.597   2.956   2.484  0.2999 -0.0526 -0.2165
   23MOL   C319 9603   2.668   3.095   2.484  0.1068 -1.0142 -0.2348
   23MOL   C320 9604   2.742   3.122   2.355  0.2594 -0.1594  0.3874
   23MOL   C321 9605   2.828   3.252   2.355  0.9168  0.2572 -0.8887
   23MOL   C322 9606   2.925   3.262   2.231 -0.1640  0.5338  0.1643
   23MOL   C323 9607   3.023   3.382   2.234  0.1918 -0.0238  0.5033
   23MOL   H324 9608   2.391   2.901   2.427 -1.4769  0.5856 -2.8447
   23MOL   H325 9609   2.466   3.040   2.336  0.0385 -0.0995  0.4223
   23MOL   H326 9610   2.679   2.885   2.472  0.6974  0.7317 -2.5283
   23MOL   H327 9611   2.740   3.103   2.566  0.0807 -1.2067 -0.1939
   23MOL   H328 9612   2.598   3.175   2.512  1.3612 -0.0470  0.1843
   23MOL   H329 9613   2.671   3.123   2.271  1.0022 -0.1107 -0.2468
   23MOL   H330 9614   2.806   3.034   2.345 -1.4388 -1.3340 -0.4496
   23MOL   H331 9615   2.890   3.250   2.444  2.0321  1.0241 -1.6339
   23MOL   H332 9616   2.751   3.330   2.353 -1.0982 -1.6469  0.1649
   23MOL   H333 9617   2.872   3.272   2.137 -0.0741  2.3719  0.2916
   23MOL   H334 9618   2.985   3.172   2.220  0.2301  0.9440 -1.1313
   23MOL   H335 9619   3.073   3.386   2.137  1.2617 -0.8150  1.0178
   23MOL   H336 9620   3.106   3.360   2.300  1.2516 -1.6439 -1.3209
   23MOL   H337 9621   2.989   3.479   2.268  1.0197  0.1743  0.7710
   23MOL   C338 9622   2.525   2.934   2.621 -0.3470  0.1859  0.1774
   23MOL   C339 9623   2.619   2.937   2.746  0.2965  0.3780 -0.5049
   23MOL   C340 9624   2.588   2.816   2.847 -0.0663  0.8950  0.0159
   23MOL   C341 9625   2.653   2.686   2.799 -0.5470  0.5863 -0.2842
   23MOL   C342 9626   2.615   2.579   2.900 -0.2515  0.5465 -0.4645
   23MOL   C343 9627   2.686   2.448   2.872  0.6356 -0.5379 -0.0512
   23MOL   C344 9628   2.638   2.333   2.953 -0.5575 -0.3354  0.2086
   23MOL   H345 9629   2.477   2.837   2.611  0.3649 -0.1232 -0.2019
   23MOL   H346 9630   2.439   2.998   2.643 -2.2949 -1.9058 -1.2106
   23MOL   H347 9631   2.721   2.922   2.710  0.0868 -2.8177  0.0525
   23MOL   H348 9632   2.606   2.824   2.954 -0.8468 -2.8010  0.4685
   23MOL   H349 9633   2.480   2.807   2.858 -0.2131  2.6759  0.1511
   23MOL   H350 9634   2.761   2.695   2.804 -0.7235  2.2703  0.8709
   23MOL   H351 9635   2.621   2.661   2.698 -1.7612 -0.1401  0.2636
   23MOL   H352 9636   2.641   2.607   3.002 -2.9406 -0.6780  0.6112
   23MOL   H353 9637   2.506   2.587   2.891 -0.0231  1.1439 -3.2909
   23MOL   H354 9638   2.675   2.425   2.766  0.1537 -1.2893  0.1601
   23MOL   H355 9639   2.793   2.456   2.890  0.5121  0.6590  0.1893
   23MOL   H356 9640   2.703   2.245   2.953 -0.4026 -0.2211 -0.4170
   23MOL   H357 9641   2.540   2.307   2.914 -1.1362  0.8904  0.8355
   23MOL   H358 9642   2.624   2.347   3.060  1.1683 -0.8292  0.5315
   23MOL   C359 9643   2.606   3.071   2.826 -0.5544  0.4916 -0.4012
   23MOL   C360 9644   2.716   3.080   2.929  0.0497 -0.0315  0.1894
   23MOL   C361 9645   2.844   3.164   2.884 -0.5748  0.6393 -0.5084
   23MOL   C362 9646   2.832   3.312   2.858  0.2738  0.7440  0.4826
   23MOL   C363 9647   2.937   3.372   2.761  0.5523  0.1911  0.1367
   23MOL   C364 9648   2.902   3.516   2.721  0.2879  0.8936  0.0352
   23MOL   C365 9649   2.790   3.524   2.612 -0.5929 -0.3812  0.0521
   23MOL   H366 9650   2.506   3.066   2.870 -0.8393  0.2412 -1.0716
   23MOL   H367 9651   2.603   3.163   2.769 -2.7329  1.2038  0.7937
   23MOL   H368 9652   2.770   2.988   2.952  0.0813  0.3177  1.5501
   23MOL   H369 9653   2.924   3.133   2.951 -0.7792 -0.4921 -0.7713
   23MOL   H370 9654   2.875   3.108   2.796  0.5847  0.2943  0.0958
   23MOL   H371 9655   2.735   3.321   2.809  0.6957  2.9002 -0.0514
   23MOL   H372 9656   2.831   3.373   2.948  2.1124 -0.7873  1.5608
   23MOL   H373 9657   3.031   3.361   2.813  0.7536  0.0028 -0.2590
   23MOL   H374 9658   2.946   3.318   2.667 -0.4212 -0.0437  0.1675
   23MOL   H375 9659   2.870   3.576   2.806  3.4071  0.0442  1.8935
   23MOL   H376 9660   2.991   3.562   2.679 -0.7145  1.8366 -1.1153
   23MOL   H377 9661   2.702   3.465   2.636  0.7868 -2.0583  1.0609
   23MOL   H378 9662   2.763   3.626   2.586 -2.5176 -1.4057 -2.1906
   23MOL   H379 9663   2.830   3.480   2.520 -0.5484  1.8701 -1.0394
   23MOL   C380 9664   2.669   3.133   3.072  0.4475  0.0785  0.0129
   23MOL   C381 9665   2.569   3.042   3.155  0.2609  0.5341 -0.8176
   23MOL   C382 9666   2.638   2.921   3.220  0.3615 -0.2101  0.4170
   23MOL   C383 9667   2.544   2.803   3.250  0.5034  0.1566  0.2585
   23MOL   C384 9668   2.618   2.678   3.288  0.3592  0.9310 -0.3966
   23MOL   C385 9669   2.543   2.545   3.287  0.6410  0.0099 -0.0632
   23MOL   C386 9670   2.634   2.423   3.324  0.7649  0.1276  0.6932
   23MOL   H387 9671   2.760   3.131   3.133 -0.1309 -4.0118  0.9016
   23MOL   H388 9672   2.636   3.236   3.072 -1.5894 -0.5560 -0.0409
   23MOL   H389 9673   2.509   3.000   3.074  0.0712  0.4707 -0.6437
   23MOL   H390 9674   2.703   2.943   3.305  0.8709 -1.7616  0.4502
   23MOL   H391 9675   2.723   2.881   3.165 -0.8649 -0.6087 -1.2069
   23MOL   H392 9676   2.476   2.829   3.331 -1.1569  0.5081 -1.1927
   23MOL   H393 9677   2.493   2.775   3.157  1.3944  2.2209 -0.8738
   23MOL   H394 9678   2.694   2.675   3.209 -0.6146 -0.8475 -1.2977
   23MOL   H395 9679   2.664   2.699   3.384 -1.2492 -1.5057  0.9519
   23MOL   H396 9680   2.495   2.541   3.189 -2.3458 -2.3942  1.4222
   23MOL   H397 9681   2.464   2.551   3.362  1.2922 -0.0525  0.6321
   23MOL   H398 9682   2.730   2.427   3.274  0.3243  3.6794  0.0132
   23MOL   H399 9683   2.581   2.336   3.285  0.5158  1.0786 -1.1273
   23MOL   H400 9684   2.640   2.408   3.432  2.6218  1.5183  0.8008
   23MOL   C401 9685   2.478   3.123   3.250 -0.2444  0.6496  0.4021
   23MOL   C402 9686   2.536   3.167   3.383  0.6003 -0.1249  0.4100
   23MOL   C403 9687   2.447   3.270   3.450 -0.4008 -0.0103  0.2283
   23MOL   C404 9688   2.496   3.288   3.599  0.7584 -0.3117  0.5484
   23MOL   C405 9689   2.631   3.361   3.597 -0.4562  0.9556 -1.2183
   23MOL   C406 9690   2.690   3.388   3.733 -0.4775 -1.0103  0.3790
   23MOL   C407 9691   2.841   3.423   3.722  0.2837 -0.4833 -0.2990
   23MOL   H408 9692   2.385   3.070   3.270  1.2229 -0.9271  3.4167
   23MOL   H409 9693   2.434   3.210   3.202 -0.6549  0.7799  1.0090
   23MOL   H410 9694   2.640   3.197   3.368  0.2200  1.4690  0.9028
   23MOL   H411 9695   2.346   3.231   3.441 -0.1808 -1.0638  1.9987
   23MOL   H412 9696   2.440   3.368   3.403  1.2042 -0.6401 -1.3708
   23MOL   H413 9697   2.496   3.197   3.658  1.0700 -0.1523  0.7952
   23MOL   H414 9698   2.421   3.352   3.647 -0.4791 -2.5871  1.6951
   23MOL   H415 9699   2.704   3.307   3.537 -0.0768  0.7212 -0.5395
   23MOL   H416 9700   2.614   3.458   3.549  0.2427  1.1148 -1.1518
   23MOL   H417 9701   2.637   3.462   3.792 -1.5194  0.8208 -2.7652
   23MOL   H418 9702   2.685   3.298   3.794  1.0683  0.2640  2.4497
   23MOL   H419 9703   2.865   3.477   3.631 -0.7150  0.4951  0.0085
   23MOL   H420 9704   2.900   3.332   3.735  0.5020 -0.3687 -0.4978
   23MOL   H421 9705   2.880   3.478   3.808 -0.6913  1.3328 -1.0100
   23MOL   H422 9706   2.553   3.076   3.440  0.1830  0.0918  0.8808
   24MOL     C1 9707   5.486   3.312   4.794  0.8631 -0.3177 -0.1125
   24MOL     C2 9708   5.504   3.204   4.905  0.0499 -0.0187 -0.9771
   24MOL     C3 9709   5.583   3.259   5.028 -0.5142  1.0268 -0.3365
   24MOL     C4 9710   5.569   3.158   5.152  0.2096  0.3951  0.2188
   24MOL     C5 9711   5.611   3.225   5.286  0.1837 -0.6549  0.4418
   24MOL     C6 9712   5.571   3.139   5.410  0.2493 -0.4507  0.0017
   24MOL     C7 9713   5.568   3.216   5.544  0.2399  0.2594  0.3325
   24MOL     H8 9714   5.577   3.353   4.749 -0.7544  0.6358 -2.6442
   24MOL     H9 9715   5.446   3.405   4.834  1.6475 -0.3882  0.8603
   24MOL    H10 9716   5.403   3.178   4.940  0.0844  2.2060  0.8838
   24MOL    H11 9717   5.684   3.268   4.986 -0.3060 -1.6369 -0.5157
   24MOL    H12 9718   5.533   3.352   5.055 -0.7706 -0.3078  4.1399
   24MOL    H13 9719   5.465   3.130   5.159  0.5503 -1.3054 -1.3662
   24MOL    H14 9720   5.628   3.068   5.134 -2.0427 -0.7253 -1.6882
   24MOL    H15 9721   5.554   3.317   5.299  0.8724 -0.0798 -0.5426
   24MOL    H16 9722   5.716   3.254   5.286  0.2763 -0.8865  2.8720
   24MOL    H17 9723   5.627   3.046   5.417  1.8110  0.4738  0.1688
   24MOL    H18 9724   5.473   3.093   5.396 -1.0416  1.6913  1.6610
   24MOL    H19 9725   5.671   3.236   5.574  0.3292 -2.1062  1.6887
   24MOL    H20 9726   5.513   3.165   5.623 -0.8474 -1.4761 -1.5113
   24MOL    H21 9727   5.528   3.317   5.541 -1.0253 -0.2040  1.2764
   24MOL    H22 9728   5.426   3.275   4.711 -0.3833 -0.5300  0.8870
   24MOL    C23 9729   5.570   3.077   4.851  0.1600 -0.3207 -0.5519
   24MOL    C24 9730   5.479   2.972   4.787 -0.6180  0.3552 -0.2851
   24MOL    C25 9731   5.389   2.908   4.889 -0.7922  0.1267  0.4421
   24MOL    C26 9732   5.242   2.900   4.850  0.0406 -0.6367 -0.1280
   24MOL    C27 9733   5.173   3.041   4.829  0.4272  0.3046  0.0959
   24MOL    C28 9734   5.032   3.038   4.784  0.3661  0.1969  0.0280
   24MOL    C29 9735   5.011   2.971   4.649  0.5911 -0.2817 -0.4218
   24MOL    H30 9736   5.644   3.117   4.782 -0.2508  0.4337 -0.5647
   24MOL    H31 9737   5.630   3.026   4.926 -1.0105  1.0866  1.4097
   24MOL    H32 9738   5.425   3.025   4.708 -1.1300  1.8075  1.0088
   24MOL    H33 9739   5.390   2.960   4.985  0.3531  1.6012 -0.3575
   24MOL    H34 9740   5.425   2.807   4.902 -3.0364 -0.5829  1.3963
   24MOL    H35 9741   5.184   2.855   4.930  0.7649 -0.4931  0.4857
   24MOL    H36 9742   5.226   2.841   4.760  1.1982 -1.4956  0.2203
   24MOL    H37 9743   5.229   3.101   4.757 -1.9913  0.6513 -1.5403
   24MOL    H38 9744   5.184   3.091   4.926 -0.2949  1.7932 -0.5704
   24MOL    H39 9745   4.994   3.140   4.793  0.1189  0.0574  0.5436
   24MOL    H40 9746   4.964   2.984   4.849  0.3454 -1.0210 -0.9887
   24MOL    H41 9747   5.109   2.982   4.602  1.5764  3.3660  2.2217
   24MOL    H42 9748   4.979   2.870   4.672 -0.8678  1.0523  3.9073
   24MOL    H43 9749   4.947   3.030   4.584 -0.8339 -1.6277 -0.2564
   24MOL    C44 9750   5.575   2.874   4.716 -0.0252 -0.2686 -0.1212
   24MOL    C45 9751   5.523   2.748   4.630 -0.1359  0.6539 -0.2941
   24MOL    C46 9752   5.439   2.795   4.508 -0.3017 -0.1269  0.4816
   24MOL    C47 9753   5.312   2.715   4.498 -0.3002 -0.1077 -0.3941
   24MOL    C48 9754   5.219   2.750   4.377  0.4953  0.0613 -0.6022
   24MOL    C49 9755   5.087   2.669   4.367 -0.5369  0.2446 -0.0597
   24MOL    C50 9756   5.112   2.523   4.345 -0.6672 -0.0008 -0.5165
   24MOL    H51 9757   5.639   2.849   4.801 -1.2221 -0.7015  0.6623
   24MOL    H52 9758   5.642   2.919   4.642 -1.0042 -0.5675 -1.1990
   24MOL    H53 9759   5.464   2.692   4.703 -1.0313  0.0631 -1.4540
   24MOL    H54 9760   5.501   2.796   4.418  1.4806 -0.9274  1.6739
   24MOL    H55 9761   5.410   2.898   4.526  1.0787 -0.0462  2.4574
   24MOL    H56 9762   5.335   2.609   4.491 -0.5241 -0.2352  0.7554
   24MOL    H57 9763   5.264   2.728   4.595  2.4071  2.5444  0.6482
   24MOL    H58 9764   5.263   2.743   4.278 -2.3541 -0.1497 -1.9080
   24MOL    H59 9765   5.192   2.855   4.389  0.0917 -0.1658  0.5821
   24MOL    H60 9766   5.034   2.698   4.277 -0.5105  0.0739 -0.1310
   24MOL    H61 9767   5.020   2.685   4.452  0.3380  0.5562  0.5819
   24MOL    H62 9768   5.015   2.474   4.339 -1.2178  1.1305 -1.0563
   24MOL    H63 9769   5.177   2.486   4.424 -0.9783 -0.6331 -0.5463
   24MOL    H64 9770   5.162   2.518   4.248  0.7286 -0.7692  0.2336
   24MOL    C65 9771   5.640   2.657   4.589  0.5281 -0.3435  0.1581
   24MOL    C66 9772   5.723   2.571   4.691  0.1525  1.2403 -0.4801
   24MOL    C67 9773   5.868   2.567   4.635 -0.1060  0.1007 -0.1100
   24MOL    C68 9774   5.883   2.520   4.487  0.0356  0.3122 -0.3054
   24MOL    C69 9775   6.024   2.485   4.452 -0.2354  0.0871 -0.3015
   24MOL    C70 9776   6.052   2.389   4.332  0.0262  0.0458 -0.3696
   24MOL    C71 9777   6.202   2.372   4.313 -0.8346 -0.3622  0.3439
   24MOL    H72 9778   5.608   2.589   4.509  0.1597  1.1318 -0.9797
   24MOL    H73 9779   5.711   2.718   4.533  1.3529  0.0538  1.6230
   24MOL    H74 9780   5.730   2.623   4.786  0.3607  0.7845 -0.2461
   24MOL    H75 9781   5.925   2.654   4.664  1.9459 -1.3188  0.1887
   24MOL    H76 9782   5.925   2.490   4.686  1.9953  0.2120 -2.2126
   24MOL    H77 9783   5.824   2.429   4.476 -0.9170  1.1389 -2.2919
   24MOL    H78 9784   5.845   2.590   4.413 -3.1709 -1.6496 -0.6103
   24MOL    H79 9785   6.083   2.576   4.440  0.9549 -0.8423 -1.8233
   24MOL    H80 9786   6.066   2.437   4.540  0.2169  0.0912 -0.5086
   24MOL    H81 9787   6.005   2.431   4.243 -2.6776  0.0689  0.9953
   24MOL    H82 9788   5.999   2.296   4.353 -1.6402  1.3486  1.4100
   24MOL    H83 9789   6.232   2.466   4.269 -0.5418 -0.8591 -0.5245
   24MOL    H84 9790   6.258   2.341   4.402 -1.1360 -2.8764 -0.2838
   24MOL    H85 9791   6.224   2.291   4.243 -1.1945 -1.1867  1.1661
   24MOL    C86 9792   5.670   2.429   4.721  0.8424 -0.2475  0.5624
   24MOL    C87 9793   5.525   2.416   4.779  0.0445 -0.1932  0.7625
   24MOL    C88 9794   5.465   2.277   4.743 -0.2062  0.4220 -0.8940
   24MOL    C89 9795   5.436   2.260   4.590  0.0750 -0.3467 -0.2080
   24MOL    C90 9796   5.388   2.120   4.546 -0.2045 -0.0110  1.0099
   24MOL    C91 9797   5.367   2.110   4.397 -0.2493  0.5536  0.0231
   24MOL    C92 9798   5.497   2.103   4.308 -0.4525 -0.7688  0.1421
   24MOL    H93 9799   5.676   2.361   4.636 -3.1947 -0.0369  0.0244
   24MOL    H94 9800   5.734   2.380   4.794 -0.1266 -2.3316  0.0400
   24MOL    H95 9801   5.464   2.485   4.720 -1.4436 -0.2224  2.2299
   24MOL    H96 9802   5.530   2.199   4.781 -2.5326 -0.6017  1.0963
   24MOL    H97 9803   5.366   2.278   4.789  0.1747  0.3976 -0.0769
   24MOL    H98 9804   5.369   2.336   4.549  0.7458  1.0237  1.2286
   24MOL    H99 9805   5.525   2.279   4.531  0.8245 -2.4488  0.1881
   24MOL   H100 9806   5.296   2.103   4.602  0.4200 -0.7218  1.8384
   24MOL   H101 9807   5.456   2.039   4.570  1.0019  0.4782 -0.6897
   24MOL   H102 9808   5.298   2.030   4.370  1.5971 -1.5052  1.2413
   24MOL   H103 9809   5.316   2.201   4.364 -1.5980  0.5754  2.1239
   24MOL   H104 9810   5.575   2.168   4.349  0.9759 -3.2391  1.4518
   24MOL   H105 9811   5.472   2.139   4.209  0.4038 -0.1104  0.1628
   24MOL   H106 9812   5.534   2.001   4.298  1.3609 -0.3135  1.7897
   24MOL   C107 9813   5.521   2.452   4.922 -0.4524  0.3580 -1.1725
   24MOL   C108 9814   5.387   2.451   5.004 -0.6915  0.4576  0.0393
   24MOL   C109 9815   5.402   2.485   5.151 -0.2396 -0.3093  0.4343
   24MOL   C110 9816   5.447   2.622   5.192  0.1174 -0.2690  0.1925
   24MOL   C111 9817   5.472   2.637   5.339 -0.2486 -0.7598  0.2477
   24MOL   C112 9818   5.547   2.765   5.378 -0.3845 -0.1425 -0.0133
   24MOL   C113 9819   5.551   2.784   5.534  0.4074  0.1468 -0.5134
   24MOL   H114 9820   5.568   2.550   4.932  0.4826 -0.3232  1.4905
   24MOL   H115 9821   5.590   2.385   4.974 -1.7093  2.3655  3.3588
   24MOL   H116 9822   5.365   2.344   5.008 -0.3803  0.4036  0.2608
   24MOL   H117 9823   5.480   2.420   5.191 -1.7696 -1.4781  1.5786
   24MOL   H118 9824   5.314   2.452   5.207  0.2980 -0.7293  1.0339
   24MOL   H119 9825   5.541   2.638   5.139 -0.9025  0.6200 -1.3990
   24MOL   H120 9826   5.380   2.698   5.150 -1.4235 -0.8782  1.4926
   24MOL   H121 9827   5.540   2.564   5.383 -0.9698 -0.9507  1.0697
   24MOL   H122 9828   5.381   2.638   5.399  0.6962  0.2803  1.6930
   24MOL   H123 9829   5.651   2.750   5.347 -1.2138 -0.9678 -2.5833
   24MOL   H124 9830   5.509   2.852   5.324  0.6719  0.7217  0.6170
   24MOL   H125 9831   5.606   2.868   5.575 -1.0211  1.2076 -0.7364
   24MOL   H126 9832   5.454   2.776   5.582  0.9007 -0.6418  0.3603
   24MOL   H127 9833   5.590   2.690   5.574 -0.4304  0.2821  0.6308
   24MOL   C128 9834   5.274   2.517   4.925  0.0313  0.0959 -0.3424
   24MOL   C129 9835   5.133   2.471   4.972  0.0543 -0.1185 -0.1001
   24MOL   C130 9836   5.086   2.338   4.906 -0.6190 -0.2124  0.3236
   24MOL   C131 9837   5.072   2.346   4.748  0.0187 -0.1861  0.3604
   24MOL   C132 9838   5.037   2.212   4.678 -0.0191  0.1667 -0.2245
   24MOL   C133 9839   5.019   2.235   4.528  0.8504  0.3076 -0.9221
   24MOL   C134 9840   4.976   2.103   4.454 -0.1967 -0.3146 -0.3109
   24MOL   H135 9841   5.296   2.622   4.943 -1.2061  0.1362  1.0385
   24MOL   H136 9842   5.292   2.512   4.817  1.5475  2.2159 -0.1966
   24MOL   H137 9843   5.137   2.440   5.076 -1.0490 -2.6021 -0.7664
   24MOL   H138 9844   4.995   2.289   4.941 -0.7913  0.0078  0.1878
   24MOL   H139 9845   5.162   2.265   4.934 -2.4851 -2.7078 -0.9548
   24MOL   H140 9846   5.167   2.376   4.704  0.9537 -1.8593  1.2056
   24MOL   H141 9847   4.995   2.419   4.721  1.8605  2.2045  1.3812
   24MOL   H142 9848   4.954   2.164   4.730 -0.1770  1.9444  1.1838
   24MOL   H143 9849   5.114   2.134   4.679 -1.9067 -1.7659 -1.1547
   24MOL   H144 9850   5.115   2.277   4.498  0.1934  3.0818  0.6771
   24MOL   H145 9851   4.946   2.315   4.514  0.1915  0.1429  1.4118
   24MOL   H146 9852   4.878   2.074   4.492  0.2109 -1.6629 -0.2481
   24MOL   H147 9853   5.056   2.032   4.477 -0.1149 -0.5655 -1.3157
   24MOL   H148 9854   4.970   2.121   4.346  0.0365  1.5588 -0.0237
   24MOL   C149 9855   5.023   2.580   4.976 -0.1338 -0.0624  0.1888
   24MOL   C150 9856   4.945   2.599   5.111  0.2212 -0.2087  0.5215
   24MOL   C151 9857   4.854   2.474   5.138 -0.1520 -0.0571  0.1364
   24MOL   C152 9858   4.746   2.448   5.038 -1.1163 -0.4139  0.3428
   24MOL   C153 9859   4.691   2.306   5.052 -0.0543  0.9845 -0.1089
   24MOL   C154 9860   4.565   2.284   4.962 -1.2325 -0.2200 -0.6954
   24MOL   C155 9861   4.512   2.147   4.952  0.1191 -0.6113  0.4848
   24MOL   H156 9862   5.073   2.672   4.946 -0.9065  0.1444 -0.4792
   24MOL   H157 9863   4.952   2.567   4.894  0.6334  1.8973 -0.8294
   24MOL   H158 9864   5.022   2.610   5.188  0.0783  0.4709  0.5667
   24MOL   H159 9865   4.923   2.389   5.143  0.7453  0.6366 -0.3396
   24MOL   H160 9866   4.816   2.481   5.240  0.0599  0.6649  0.1661
   24MOL   H161 9867   4.786   2.455   4.937 -1.6824 -2.0379  0.0029
   24MOL   H162 9868   4.667   2.523   5.049  0.3656  1.0521  1.2954
   24MOL   H163 9869   4.647   2.287   5.150  0.1794 -2.3585 -0.5847
   24MOL   H164 9870   4.773   2.240   5.023 -0.0321  0.9975 -0.0738
   24MOL   H165 9871   4.607   2.302   4.863  1.1507 -0.6876  0.1826
   24MOL   H166 9872   4.486   2.353   4.991 -0.4176  1.2543 -1.9120
   24MOL   H167 9873   4.415   2.142   4.903 -1.1198 -0.3538  2.8406
   24MOL   H168 9874   4.501   2.100   5.050 -1.3315 -1.1502  0.0770
   24MOL   H169 9875   4.580   2.079   4.902 -0.4300 -2.3116  2.0021
   24MOL   C170 9876   4.867   2.728   5.099  0.1240  0.5320 -0.4688
   24MOL   C171 9877   4.802   2.771   5.236 -0.2070 -0.3571 -0.4294
   24MOL   C172 9878   4.902   2.803   5.349  0.3048 -0.3513 -0.5322
   24MOL   C173 9879   5.015   2.894   5.317 -0.2343 -0.5748 -0.0497
   24MOL   C174 9880   5.118   2.901   5.417 -0.0895 -0.7065 -0.4025
   24MOL   C175 9881   5.057   2.969   5.539 -0.0067 -0.0117 -0.6376
   24MOL   C176 9882   5.172   2.988   5.645  0.1644  0.4369 -0.3594
   24MOL   H177 9883   4.802   2.729   5.012  0.4609 -0.5543 -0.7501
   24MOL   H178 9884   4.937   2.805   5.068  2.9258 -1.4613  0.5986
   24MOL   H179 9885   4.739   2.691   5.274 -0.2869 -0.0813  0.0248
   24MOL   H180 9886   4.938   2.704   5.372  0.0300 -1.5136 -4.7216
   24MOL   H181 9887   4.849   2.844   5.436  1.0878  3.1742 -1.6390
   24MOL   H182 9888   4.984   2.994   5.284  1.4201 -0.6194 -1.8817
   24MOL   H183 9889   5.061   2.850   5.228 -0.0166 -1.5546  0.5467
   24MOL   H184 9890   5.199   2.965   5.382 -2.7055  1.3431 -3.0725
   24MOL   H185 9891   5.158   2.803   5.442  0.5474  0.1520  2.1005
   24MOL   H186 9892   4.981   2.909   5.590 -2.4890  3.1110 -0.5687
   24MOL   H187 9893   5.014   3.064   5.509 -2.2710 -0.7099  0.3214
   24MOL   H188 9894   5.190   2.898   5.704 -0.2636  0.3388 -0.3782
   24MOL   H189 9895   5.157   3.067   5.719 -0.2328  0.0039  0.0273
   24MOL   H190 9896   5.268   3.011   5.600 -1.4713  4.7639 -1.9730
   24MOL   C191 9897   4.703   2.888   5.217  0.4488 -0.8420 -0.5416
   24MOL   C192 9898   4.572   2.874   5.134 -0.0993 -0.4252 -0.3757
   24MOL   C193 9899   4.479   2.766   5.193 -0.8060 -0.0347  0.5653
   24MOL   C194 9900   4.450   2.774   5.340 -0.2239 -0.0986  0.5458
   24MOL   C195 9901   4.324   2.696   5.373 -0.2224 -0.2067  0.4575
   24MOL   C196 9902   4.296   2.685   5.524  0.0363 -0.1080 -0.4757
   24MOL   C197 9903   4.209   2.574   5.579 -0.2118 -0.7829 -0.0526
   24MOL   H198 9904   4.771   2.963   5.177  1.3726 -0.1201  2.2658
   24MOL   H199 9905   4.666   2.911   5.317  0.9034 -0.5899 -0.4272
   24MOL   H200 9906   4.595   2.846   5.031  1.1591 -1.9213  0.2875
   24MOL   H201 9907   4.495   2.667   5.151 -0.5811  0.7239 -1.1710
   24MOL   H202 9908   4.379   2.786   5.154  0.1544 -1.7259 -3.0182
   24MOL   H203 9909   4.441   2.881   5.363 -0.6607 -0.3537  1.5896
   24MOL   H204 9910   4.525   2.733   5.407 -0.1658 -0.8257  0.0437
   24MOL   H205 9911   4.231   2.731   5.328 -2.1784 -1.6461  3.3064
   24MOL   H206 9912   4.347   2.596   5.335 -1.7582  0.5721 -2.6693
   24MOL   H207 9913   4.245   2.778   5.548 -0.2825 -0.4405  0.1522
   24MOL   H208 9914   4.384   2.696   5.588  0.1385  0.6854 -0.7510
   24MOL   H209 9915   4.209   2.578   5.688 -1.0401  0.1749 -0.0836
   24MOL   H210 9916   4.261   2.480   5.563 -1.5410 -2.0022  2.5145
   24MOL   H211 9917   4.113   2.577   5.526 -0.3461 -1.8363  0.1253
   24MOL   C212 9918   4.510   3.013   5.128  0.7811  0.2876 -0.2791
   24MOL   C213 9919   4.557   3.095   5.002  0.5762 -0.2474  0.6815
   24MOL   C214 9920   4.478   3.049   4.870  0.2875 -0.4122 -0.5048
   24MOL   C215 9921   4.505   3.108   4.733 -0.4575 -0.8742 -0.0082
   24MOL   C216 9922   4.650   3.082   4.677 -0.4768  0.7244 -0.7288
   24MOL   C217 9923   4.690   3.163   4.557  0.5575  0.6130 -0.1957
   24MOL   C218 9924   4.758   3.298   4.596  0.0485 -0.2512  0.2700
   24MOL   H219 9925   4.539   3.075   5.213 -0.2265 -0.1834  0.4231
   24MOL   H220 9926   4.401   3.007   5.131  0.8299 -0.5598  0.1011
   24MOL   H221 9927   4.662   3.073   4.981  0.0060 -2.1971 -0.2662
   24MOL   H222 9928   4.494   2.943   4.849 -0.0510 -0.7705  1.0025
   24MOL   H223 9929   4.372   3.062   4.889  0.5848  0.9613  0.2605
   24MOL   H224 9930   4.498   3.217   4.738  1.6289 -0.7729  1.3877
   24MOL   H225 9931   4.431   3.077   4.659 -0.5733  0.5774 -0.5200
   24MOL   H226 9932   4.727   3.075   4.754 -1.3621  1.1492  0.2079
   24MOL   H227 9933   4.650   2.975   4.656  0.7177  0.8258 -1.2709
   24MOL   H228 9934   4.758   3.100   4.500 -0.8223 -1.1039  0.0078
   24MOL   H229 9935   4.612   3.181   4.483 -0.7704 -2.4256  0.3688
   24MOL   H230 9936   4.819   3.337   4.514 -1.1085  0.9677 -0.0109
   24MOL   H231 9937   4.837   3.277   4.668 -1.2931 -1.6300  1.4022
   24MOL   H232 9938   4.692   3.379   4.625  0.0059  0.2095 -1.0707
   24MOL   C233 9939   4.543   3.250   5.014  0.4842  0.2131  0.0606
   24MOL   C234 9940   4.646   3.301   5.109  0.2646  0.0766  0.0757
   24MOL   C235 9941   4.784   3.306   5.050  0.5429 -0.2476 -0.1488
   24MOL   C236 9942   4.900   3.275   5.145 -0.3800  0.7090 -0.0067
   24MOL   C237 9943   5.030   3.310   5.084  0.3481 -0.3933  0.3825
   24MOL   C238 9944   5.150   3.249   5.171  0.2627  0.5110 -0.1360
   24MOL   C239 9945   5.139   3.293   5.320  0.5520  0.3315 -0.1115
   24MOL   H240 9946   4.440   3.267   5.045  0.1740 -3.7826  1.4983
   24MOL   H241 9947   4.553   3.309   4.923 -0.8974 -1.1397 -0.9973
   24MOL   H242 9948   4.659   3.234   5.195 -1.2444 -0.3303  0.0079
   24MOL   H243 9949   4.796   3.406   5.007 -1.7372 -1.0060 -2.7018
   24MOL   H244 9950   4.785   3.242   4.961 -0.9632  1.1642 -1.2058
   24MOL   H245 9951   4.894   3.171   5.177 -1.2701  0.3469 -1.2911
   24MOL   H246 9952   4.880   3.335   5.234  1.6104  2.3332 -0.6158
   24MOL   H247 9953   5.043   3.417   5.072 -0.5537 -0.2034  1.0812
   24MOL   H248 9954   5.029   3.265   4.984 -1.6990  0.8221 -0.1665
   24MOL   H249 9955   5.138   3.141   5.175 -1.6212  0.7521  1.6540
   24MOL   H250 9956   5.245   3.269   5.121 -0.3059 -0.6075 -1.6902
   24MOL   H251 9957   5.236   3.308   5.367 -1.2271  3.6185  2.7181
   24MOL   H252 9958   5.081   3.385   5.330 -0.0046 -0.0189 -0.1412
   24MOL   H253 9959   5.082   3.216   5.371  1.2288 -0.5332 -0.6526
   24MOL   C254 9960   4.592   3.433   5.159 -0.3633 -0.3025 -0.2221
   24MOL   C255 9961   4.670   3.515   5.269  0.0376  0.2669 -0.0377
   24MOL   C256 9962   4.668   3.437   5.404  0.1954  0.3463 -0.5259
   24MOL   C257 9963   4.774   3.482   5.516 -0.3890 -0.0176  0.0588
   24MOL   C258 9964   4.771   3.408   5.649  0.4709 -0.1784 -0.0887
   24MOL   C259 9965   4.820   3.263   5.622  0.1271  0.0253 -0.8104
   24MOL   C260 9966   4.826   3.172   5.746 -0.2268 -0.0117  0.1661
   24MOL   H261 9967   4.486   3.428   5.185 -0.0862  1.0110  1.2935
   24MOL   H262 9968   4.600   3.495   5.070  1.3690  1.1550  0.9127
   24MOL   H263 9969   4.773   3.508   5.235 -0.2936  1.6174 -1.3495
   24MOL   H264 9970   4.704   3.336   5.386  1.7149  1.2410 -2.7661
   24MOL   H265 9971   4.571   3.435   5.454 -0.0622 -1.5923 -1.0924
   24MOL   H266 9972   4.877   3.464   5.484 -0.7265 -0.0398 -1.0413
   24MOL   H267 9973   4.763   3.586   5.546  1.6947 -0.2221  1.6768
   24MOL   H268 9974   4.671   3.398   5.691  0.1174 -1.2144 -1.1551
   24MOL   H269 9975   4.840   3.446   5.725  0.8276  1.9007 -1.4180
   24MOL   H270 9976   4.751   3.212   5.555 -0.1711  0.0247 -0.5032
   24MOL   H271 9977   4.917   3.272   5.573 -0.2208 -0.8865 -1.6659
   24MOL   H272 9978   4.841   3.068   5.718 -2.5670 -0.0336 -1.1661
   24MOL   H273 9979   4.898   3.206   5.821  0.8877 -2.0560  0.0636
   24MOL   H274 9980   4.731   3.189   5.798 -1.4645 -0.3326 -1.9497
   24MOL   C275 9981   4.622   3.660   5.267  0.4967  0.2072 -1.2397
   24MOL   C276 9982   4.644   3.756   5.143 -0.0333  0.0033 -0.3261
   24MOL   C277 9983   4.535   3.730   5.034 -0.2093  0.3068  0.0839
   24MOL   C278 9984   4.481   3.864   4.991  0.2121  0.2995 -0.2077
   24MOL   C279 9985   4.336   3.843   4.939 -0.4804 -0.1062 -0.3074
   24MOL   C280 9986   4.256   3.963   4.890  0.8556  0.2401 -0.4281
   24MOL   C281 9987   4.133   3.910   4.809  0.4295  0.4948  0.3696
   24MOL   H282 9988   4.663   3.710   5.355 -0.5681  0.2949 -0.7822
   24MOL   H283 9989   4.518   3.670   5.298  0.7160 -2.3414  0.4623
   24MOL   H284 9990   4.629   3.857   5.182  0.5687 -0.0937  0.1584
   24MOL   H285 9991   4.561   3.674   4.944  0.1289 -0.3027  0.5582
   24MOL   H286 9992   4.453   3.670   5.072  0.7672 -0.5597  0.8592
   24MOL   H287 9993   4.534   3.921   4.914  0.8739  3.1281  2.2281
   24MOL   H288 9994   4.454   3.927   5.076 -1.0267 -0.6105  0.1004
   24MOL   H289 9995   4.280   3.802   5.023 -0.8754  1.0515  0.0053
   24MOL   H290 9996   4.337   3.768   4.860 -0.8955  0.6206 -0.9998
   24MOL   H291 9997   4.201   4.006   4.973  0.7458  1.6737 -1.2152
   24MOL   H292 9998   4.307   4.047   4.842  2.2363 -0.1638  0.3220
   24MOL   H293 9999   4.098   3.812   4.842  0.6601  0.3004  0.0299
   24MOL   H29410000   4.162   3.904   4.705  1.7728 -1.4932  0.8325
   24MOL   H29510001   4.045   3.974   4.821  1.5740  1.7898  2.1840
   24MOL   C29610002   4.794   3.757   5.086  0.5052 -0.2780 -0.7568
   24MOL   C29710003   4.849   3.869   4.992  0.5510 -0.0760  0.3076
   24MOL   C29810004   4.989   3.825   4.922  0.2438 -0.0934 -0.4473
   24MOL   C29910005   4.983   3.698   4.835  0.7434  0.0591  0.2212
   24MOL   C30010006   5.082   3.687   4.727  0.1460  0.2187  0.0121
   24MOL   C30110007   5.063   3.548   4.653 -0.3738  0.4983 -0.9625
   24MOL   C30210008   5.132   3.428   4.724 -0.1814 -0.0860  0.1320
   24MOL   H30310009   4.863   3.762   5.171 -0.0174 -3.4705 -0.0607
   24MOL   H30410010   4.807   3.660   5.037 -2.0279 -1.4075  0.7084
   24MOL   H30510011   4.779   3.886   4.911 -0.5975 -0.2967  1.2327
   24MOL   H30610012   5.012   3.903   4.849 -0.1549 -0.7137 -1.2487
   24MOL   H30710013   5.065   3.811   4.999 -0.9655  1.2658  1.0080
   24MOL   H30810014   4.884   3.696   4.789  0.9037 -1.0862 -0.0813
   24MOL   H30910015   4.983   3.608   4.896  0.3362  0.4168  0.7444
   24MOL   H31010016   5.185   3.704   4.761 -0.2159 -0.8519  1.7144
   24MOL   H31110017   5.058   3.763   4.653  1.1256 -1.2330 -1.8358
   24MOL   H31210018   4.956   3.539   4.632 -0.8896 -2.8687  2.5498
   24MOL   H31310019   5.105   3.560   4.553  0.4348 -0.5895 -0.7517
   24MOL   H31410020   5.112   3.412   4.830 -0.8578  0.0815  0.0312
   24MOL   H31510021   5.111   3.330   4.681 -1.6117 -0.6452  2.0680
   24MOL   H31610022   5.240   3.439   4.719 -0.0090 -2.0846 -1.7692
   24MOL   C31710023   4.859   4.008   5.058 -0.3458 -0.3367 -0.1535
   24MOL   C31810024   4.881   4.132   4.976 -0.5836 -0.2805 -0.5279
   24MOL   C31910025   4.752   4.171   4.905  0.0852 -0.1665 -0.0569
   24MOL   C32010026   4.765   4.268   4.789 -0.2876  0.1846  0.0529
   24MOL   C32110027   4.631   4.304   4.720  0.5034  0.1566 -0.3954
   24MOL   C32210028   4.655   4.321   4.573  0.1473 -0.0457 -0.0131
   24MOL   C32310029   4.753   4.424   4.532  0.1318  0.2095 -0.8643
   24MOL   H32410030   4.930   4.009   5.140  0.0478  1.5978 -0.5068
   24MOL   H32510031   4.758   4.020   5.096 -0.6058 -0.9360 -0.6454
   24MOL   H32610032   4.949   4.106   4.894 -0.0510  1.3904 -0.6401
   24MOL   H32710033   4.678   4.196   4.981  0.0789 -1.4890  0.3868
   24MOL   H32810034   4.703   4.085   4.860  0.8596  0.7426 -2.7200
   24MOL   H32910035   4.823   4.216   4.713  0.2965 -0.0879  0.6885
   24MOL   H33010036   4.814   4.358   4.826 -1.8212  0.9860  0.1663
   24MOL   H33110037   4.597   4.396   4.768 -2.2218 -0.5869 -0.8220
   24MOL   H33210038   4.552   4.233   4.744 -0.1943  0.2267 -2.3952
   24MOL   H33310039   4.558   4.332   4.525 -0.4007 -1.4700  0.7426
   24MOL   H33410040   4.700   4.229   4.537 -1.8041 -0.8531 -0.4213
   24MOL   H33510041   4.831   4.454   4.601  1.2845  1.9025 -2.8403
   24MOL   H33610042   4.685   4.508   4.512 -1.0176 -0.5663 -0.2340
   24MOL   H33710043   4.800   4.402   4.436  0.6707 -0.6306 -0.4037
   24MOL   C33810044   4.927   4.252   5.061 -0.2259  0.0969 -1.3196
   24MOL   C33910045   5.070   4.247   5.118 -0.0223  0.8321 -0.2030
   24MOL   C34010046   5.074   4.287   5.267  0.1122 -0.2386  0.3254
   24MOL   C34110047   5.211   4.288   5.345  0.3353  0.1001  0.2299
   24MOL   C34210048   5.259   4.430   5.370  0.5350  0.1315 -0.4604
   24MOL   C34310049   5.410   4.437   5.395  0.5949  0.7466  0.4407
   24MOL   C34410050   5.457   4.576   5.411  0.7798  0.1868  0.3836
   24MOL   H34510051   4.853   4.261   5.141 -0.9122  0.4843 -1.9924
   24MOL   H34610052   4.921   4.344   5.002 -2.3435 -0.8357 -2.6285
   24MOL   H34710053   5.095   4.141   5.116  1.9804  1.2111  2.8055
   24MOL   H34810054   5.028   4.384   5.284 -0.6189  0.1164 -3.1758
   24MOL   H34910055   5.016   4.219   5.329  0.2461 -1.4576 -0.8541
   24MOL   H35010056   5.273   4.213   5.297 -0.9980 -0.2181 -1.0510
   24MOL   H35110057   5.193   4.254   5.447  1.7538  2.1077  1.1763
   24MOL   H35210058   5.249   4.498   5.285  1.1470 -0.4225 -0.9759
   24MOL   H35310059   5.203   4.471   5.454  1.8694  0.5675  0.2356
   24MOL   H35410060   5.449   4.382   5.481  0.8826 -1.4912 -1.0662
   24MOL   H35510061   5.455   4.391   5.306 -2.9145  0.1656 -1.1076
   24MOL   H35610062   5.407   4.638   5.485 -0.3159  0.7500 -0.7991
   24MOL   H35710063   5.459   4.633   5.318 -1.1705 -0.3715 -0.0345
   24MOL   H35810064   5.559   4.576   5.448  0.3210  0.0551  1.6825
   24MOL   C35910065   5.178   4.324   5.037 -0.1407 -1.0465  0.0455
   24MOL   C36010066   5.224   4.281   4.900  0.3126 -0.3386  0.4463
   24MOL   C36110067   5.280   4.131   4.896 -0.2122  0.1640  0.3373
   24MOL   C36210068   5.336   4.077   4.771  0.5345 -1.1527  1.1412
   24MOL   C36310069   5.371   3.934   4.806  0.4445 -0.0130  1.2402
   24MOL   C36410070   5.428   3.850   4.694  0.0701 -0.0242 -0.7624
   24MOL   C36510071   5.574   3.883   4.650 -0.7096  0.2667  0.1335
   24MOL   H36610072   5.264   4.312   5.103  1.9128  0.4925 -2.2440
   24MOL   H36710073   5.154   4.430   5.032 -0.7537 -1.2290 -0.9993
   24MOL   H36810074   5.307   4.348   4.877 -1.2329  1.4896 -0.0039
   24MOL   H36910075   5.364   4.124   4.965  0.9009  2.0704 -0.7836
   24MOL   H37010076   5.196   4.067   4.922 -0.4372  0.4320  0.2731
   24MOL   H37110077   5.259   4.085   4.694  2.0891  2.0844 -0.1896
   24MOL   H37210078   5.435   4.109   4.740  0.4434 -3.1241 -1.4317
   24MOL   H37310079   5.437   3.927   4.892  1.8858  1.0620  0.2439
   24MOL   H37410080   5.282   3.880   4.840 -0.5666  0.9359  0.1419
   24MOL   H37510081   5.423   3.750   4.737  1.4881  0.3389  0.3054
   24MOL   H37610082   5.356   3.854   4.612 -0.7964  1.7726  0.0502
   24MOL   H37710083   5.591   3.984   4.614 -2.2099  0.1929 -0.8291
   24MOL   H37810084   5.645   3.870   4.732  0.4022  2.1617 -0.5131
   24MOL   H37910085   5.613   3.810   4.580  1.3467 -1.3310  2.8408
   24MOL   C38010086   5.126   4.318   4.781  0.1762  0.7967 -0.3036
   24MOL   C38110087   5.205   4.393   4.662 -0.1069  0.4440 -0.0818
   24MOL   C38210088   5.123   4.390   4.536 -0.7945  0.2567  0.4198
   24MOL   C38310089   5.216   4.354   4.411 -0.3347  0.1100 -0.1478
   24MOL   C38410090   5.155   4.342   4.272  1.0708  0.5916  0.1451
   24MOL   C38510091   5.036   4.251   4.267  0.5790 -0.0265  0.3728
   24MOL   C38610092   5.017   4.180   4.133  0.1088 -0.3177 -0.5790
   24MOL   H38710093   5.088   4.222   4.747  0.2833  1.0745 -1.2348
   24MOL   H38810094   5.048   4.390   4.807 -0.3024  0.5136 -0.9379
   24MOL   H38910095   5.300   4.341   4.652  0.2131  1.3655 -1.9833
   24MOL   H39010096   5.062   4.479   4.520  1.6601  1.7644 -0.7552
   24MOL   H39110097   5.041   4.319   4.551 -0.8895  0.9293  3.2807
   24MOL   H39210098   5.285   4.437   4.421 -0.6562  0.3910 -0.2584
   24MOL   H39310099   5.265   4.261   4.441  0.5888  1.0120  1.1574
   24MOL   H39410100   5.118   4.434   4.227 -1.5981  0.8496  2.7115
   24MOL   H39510101   5.234   4.309   4.206  1.0444 -0.6136  0.7064
   24MOL   H39610102   4.947   4.306   4.297 -0.5359  0.4289 -3.5422
   24MOL   H39710103   5.063   4.182   4.348  1.3694 -0.9361 -0.6410
   24MOL   H39810104   5.116   4.158   4.092  0.1751 -2.5482  0.6962
   24MOL   H39910105   4.955   4.238   4.065 -0.5729 -0.9475 -0.4961
   24MOL   H40010106   4.965   4.086   4.153 -0.1802  0.4909  2.9047
   24MOL   C40110107   5.215   4.544   4.709 -0.3442 -0.3419  0.2623
   24MOL   C40210108   5.351   4.608   4.706  0.5686  0.1816 -0.1701
   24MOL   C40310109   5.347   4.759   4.718  0.2551  0.7051 -0.1010
   24MOL   C40410110   5.486   4.829   4.705  0.2405 -0.1403  0.6933
   24MOL   C40510111   5.527   4.846   4.561  0.3410  1.2920 -0.2083
   24MOL   C40610112   5.664   4.924   4.562  0.0598  1.2260  0.0101
   24MOL   C40710113   5.719   4.958   4.430  0.1781 -0.3548 -0.1621
   24MOL   H40810114   5.177   4.555   4.810 -1.7329  1.0645 -0.3877
   24MOL   H40910115   5.153   4.607   4.645  0.5791 -1.2393 -1.5841
   24MOL   H41010116   5.377   4.593   4.601 -0.2329  3.5639 -0.9096
   24MOL   H41110117   5.310   4.783   4.817  1.7932 -0.9115  0.8902
   24MOL   H41210118   5.270   4.799   4.652 -0.4740  0.2280  0.4474
   24MOL   H41310119   5.555   4.770   4.765  0.4375  0.2624  0.8605
   24MOL   H41410120   5.477   4.929   4.746  0.8409 -0.3339  1.2998
   24MOL   H41510121   5.547   4.750   4.512  1.1732  0.6488  1.3544
   24MOL   H41610122   5.442   4.898   4.518 -0.2908  0.3017 -0.1909
   24MOL   H41710123   5.668   5.006   4.635  2.7984  0.1920  1.0713
   24MOL   H41810124   5.730   4.850   4.606  0.4128  1.1654 -0.6208
   24MOL   H41910125   5.828   4.953   4.424  0.1549 -2.0900  0.6487
   24MOL   H42010126   5.685   5.054   4.393  0.0766  0.1365  1.1783
   24MOL   H42110127   5.685   4.883   4.359  0.5942 -2.3347  1.6474
   24MOL   H42210128   5.417   4.561   4.778 -1.0426 -0.9981  0.5857
   25MOL     C110129   0.241   2.121   0.982  0.1589 -0.1506  0.5575
   25MOL     C210130   0.322   2.230   0.917  1.4356 -0.1113 -0.4830
   25MOL     C310131   0.293   2.238   0.769  0.0052 -0.3724 -0.3073
   25MOL     C410132   0.356   2.345   0.683  0.3454 -0.8461 -0.2750
   25MOL     C510133   0.304   2.360   0.536  0.6522  0.1283  0.9511
   25MOL     C610134   0.415   2.421   0.445  0.2773  0.2549  1.0724
   25MOL     C710135   0.469   2.560   0.492 -0.6771  0.4071 -0.5532
   25MOL     H810136   0.135   2.145   0.989  0.5773  1.1777  2.8381
   25MOL     H910137   0.267   2.097   1.086 -0.9102 -2.0212  0.4171
   25MOL    H1010138   0.291   2.325   0.960 -0.2760 -1.7347  2.0313
   25MOL    H1110139   0.320   2.142   0.725  0.0200  0.3661 -1.9763
   25MOL    H1210140   0.185   2.232   0.758 -0.0501 -0.4530  0.2609
   25MOL    H1310141   0.348   2.440   0.736  2.7010  0.1684 -1.6397
   25MOL    H1410142   0.463   2.322   0.676  0.5998 -0.2220  1.3928
   25MOL    H1510143   0.206   2.409   0.532  1.3875  1.5149 -1.3368
   25MOL    H1610144   0.284   2.261   0.497  0.0749  0.7273 -0.3097
   25MOL    H1710145   0.381   2.437   0.342 -1.5954 -2.0065  1.3041
   25MOL    H1810146   0.494   2.348   0.436 -0.6848 -0.7185  0.4791
   25MOL    H1910147   0.514   2.560   0.592  0.3039  1.3952 -0.9798
   25MOL    H2010148   0.400   2.644   0.484 -0.6458  0.2937 -2.0123
   25MOL    H2110149   0.555   2.582   0.429  0.7698 -0.7140  0.9598
   25MOL    H2210150   0.253   2.029   0.924  2.6258  0.3949  0.1597
   25MOL    C2310151   0.469   2.229   0.951 -0.0589 -0.9111  0.1964
   25MOL    C2410152   0.576   2.143   0.875  0.0146  0.2184 -0.6170
   25MOL    C2510153   0.564   1.989   0.892 -0.2927 -0.0350 -0.3959
   25MOL    C2610154   0.647   1.909   0.785 -0.1186 -0.6479  0.0775
   25MOL    C2710155   0.561   1.897   0.648 -0.3998  0.1080 -0.1073
   25MOL    C2810156   0.629   1.819   0.532 -0.0346 -0.5399  0.3800
   25MOL    C2910157   0.528   1.803   0.420  0.3876 -0.3856 -0.7967
   25MOL    H3010158   0.503   2.329   0.926  0.8319 -1.7199 -1.8884
   25MOL    H3110159   0.477   2.220   1.059  1.4442  2.0820  0.3654
   25MOL    H3210160   0.564   2.155   0.767  0.4788  1.6480 -0.5259
   25MOL    H3310161   0.461   1.957   0.899 -0.4073  0.3270 -0.4101
   25MOL    H3410162   0.612   1.967   0.988 -0.3929  1.0539 -0.0803
   25MOL    H3510163   0.689   1.818   0.827  0.4427 -0.6914 -0.5722
   25MOL    H3610164   0.737   1.966   0.763 -0.5997 -0.1901 -0.7573
   25MOL    H3710165   0.537   1.999   0.617 -0.0306  0.2517  0.0844
   25MOL    H3810166   0.464   1.851   0.670 -1.4551  2.5901  0.6490
   25MOL    H3910167   0.663   1.727   0.579  0.6300 -0.3145  0.3510
   25MOL    H4010168   0.718   1.873   0.499 -1.0922  0.4942 -0.7858
   25MOL    H4110169   0.476   1.894   0.390 -1.6618 -0.9612  0.8426
   25MOL    H4210170   0.569   1.736   0.345 -2.3601 -2.6132 -0.3958
   25MOL    H4310171   0.439   1.747   0.447 -0.0501  0.2329 -0.9295
   25MOL    C4410172   0.722   2.193   0.909 -0.1267  0.2670  0.4633
   25MOL    C4510173   0.769   2.316   0.827  0.4950 -0.2743 -0.5157
   25MOL    C4610174   0.860   2.409   0.910 -0.0193 -0.6126 -0.9092
   25MOL    C4710175   0.986   2.350   0.979 -0.6311  0.0305 -0.2245
   25MOL    C4810176   1.090   2.462   1.012  0.3001 -0.7020  0.4392
   25MOL    C4910177   1.230   2.419   1.055 -0.4493  0.1315 -0.4658
   25MOL    C5010178   1.229   2.342   1.187 -0.0707  0.9192 -0.0187
   25MOL    H5110179   0.797   2.114   0.914 -1.3035 -1.0378 -1.8345
   25MOL    H5210180   0.720   2.225   1.014  0.1390  1.2161  0.1880
   25MOL    H5310181   0.682   2.380   0.814  1.3534  0.8225 -1.0008
   25MOL    H5410182   0.790   2.453   0.982  1.1670 -0.2327  0.0256
   25MOL    H5510183   0.890   2.494   0.848 -0.2977  0.2915  0.1700
   25MOL    H5610184   0.955   2.287   1.062 -1.9795 -0.5636 -1.1443
   25MOL    H5710185   1.033   2.283   0.908 -1.4520  0.5206 -1.2529
   25MOL    H5810186   1.053   2.527   1.090 -1.7596 -0.0211 -1.0496
   25MOL    H5910187   1.108   2.528   0.927  0.6457  0.1211  1.1471
   25MOL    H6010188   1.301   2.500   1.072  0.8892 -1.2593  0.7515
   25MOL    H6110189   1.259   2.357   0.971  1.4324 -0.4296  0.5715
   25MOL    H6210190   1.227   2.237   1.159 -0.8905  0.8319  0.3484
   25MOL    H6310191   1.145   2.361   1.254 -1.8208 -1.3060 -1.5473
   25MOL    H6410192   1.325   2.345   1.240 -0.4463  0.7138  0.6841
   25MOL    C6510193   0.823   2.280   0.691  0.3333 -0.5677 -0.2329
   25MOL    C6610194   0.871   2.398   0.600  0.6167  0.1260 -0.0804
   25MOL    C6710195   0.817   2.385   0.450  0.3645  0.2248 -0.5089
   25MOL    C6810196   0.839   2.243   0.387 -0.2682 -0.4143 -0.0515
   25MOL    C6910197   0.784   2.233   0.241  0.7429  0.2689 -1.0010
   25MOL    C7010198   0.807   2.093   0.179  0.0361 -0.6810  0.0631
   25MOL    C7110199   0.760   2.085   0.029  0.3653 -0.4260 -0.7891
   25MOL    H7210200   0.898   2.201   0.686  1.3887  0.4297 -0.4898
   25MOL    H7310201   0.730   2.250   0.642  0.3144 -1.4791  0.3513
   25MOL    H7410202   0.822   2.487   0.640  0.2239 -0.0999 -0.0546
   25MOL    H7510203   0.708   2.392   0.460  0.4264 -1.5237  2.0263
   25MOL    H7610204   0.859   2.463   0.388  1.0497  0.1450 -0.1466
   25MOL    H7710205   0.946   2.230   0.378 -0.0710  0.2077  1.4214
   25MOL    H7810206   0.802   2.158   0.444  1.1928 -1.4314 -0.6232
   25MOL    H7910207   0.683   2.272   0.232  1.1468  1.4095 -0.7403
   25MOL    H8010208   0.849   2.284   0.169  2.1661  0.7409  0.5749
   25MOL    H8110209   0.754   2.017   0.235  0.0373 -0.2008  0.7276
   25MOL    H8210210   0.913   2.073   0.189  0.2448 -0.5291 -1.6118
   25MOL    H8310211   0.651   2.091   0.022  0.3830  0.3510 -0.4195
   25MOL    H8410212   0.800   2.170   7.687 -0.3616  0.1185 -0.4769
   25MOL    H8510213   0.782   1.991   7.692  4.0023 -1.3351  2.2913
   25MOL    C8610214   1.024   2.412   0.616 -0.1048  0.1264  0.1019
   25MOL    C8710215   1.080   2.534   0.535  0.3773  0.1419  0.0819
   25MOL    C8810216   1.063   2.667   0.619  0.3356  0.5869  0.0117
   25MOL    C8910217   1.059   2.797   0.529  0.5782 -0.1655  0.1228
   25MOL    C9010218   1.053   2.910   0.629 -0.1177  0.0556  0.3929
   25MOL    C9110219   1.101   3.045   0.575  0.3675 -0.7650 -0.0421
   25MOL    C9210220   1.088   3.161   0.666 -0.2391 -0.4234  0.7527
   25MOL    H9310221   1.044   2.432   0.721  2.1189  1.3931 -0.5273
   25MOL    H9410222   1.078   2.324   0.580  1.1238  0.7371  0.4552
   25MOL    H9510223   1.026   2.554   0.443 -2.3346  0.6815  1.7547
   25MOL    H9610224   0.974   2.669   0.681  1.2486 -0.7422  1.4088
   25MOL    H9710225   1.153   2.669   0.681  0.7177  0.6425 -0.5429
   25MOL    H9810226   1.149   2.812   0.471  0.6510  0.7362  0.4695
   25MOL    H9910227   0.976   2.793   0.459  1.8111 -3.5370 -1.2645
   25MOL   H10010228   1.117   2.882   0.713  2.1538  0.8616 -0.9989
   25MOL   H10110229   0.955   2.933   0.669 -0.4190 -0.4606 -0.0450
   25MOL   H10210230   1.202   3.042   0.534  0.8532 -1.4273  1.1775
   25MOL   H10310231   1.040   3.085   0.494 -1.1931 -0.2499  1.3297
   25MOL   H10410232   1.099   3.257   0.614 -0.2655 -0.9982 -0.3255
   25MOL   H10510233   1.155   3.147   0.750  1.3108  2.2781  0.0301
   25MOL   H10610234   0.991   3.167   0.715 -0.8951 -1.9592 -0.3154
   25MOL   C10710235   1.230   2.514   0.490  0.0821  0.0926  0.8496
   25MOL   C10810236   1.243   2.447   0.353 -0.0496 -0.3316 -0.3588
   25MOL   C10910237   1.214   2.557   0.248 -0.4693  0.1308  0.6522
   25MOL   C11010238   1.204   2.524   0.098  0.8094  0.3704  0.3227
   25MOL   C11110239   1.141   2.635   0.011 -0.4808  0.4989 -0.2624
   25MOL   C11210240   1.124   2.609   7.575  0.3636  0.1787  0.3061
   25MOL   C11310241   1.016   2.693   7.506  0.0585 -0.0163  0.1804
   25MOL   H11410242   1.283   2.448   0.559 -2.0902 -0.1744  2.3487
   25MOL   H11510243   1.281   2.610   0.486 -2.2445  1.3941  0.9701
   25MOL   H11610244   1.182   2.360   0.331  0.3382 -0.6236 -0.2734
   25MOL   H11710245   1.275   2.646   0.262 -1.8488  1.4123 -1.2602
   25MOL   H11810246   1.113   2.589   0.272 -0.5349  0.0085  0.5415
   25MOL   H11910247   1.298   2.494   0.051  0.9705 -0.3215  1.0805
   25MOL   H12010248   1.145   2.433   0.088 -0.4467  1.1610  0.3846
   25MOL   H12110249   1.204   2.724   0.011  1.3612 -0.7840  0.3356
   25MOL   H12210250   1.044   2.662   0.053 -0.6327 -0.8229  0.2751
   25MOL   H12310251   1.222   2.615   7.527  1.0720  1.0513  1.8349
   25MOL   H12410252   1.096   2.505   7.562 -0.8852  0.8415 -2.7354
   25MOL   H12510253   0.925   2.669   7.560 -0.3819  1.7685  0.2690
   25MOL   H12610254   1.031   2.801   7.508 -2.7295  0.3678  1.5277
   25MOL   H12710255   0.994   2.655   7.406  0.1174  0.2237  0.0742
   25MOL   C12810256   1.394   2.410   0.330 -0.1194 -0.1823 -0.3901
   25MOL   C12910257   1.426   2.263   0.368 -0.0266  0.6030  0.0333
   25MOL   C13010258   1.575   2.244   0.404  0.6764  0.1613 -0.6069
   25MOL   C13110259   1.590   2.240   0.555 -0.1820 -0.3810 -0.0872
   25MOL   C13210260   1.728   2.187   0.605 -0.8903  0.3949 -0.0944
   25MOL   C13310261   1.724   2.134   0.747 -0.1802  0.3129 -1.3165
   25MOL   C13410262   1.861   2.110   0.814  0.6831 -0.0723  0.3775
   25MOL   H13510263   1.420   2.415   0.224  1.7094  0.5428  0.0783
   25MOL   H13610264   1.459   2.475   0.388  1.0324 -1.3034 -0.3832
   25MOL   H13710265   1.364   2.238   0.454 -1.2829  1.2371 -0.6655
   25MOL   H13810266   1.642   2.318   0.361 -0.2297  1.9088  0.8728
   25MOL   H13910267   1.604   2.143   0.375 -0.7151 -0.3355 -0.3065
   25MOL   H14010268   1.519   2.160   0.573  1.9778 -2.2831  0.3223
   25MOL   H14110269   1.556   2.332   0.603 -0.1502  0.2378 -1.2318
   25MOL   H14210270   1.792   2.275   0.596  0.1323 -0.4180 -0.9441
   25MOL   H14310271   1.765   2.112   0.535 -2.6130 -1.2332  0.7184
   25MOL   H14410272   1.674   2.038   0.747 -1.3290  0.8760 -2.8596
   25MOL   H14510273   1.672   2.207   0.809  1.8310  0.1628  0.5864
   25MOL   H14610274   1.918   2.029   0.770  0.0599 -2.1388  3.2594
   25MOL   H14710275   1.848   2.076   0.917 -0.1978 -1.1350 -0.0789
   25MOL   H14810276   1.926   2.197   0.818  3.0016 -1.7894  1.1145
   25MOL   C14910277   1.376   2.165   0.256 -0.3708  0.1036  0.2984
   25MOL   C15010278   1.326   2.025   0.295 -0.8572  0.4639 -0.3375
   25MOL   C15110279   1.364   1.923   0.186 -0.1562  0.2356 -0.7957
   25MOL   C15210280   1.510   1.880   0.183 -0.3746  0.5345 -0.3484
   25MOL   C15310281   1.534   1.775   0.072  0.2772  0.8980 -0.4726
   25MOL   C15410282   1.671   1.713   0.089 -0.4372  0.1627  0.5850
   25MOL   C15510283   1.702   1.619   7.687 -0.5353  0.7636  0.0472
   25MOL   H15610284   1.296   2.211   0.198  0.6404  1.2475 -0.2386
   25MOL   H15710285   1.452   2.155   0.178 -1.1469  2.5819 -0.8515
   25MOL   H15810286   1.383   2.001   0.385  0.7566 -0.9594 -1.7033
   25MOL   H15910287   1.295   1.839   0.194  0.0582 -0.3491 -4.0294
   25MOL   H16010288   1.349   1.975   0.091  0.4609  1.7514 -0.0663
   25MOL   H16110289   1.529   1.840   0.283  1.4698 -0.2006 -0.9749
   25MOL   H16210290   1.581   1.961   0.170 -0.3549  0.4684 -0.6544
   25MOL   H16310291   1.536   1.821   7.687  2.4413  1.6962 -0.0769
   25MOL   H16410292   1.458   1.699   0.087  1.1556  0.5050  2.2364
   25MOL   H16510293   1.679   1.663   0.185  1.3331 -2.1922 -0.7363
   25MOL   H16610294   1.744   1.793   0.098  0.2537 -0.3454 -0.4351
   25MOL   H16710295   1.630   1.539   7.669 -1.3498  1.0340  2.0000
   25MOL   H16810296   1.804   1.582   7.695  0.2610  2.9385  0.2950
   25MOL   H16910297   1.695   1.691   7.606  0.1626  0.8598  0.0748
   25MOL   C17010298   1.179   2.029   0.354 -0.3420  0.4840 -0.4398
   25MOL   C17110299   1.132   1.887   0.408 -0.4948  0.2467  0.8271
   25MOL   C17210300   1.052   1.898   0.539  0.2927  0.0816 -0.3321
   25MOL   C17310301   1.137   1.896   0.661  0.1556 -0.6793  0.2472
   25MOL   C17410302   1.062   1.907   0.794  0.0796 -0.0103  0.1402
   25MOL   C17510303   1.164   1.893   0.910  0.4866  0.3727 -0.3561
   25MOL   C17610304   1.263   2.013   0.942  0.4315  0.2477  0.2262
   25MOL   H17710305   1.115   2.073   0.278 -1.2689 -0.0759 -0.0095
   25MOL   H17810306   1.183   2.087   0.447  0.0058 -0.9324  0.4451
   25MOL   H17910307   1.220   1.825   0.422  1.1865  2.3913  0.1078
   25MOL   H18010308   0.988   1.811   0.552 -0.5626  0.9169  1.1115
   25MOL   H18110309   0.983   1.982   0.538 -1.9511 -1.6702 -1.7463
   25MOL   H18210310   1.213   1.974   0.662  0.5444 -1.0496 -0.1799
   25MOL   H18310311   1.188   1.799   0.656 -1.0542 -1.2253 -2.6076
   25MOL   H18410312   0.983   1.834   0.813  0.6852 -0.6271  0.2865
   25MOL   H18510313   1.009   2.001   0.813 -2.1590 -1.1214 -0.3715
   25MOL   H18610314   1.209   1.795   0.892  0.3905  0.5394 -1.5319
   25MOL   H18710315   1.095   1.870   0.991  0.4947  0.5252 -0.3064
   25MOL   H18810316   1.334   2.041   0.864 -0.6272 -0.1933 -0.9110
   25MOL   H18910317   1.322   1.994   1.031 -0.8914 -0.0817  1.0432
   25MOL   H19010318   1.208   2.102   0.972  2.3638  1.5760 -0.0566
   25MOL   C19110319   1.040   1.815   0.296  0.1354  0.2423  0.1147
   25MOL   C19210320   1.036   1.662   0.311  0.3163 -0.4763  0.0336
   25MOL   C19310321   0.894   1.608   0.265 -0.4685 -0.0804  0.6860
   25MOL   C19410322   0.857   1.642   0.119 -0.2881  0.2207 -0.2429
   25MOL   C19510323   0.737   1.560   0.079  0.2407  0.9666  0.3854
   25MOL   C19610324   0.784   1.429   0.008  0.3569 -0.8086 -0.5333
   25MOL   C19710325   0.669   1.336   7.682  0.1500  0.1792 -0.9216
   25MOL   H19810326   1.077   1.828   0.194 -0.0890 -0.3281 -0.0406
   25MOL   H19910327   0.942   1.862   0.309 -0.2728 -0.1743 -1.3451
   25MOL   H20010328   1.037   1.629   0.415  0.0821 -1.4268 -0.2533
   25MOL   H20110329   0.814   1.643   0.331 -0.1538  2.5900 -0.3019
   25MOL   H20210330   0.902   1.500   0.275  2.5275  0.0155  0.0004
   25MOL   H20310331   0.945   1.631   0.057 -0.9305 -1.6371 -0.8615
   25MOL   H20410332   0.825   1.746   0.109 -0.5005  0.2913  1.0635
   25MOL   H20510333   0.671   1.545   0.165 -1.0143 -0.9250 -0.8534
   25MOL   H20610334   0.679   1.616   0.005  1.5308  1.0677 -0.5551
   25MOL   H20710335   0.856   1.373   0.068  0.5058  0.5499  0.5895
   25MOL   H20810336   0.845   1.457   7.635 -0.7807 -2.8780 -2.0490
   25MOL   H20910337   0.598   1.393   7.622  2.2051 -0.7913 -4.4370
   25MOL   H21010338   0.609   1.299   0.052  0.6016  0.7842 -0.3224
   25MOL   H21110339   0.698   1.245   7.629  0.8033  0.2060 -0.6119
   25MOL   C21210340   1.157   1.599   0.247 -0.1357 -0.2945 -0.0787
   25MOL   C21310341   1.175   1.451   0.261 -0.7142 -0.2424 -0.3378
   25MOL   C21410342   1.301   1.397   0.190  0.4620  0.7300  0.1822
   25MOL   C21510343   1.286   1.401   0.033 -0.3765  0.6243 -0.0569
   25MOL   C21610344   1.399   1.326   7.672  0.7489 -0.8405  0.3144
   25MOL   C21710345   1.407   1.353   7.522 -0.4899 -0.0384 -0.6253
   25MOL   C21810346   1.514   1.259   7.462 -0.4110 -0.1561  0.0751
   25MOL   H21910347   1.239   1.655   0.292  1.5165 -2.5816 -0.1776
   25MOL   H22010348   1.172   1.615   0.140  0.6893  0.0416  0.0880
   25MOL   H22110349   1.089   1.402   0.217 -1.1307  1.2741 -1.2404
   25MOL   H22210350   1.387   1.460   0.217  0.4572  0.3667  1.0580
   25MOL   H22310351   1.334   1.297   0.219  2.7248  0.4463 -3.0718
   25MOL   H22410352   1.286   1.506   0.001  0.6792  0.1487 -1.6673
   25MOL   H22510353   1.192   1.356   0.004 -0.3119 -0.4352  1.3218
   25MOL   H22610354   1.491   1.365   0.003  0.5219  0.2310 -0.1425
   25MOL   H22710355   1.389   1.220   7.696  0.7266 -0.1384  3.6078
   25MOL   H22810356   1.312   1.353   7.469 -1.1885  2.5544  0.5495
   25MOL   H22910357   1.428   1.457   7.497 -1.5630  0.6339  1.1836
   25MOL   H23010358   1.611   1.305   7.445 -0.8385  0.8445  0.2419
   25MOL   H23110359   1.486   1.230   7.360  1.4321 -1.3381 -0.0958
   25MOL   H23210360   1.517   1.166   7.518 -0.2537 -1.2259 -1.6830
   25MOL   C23310361   1.167   1.409   0.405 -1.0246  1.1281 -0.0814
   25MOL   C23410362   1.193   1.257   0.450  0.1736 -0.1605  0.3202
   25MOL   C23510363   1.174   1.242   0.608  0.3719  0.1018  0.4269
   25MOL   C23610364   1.313   1.278   0.674 -0.3291 -0.8957 -0.0336
   25MOL   C23710365   1.336   1.229   0.824 -0.2347 -0.2306  0.6980
   25MOL   C23810366   1.448   1.304   0.902 -0.5123 -0.5665  0.2146
   25MOL   C23910367   1.472   1.268   1.051  0.7411 -0.4616 -0.1257
   25MOL   H24010368   1.064   1.428   0.436 -0.3746  1.1838  2.1206
   25MOL   H24110369   1.231   1.470   0.469  1.4852 -0.3568 -1.0969
   25MOL   H24210370   1.297   1.234   0.424  1.6345  2.8106  3.1624
   25MOL   H24310371   1.147   1.139   0.632 -2.6513  1.1591  1.7602
   25MOL   H24410372   1.091   1.302   0.643  0.7450  0.1138  1.2939
   25MOL   H24510373   1.337   1.383   0.658  1.1106 -1.3542 -0.9870
   25MOL   H24610374   1.391   1.221   0.624 -0.6569 -2.2615  0.9833
   25MOL   H24710375   1.358   1.122   0.828 -1.0620 -0.4096  0.5060
   25MOL   H24810376   1.243   1.234   0.881 -2.2839 -0.9803 -2.4311
   25MOL   H24910377   1.543   1.270   0.860 -0.1308  2.2484 -1.3330
   25MOL   H25010378   1.443   1.412   0.888 -0.8843 -0.5681  0.3332
   25MOL   H25110379   1.557   1.314   1.101  1.4167 -0.6715 -1.0658
   25MOL   H25210380   1.385   1.307   1.104 -0.8404 -3.4604 -0.3695
   25MOL   H25310381   1.471   1.160   1.065 -2.4115 -0.4336  0.2205
   25MOL   C25410382   1.100   1.159   0.370 -0.1315  0.7531  0.2956
   25MOL   C25510383   1.118   1.010   0.388  0.2853  0.6848 -0.1168
   25MOL   C25610384   1.265   0.967   0.401  0.1562  0.0499 -0.0913
   25MOL   C25710385   1.353   0.982   0.275 -0.0619  0.3380  0.0998
   25MOL   C25810386   1.498   0.969   0.314 -0.4970 -0.2812 -0.5154
   25MOL   C25910387   1.595   0.970   0.184  0.0030 -0.4986  0.0088
   25MOL   C26010388   1.750   0.955   0.218 -0.6082 -0.2568  0.5326
   25MOL   H26110389   1.110   1.177   0.263 -2.1747 -0.5640 -0.1552
   25MOL   H26210390   0.998   1.188   0.394 -0.4046 -0.7386  0.9697
   25MOL   H26310391   1.061   0.990   0.479 -1.7037 -1.9173 -1.8558
   25MOL   H26410392   1.271   0.861   0.425  3.0096  0.0083 -0.7913
   25MOL   H26510393   1.314   1.016   0.485  0.2266 -2.0127  1.1017
   25MOL   H26610394   1.321   0.907   0.202 -1.7172 -0.4450  1.5884
   25MOL   H26710395   1.336   1.080   0.232  1.6716 -0.2432 -2.0155
   25MOL   H26810396   1.518   0.870   0.355  1.2932  0.0667 -0.5266
   25MOL   H26910397   1.520   1.031   0.401 -0.9951 -0.7770 -0.0327
   25MOL   H27010398   1.563   0.893   0.113  2.1126 -0.0938 -1.4229
   25MOL   H27110399   1.579   1.065   0.133 -0.2708 -0.2017  0.6388
   25MOL   H27210400   1.810   0.988   0.133 -1.0560  1.3466  0.8322
   25MOL   H27310401   1.774   1.024   0.299  0.6629 -1.5418  1.2764
   25MOL   H27410402   1.773   0.852   0.247 -1.4346 -0.5678  0.1026
   25MOL   C27510403   1.032   0.926   0.285  0.3209 -0.6538 -1.0582
   25MOL   C27610404   1.027   0.775   0.320  0.1128  0.5662  0.7690
   25MOL   C27710405   0.972   0.690   0.208 -0.1333 -0.1108 -0.1495
   25MOL   C27810406   1.067   0.672   0.089 -0.3375 -0.4413  0.1494
   25MOL   C27910407   1.021   0.574   7.700 -0.3340  0.1056 -0.5091
   25MOL   C28010408   1.046   0.430   0.015 -0.4980  1.1088  0.0603
   25MOL   C28110409   1.031   0.346   7.599 -0.2862 -0.7093  0.2635
   25MOL   H28210410   1.065   0.946   0.183  1.9094  0.1360 -0.4056
   25MOL   H28310411   0.931   0.966   0.290  0.3825 -0.6837  0.6981
   25MOL   H28410412   1.124   0.730   0.345 -0.8261 -1.1019  1.5534
   25MOL   H28510413   0.958   0.587   0.243  2.2806 -0.3287  0.2194
   25MOL   H28610414   0.874   0.729   0.180  0.2212  0.3870 -0.6899
   25MOL   H28710415   1.167   0.653   0.128 -0.1359  1.9704  0.8970
   25MOL   H28810416   1.085   0.767   0.038  0.0331 -0.9270 -0.6419
   25MOL   H28910417   1.077   0.594   7.608  1.1836  0.0031  0.3736
   25MOL   H29010418   0.914   0.590   7.685 -0.9760 -1.6026  2.0354
   25MOL   H29110419   1.145   0.414   0.060 -1.3779  0.0399  1.6841
   25MOL   H29210420   0.971   0.416   0.093  0.3743 -0.1303  0.7056
   25MOL   H29310421   0.938   0.356   7.543 -0.8716 -0.4977  1.2509
   25MOL   H29410422   1.041   0.238   7.614  1.4043 -0.5286  0.5262
   25MOL   H29510423   1.113   0.368   7.531  0.6885  2.0148  2.2663
   25MOL   C29610424   0.958   0.738   0.450  0.1378 -0.0981  0.4902
   25MOL   C29710425   0.811   0.783   0.468  0.6948 -0.4121 -0.4465
   25MOL   C29810426   0.785   0.920   0.529  0.3470  0.2728  0.0255
   25MOL   C29910427   0.848   0.955   0.668  0.2585  0.0364  0.2765
   25MOL   C30010428   0.814   1.095   0.718 -0.0349 -0.1512  0.9769
   25MOL   C30110429   0.679   1.106   0.799  0.6040  0.1381  0.3703
   25MOL   C30210430   0.666   1.250   0.840 -0.2210  0.8380 -0.3503
   25MOL   H30310431   0.962   0.631   0.468 -1.3844  0.0087  1.5444
   25MOL   H30410432   1.028   0.775   0.526  0.7434  1.7939 -0.9528
   25MOL   H30510433   0.771   0.787   0.367 -1.7381  1.3489  0.5449
   25MOL   H30610434   0.818   0.992   0.454  1.6354  0.4924  0.7820
   25MOL   H30710435   0.677   0.933   0.537  0.0775 -1.4104 -0.8700
   25MOL   H30810436   0.954   0.929   0.669 -0.1063 -1.4881  2.2053
   25MOL   H30910437   0.805   0.890   0.744 -0.4876  0.1244 -0.0677
   25MOL   H31010438   0.829   1.166   0.636 -0.7856 -0.9180  0.1536
   25MOL   H31110439   0.885   1.111   0.798 -1.9247  0.7899  2.4992
   25MOL   H31210440   0.600   1.082   0.728  1.1451  0.1302 -0.2348
   25MOL   H31310441   0.669   1.033   0.879  0.6725 -1.5294 -1.0965
   25MOL   H31410442   0.582   1.263   0.908 -0.6826 -1.3551 -0.4850
   25MOL   H31510443   0.759   1.277   0.891  0.1590 -1.1333  0.0681
   25MOL   H31610444   0.665   1.320   0.757 -0.0616  1.0838 -0.1464
   25MOL   C31710445   0.717   0.675   0.534 -0.1246  0.3621  0.1990
   25MOL   C31810446   0.586   0.663   0.456  0.0577 -0.1179 -0.2215
   25MOL   C31910447   0.611   0.571   0.338  0.5518  0.1670  0.4504
   25MOL   C32010448   0.526   0.577   0.219 -0.1652 -0.9895 -0.4410
   25MOL   C32110449   0.574   0.484   0.100 -0.4862  0.0497 -0.3744
   25MOL   C32210450   0.497   0.495   7.691  0.5194 -0.0869  0.0109
   25MOL   C32310451   0.572   0.456   7.560 -0.3543  0.2215 -0.0866
   25MOL   H32410452   0.678   0.711   0.629  0.7406 -1.9006  1.4471
   25MOL   H32510453   0.778   0.587   0.552  0.1017  0.3694 -0.5228
   25MOL   H32610454   0.566   0.761   0.415  2.1998  1.1436  1.6398
   25MOL   H32710455   0.598   0.468   0.369 -4.9273  0.4680 -0.4319
   25MOL   H32810456   0.718   0.570   0.316  0.3822  2.8924 -0.7603
   25MOL   H32910457   0.530   0.679   0.182  1.0453 -0.1078  2.0496
   25MOL   H33010458   0.422   0.558   0.246  0.5221 -1.5962  1.8935
   25MOL   H33110459   0.574   0.383   0.142  0.0175 -0.0099 -0.5136
   25MOL   H33210460   0.676   0.514   0.077  0.5960 -3.5625 -0.6212
   25MOL   H33310461   0.479   0.599   7.665 -0.8902 -0.1467  0.7377
   25MOL   H33410462   0.396   0.457   7.707  0.9577 -0.9960  0.6734
   25MOL   H33510463   0.519   0.482   7.468 -0.7408 -1.3909 -0.3489
   25MOL   H33610464   0.582   0.348   7.549  1.5549  0.4425 -0.7161
   25MOL   H33710465   0.673   0.496   7.550 -0.4376  0.0202 -1.9220
   25MOL   C33810466   0.470   0.611   0.552 -0.5664  1.0453  0.2223
   25MOL   C33910467   0.401   0.722   0.636 -0.5611 -0.0443  0.4891
   25MOL   C34010468   0.384   0.682   0.781 -0.3508  0.5406 -0.5401
   25MOL   C34110469   0.516   0.675   0.863 -0.7447  0.1924 -0.0632
   25MOL   C34210470   0.485   0.610   1.004 -0.0324 -0.3448 -0.4668
   25MOL   C34310471   0.594   0.600   1.104  0.4314 -1.1535  0.0387
   25MOL   C34410472   0.700   0.508   1.055 -1.3116 -0.8292 -0.2052
   25MOL   H34510473   0.502   0.524   0.610 -0.6487 -1.3104 -3.0663
   25MOL   H34610474   0.394   0.571   0.485  0.8147  0.2325 -0.8805
   25MOL   H34710475   0.463   0.812   0.638 -0.6127  0.0133 -0.1977
   25MOL   H34810476   0.329   0.758   0.836 -0.7493 -0.3378  0.2983
   25MOL   H34910477   0.328   0.588   0.781 -1.3284  1.1119 -1.9021
   25MOL   H35010478   0.572   0.768   0.875 -0.1665 -0.3264  1.3782
   25MOL   H35110479   0.583   0.603   0.818 -0.2615  0.8270 -0.3665
   25MOL   H35210480   0.406   0.671   1.047  0.2099 -0.1845 -0.2502
   25MOL   H35310481   0.440   0.513   0.981  0.1215 -0.5466  0.0695
   25MOL   H35410482   0.637   0.697   1.129 -2.1851  0.0654 -0.0123
   25MOL   H35510483   0.545   0.567   1.196 -0.8891 -1.4925 -0.7703
   25MOL   H35610484   0.663   0.434   0.985  0.4769 -2.5879  0.6265
   25MOL   H35710485   0.754   0.448   1.129 -1.4886 -0.5397  0.1581
   25MOL   H35810486   0.784   0.561   1.009 -1.6617  2.1696  2.3879
   25MOL   C35910487   0.265   0.758   0.571  0.5251 -0.2693 -0.5318
   25MOL   C36010488   0.199   0.898   0.607  0.2066  0.1408  0.3538
   25MOL   C36110489   0.287   1.020   0.583 -0.4861 -0.5930  0.1525
   25MOL   C36210490   0.365   1.038   0.453  0.3931  0.0807 -0.4112
   25MOL   C36310491   0.464   1.154   0.443  0.0815  0.0030 -0.4191
   25MOL   C36410492   0.561   1.165   0.326 -0.6226  0.5652  0.2179
   25MOL   C36510493   0.649   1.286   0.323  0.0520 -0.6836  0.4171
   25MOL   H36610494   0.199   0.672   0.585  0.7174 -0.3307  0.0279
   25MOL   H36710495   0.269   0.752   0.463 -0.4191 -1.5239 -0.5121
   25MOL   H36810496   0.185   0.911   0.714 -1.1066  2.5366 -0.0661
   25MOL   H36910497   0.215   1.101   0.573 -1.2100 -1.2218  0.2980
   25MOL   H37010498   0.358   1.039   0.664 -0.5067 -1.9128  0.4860
   25MOL   H37110499   0.424   0.947   0.440  0.9161  0.0197  2.1652
   25MOL   H37210500   0.306   1.049   0.362  0.0060  0.3279 -0.1316
   25MOL   H37310501   0.403   1.244   0.447 -0.6727 -0.4464 -1.8987
   25MOL   H37410502   0.515   1.151   0.540 -1.1329 -0.7381  0.2015
   25MOL   H37510503   0.617   1.072   0.332 -0.5421  0.6920  1.5562
   25MOL   H37610504   0.515   1.156   0.228 -2.2283 -1.3976  1.1099
   25MOL   H37710505   0.595   1.374   0.290  0.3637 -0.9794 -0.8904
   25MOL   H37810506   0.694   1.301   0.422  1.8476  0.8640 -0.5908
   25MOL   H37910507   0.726   1.267   0.248  0.2442  1.6538  0.0025
   25MOL   C38010508   0.056   0.914   0.540  0.4709 -0.3348 -0.4083
   25MOL   C38110509   7.665   0.808   0.598 -0.9809 -0.3417  0.1841
   25MOL   C38210510   7.619   0.846   0.740 -0.4954 -0.8535  0.0309
   25MOL   C38310511   7.544   0.976   0.758 -0.0870 -0.3928  0.0516
   25MOL   C38410512   7.505   1.001   0.911 -1.1855 -0.2877 -0.6071
   25MOL   C38510513   7.388   1.095   0.942  0.0697 -0.2008 -0.3555
   25MOL   C38610514   7.367   1.116   1.096 -0.0093 -0.4948 -0.7296
   25MOL   H38710515   0.016   1.015   0.553  0.2320 -0.3887 -0.7447
   25MOL   H38810516   0.061   0.896   0.433 -3.0009 -0.9310 -0.5151
   25MOL   H38910517   7.712   0.711   0.579  0.1192  0.0983  0.5910
   25MOL   H39010518   7.702   0.834   0.810 -0.1089 -2.1257 -0.6314
   25MOL   H39110519   7.538   0.777   0.764 -0.9167 -0.8608 -1.3724
   25MOL   H39210520   7.602   1.062   0.724  1.7785 -1.5808  0.2076
   25MOL   H39310521   7.457   0.985   0.692 -0.6156  1.2705  0.9507
   25MOL   H39410522   7.475   0.909   0.963  0.9051 -0.8158 -0.2986
   25MOL   H39510523   7.598   1.038   0.953 -0.6469  0.2155 -2.2043
   25MOL   H39610524   7.299   1.061   0.889  0.0196 -1.1847  0.3470
   25MOL   H39710525   7.421   1.183   0.888  0.3973 -0.7435 -1.0573
   25MOL   H39810526   7.282   1.185   1.100  0.1270 -0.3634 -0.1055
   25MOL   H39910527   7.453   1.157   1.148 -1.0135  0.2820  0.3622
   25MOL   H40010528   7.336   1.029   1.154  0.4068  0.0431  0.3049
   25MOL   C40110529   7.542   0.800   0.504  0.0187 -0.0425 -0.3909
   25MOL   C40210530   7.428   0.707   0.545  1.2295  0.4388 -0.1850
   25MOL   C40310531   7.343   0.666   0.428  0.5934  0.2279 -0.0993
   25MOL   C40410532   7.213   0.596   0.458  0.2352  0.3942 -0.4977
   25MOL   C40510533   7.143   0.540   0.333 -0.1330  0.2143 -0.0255
   25MOL   C40610534   7.007   0.480   0.365  0.3625  0.0614 -0.2336
   25MOL   C40710535   6.938   0.405   0.252  0.1807 -0.5686 -0.1084
   25MOL   H40810536   7.577   0.760   0.409  1.0693 -0.5419  0.1953
   25MOL   H40910537   7.513   0.901   0.475  0.1503  0.3665  0.8739
   25MOL   H41010538   7.376   0.758   0.626  1.4546  2.4916 -1.3279
   25MOL   H41110539   7.394   0.601   0.358  0.7771  1.0504 -0.7332
   25MOL   H41210540   7.322   0.746   0.357  1.0645  0.5177  0.0896
   25MOL   H41310541   7.144   0.671   0.497  1.3918 -0.6141  3.7280
   25MOL   H41410542   7.231   0.523   0.537  1.0405  0.9227 -0.1769
   25MOL   H41510543   7.133   0.622   0.261  0.8776  0.2175 -0.1677
   25MOL   H41610544   7.210   0.473   0.278  0.5901 -0.2492  1.4023
   25MOL   H41710545   7.018   0.412   0.449 -1.2650 -0.4051 -0.3825
   25MOL   H41810546   6.939   0.555   0.407  0.5118 -0.7499  1.5071
   25MOL   H41910547   7.009   0.357   0.185  0.7122 -0.0608  0.0837
   25MOL   H42010548   6.890   0.480   0.189 -0.1802  0.3082  1.1771
   25MOL   H42110549   6.870   0.338   0.305 -2.2112  0.7417 -1.4061
   25MOL   H42210550   7.475   0.621   0.594 -0.5536 -1.9046 -2.3995
   26MOL     C110551   7.438   0.771   5.216  0.5598 -0.6654 -0.6842
   26MOL     C210552   7.362   0.847   5.319  0.3354 -1.1389 -0.0130
   26MOL     C310553   7.455   0.869   5.447 -0.8629  0.6111  0.2121
   26MOL     C410554   7.503   0.733   5.508 -0.9166  0.3505  0.7440
   26MOL     C510555   7.591   0.752   5.620 -0.5485 -0.1286 -0.4049
   26MOL     C610556   7.650   0.616   5.678 -0.7398 -1.1315  0.2473
   26MOL     C710557   0.037   0.542   5.584  0.2046 -0.7275  0.2935
   26MOL     H810558   7.469   0.668   5.233 -0.2744 -0.7461  0.4301
   26MOL     H910559   7.535   0.821   5.211 -0.5526  1.4670 -1.4579
   26MOL    H1010560   7.342   0.941   5.267  1.5319 -2.1068 -2.2851
   26MOL    H1110561   7.537   0.928   5.407  0.4882  0.9535  3.2897
   26MOL    H1210562   7.402   0.931   5.519  0.0212  0.5218  0.9532
   26MOL    H1310563   7.418   0.669   5.531 -0.6142 -0.0617  0.7161
   26MOL    H1410564   7.560   0.677   5.434  0.3836  0.1790  1.8566
   26MOL    H1510565   7.535   0.801   5.700  0.5403  1.4856 -0.6081
   26MOL    H1610566   7.671   0.823   5.599  1.3063 -2.6545 -2.2273
   26MOL    H1710567   7.571   0.543   5.697 -0.3437 -2.0244 -1.4374
   26MOL    H1810568   7.702   0.628   5.773  2.4957 -1.1890 -1.4643
   26MOL    H1910569   7.697   0.497   5.501  0.2869  0.1408 -0.2350
   26MOL    H2010570   0.083   0.451   5.623  2.0228  0.1242  0.2138
   26MOL    H2110571   0.112   0.608   5.540 -1.4074  1.5197  0.8197
   26MOL    H2210572   7.397   0.778   5.116  0.1718 -1.7614 -0.6116
   26MOL    C2310573   7.241   0.765   5.356 -0.3371 -0.0974  0.1394
   26MOL    C2410574   7.138   0.756   5.246  0.3226 -0.7922 -0.4288
   26MOL    C2510575   7.042   0.877   5.244 -0.3885 -0.1627 -0.4083
   26MOL    C2610576   6.993   0.900   5.099  0.1957 -0.5382  0.5088
   26MOL    C2710577   6.914   1.031   5.083 -0.9033  0.9098 -0.5908
   26MOL    C2810578   6.835   1.033   4.958  0.1101  0.6182  0.4221
   26MOL    C2910579   6.754   1.162   4.933 -0.2384  0.0885  0.2840
   26MOL    H3010580   7.263   0.662   5.383  1.3444 -0.0354 -0.9120
   26MOL    H3110581   7.188   0.810   5.440  2.2401 -0.6911  2.1783
   26MOL    H3210582   7.180   0.755   5.146 -2.0104  0.3378 -1.4604
   26MOL    H3310583   7.089   0.962   5.292  1.5956 -1.3174 -0.2474
   26MOL    H3410584   6.965   0.846   5.315  0.1587 -1.4305 -0.3455
   26MOL    H3510585   6.938   0.813   5.063  0.6201 -1.1167  1.2370
   26MOL    H3610586   7.080   0.908   5.034  0.4043  0.9433  0.9592
   26MOL    H3710587   6.982   1.116   5.081 -2.3144  2.1449  1.6124
   26MOL    H3810588   6.843   1.037   5.165  1.8952  0.6647  1.9392
   26MOL    H3910589   6.767   0.947   4.958  0.7670  0.0952  0.0115
   26MOL    H4010590   6.911   1.014   4.883  0.7294 -2.5620  1.7662
   26MOL    H4110591   6.804   1.249   4.975 -1.5725  0.5419  0.9573
   26MOL    H4210592   6.733   1.173   4.826  0.6667  0.5901  0.1514
   26MOL    H4310593   6.668   1.148   4.998  2.1038 -2.3182  3.0036
   26MOL    C4410594   7.055   0.625   5.261  0.3366 -0.2335  0.0877
   26MOL    C4510595   7.130   0.490   5.211  0.0149  0.0536 -0.6718
   26MOL    C4610596   7.085   0.366   5.293 -0.2002  0.1695 -0.6886
   26MOL    C4710597   7.140   0.371   5.435  0.3321 -0.3193  0.6865
   26MOL    C4810598   7.129   0.237   5.504  0.6081 -0.2755 -0.1108
   26MOL    C4910599   7.189   0.245   5.646 -0.0596  0.1600  0.8123
   26MOL    C5010600   7.129   0.343   5.741  0.7422 -0.6780 -0.4587
   26MOL    H5110601   6.967   0.632   5.196  0.4390 -0.8338 -0.1150
   26MOL    H5210602   7.028   0.617   5.366 -0.3784  0.7772 -0.0041
   26MOL    H5310603   7.237   0.496   5.232 -0.4976 -0.3509  2.3222
   26MOL    H5410604   7.114   0.274   5.243  0.7336  0.0508  0.0517
   26MOL    H5510605   6.976   0.358   5.295 -0.3363  1.5830 -1.8489
   26MOL    H5610606   7.247   0.393   5.440  0.1654  0.4633  0.9436
   26MOL    H5710607   7.073   0.443   5.482  0.8770  1.1113 -0.6826
   26MOL    H5810608   7.188   0.161   5.453  1.6285 -0.0962  0.7551
   26MOL    H5910609   7.026   0.204   5.511  0.6404 -0.1350  1.3152
   26MOL    H6010610   7.294   0.269   5.632  0.4320 -2.4018 -0.1927
   26MOL    H6110611   7.174   0.145   5.686 -2.7703  1.2950  2.7418
   26MOL    H6210612   7.126   0.442   5.696 -0.5105  0.3437  1.7981
   26MOL    H6310613   7.178   0.357   5.838  1.0792 -0.3184 -0.6823
   26MOL    H6410614   7.025   0.322   5.766  0.7608 -1.5481 -1.0884
   26MOL    C6510615   7.119   0.472   5.056 -0.1883  0.2366 -0.1651
   26MOL    C6610616   7.224   0.376   4.991  0.2703 -0.2342 -0.2089
   26MOL    C6710617   7.371   0.441   4.982 -0.7387 -0.3319 -0.1432
   26MOL    C6810618   7.491   0.344   5.012  0.3265 -0.5147  0.0997
   26MOL    C6910619   7.622   0.399   5.076 -0.3377 -0.2869 -0.4143
   26MOL    C7010620   0.024   0.301   5.075  0.1926 -0.0091  1.0316
   26MOL    C7110621   0.149   0.361   5.143 -0.3096  0.1289 -0.3768
   26MOL    H7210622   7.020   0.430   5.037 -1.7724  4.1666 -0.9613
   26MOL    H7310623   7.119   0.568   5.004  0.9851  1.0769  1.3440
   26MOL    H7410624   7.229   0.293   5.061 -0.3686 -0.3357 -0.2772
   26MOL    H7510625   7.379   0.481   4.881  0.3359  1.2463  0.5412
   26MOL    H7610626   7.378   0.529   5.045  0.1226 -1.4734  1.3915
   26MOL    H7710627   7.450   0.272   5.082 -0.2084  1.1002  1.4789
   26MOL    H7810628   7.508   0.294   4.916  0.2190 -2.6946  1.1930
   26MOL    H7910629   7.655   0.487   5.021  2.6572 -0.1587  1.4416
   26MOL    H8010630   7.594   0.417   5.180  3.4456  0.8193  0.4865
   26MOL    H8110631   0.047   0.252   4.980 -2.2006 -0.4573  0.6659
   26MOL    H8210632   7.703   0.222   5.141 -2.2515  0.3195  0.1905
   26MOL    H8310633   0.113   0.374   5.245  1.0128 -1.4149  0.3151
   26MOL    H8410634   0.225   0.285   5.161 -0.5980  0.6516  3.4170
   26MOL    H8510635   0.173   0.454   5.091 -0.3563  0.5985  0.4245
   26MOL    C8610636   7.176   0.335   4.844  0.7639  0.2294 -0.0277
   26MOL    C8710637   7.087   0.210   4.856  0.0724 -0.0675 -0.2591
   26MOL    C8810638   6.944   0.237   4.797 -0.7669 -0.2387  0.4111
   26MOL    C8910639   6.938   0.274   4.646 -1.1408 -0.2059 -0.3541
   26MOL    C9010640   6.790   0.307   4.613 -0.0353  0.0106  0.2622
   26MOL    C9110641   6.760   0.341   4.460  0.1447 -0.0915  0.0765
   26MOL    C9210642   6.614   0.367   4.438  0.0796  0.1000 -0.0233
   26MOL    H9310643   7.124   0.426   4.811 -0.1958 -0.3471 -0.1050
   26MOL    H9410644   7.266   0.315   4.785  1.1560  1.7364  0.0250
   26MOL    H9510645   7.052   0.208   4.959  2.1749  1.6533  0.5385
   26MOL    H9610646   6.872   0.161   4.825 -0.2259 -1.4219 -1.3215
   26MOL    H9710647   6.901   0.326   4.843 -2.8453  0.2443 -2.2932
   26MOL    H9810648   7.008   0.355   4.624  1.0068 -1.6612  0.8639
   26MOL    H9910649   6.987   0.191   4.596  0.9098 -0.5613  2.1297
   26MOL   H10010650   6.757   0.395   4.667  1.6056  0.5161  0.4658
   26MOL   H10110651   6.730   0.223   4.650 -0.7109 -0.5632 -2.0242
   26MOL   H10210652   6.801   0.441   4.445  1.5316 -0.7636 -0.7796
   26MOL   H10310653   6.806   0.271   4.390 -0.7285 -0.6276  0.0319
   26MOL   H10410654   6.566   0.270   4.452  3.0864 -1.3278  0.8314
   26MOL   H10510655   6.602   0.392   4.333  0.6864  0.3454 -0.0339
   26MOL   H10610656   6.576   0.446   4.503 -1.2516 -0.2006 -0.4040
   26MOL   C10710657   7.156   0.077   4.809 -0.3073  0.3408 -0.1392
   26MOL   C10810658   7.265   0.017   4.908  0.5143  0.5359  0.5022
   26MOL   C10910659   7.202   7.691   5.043 -0.0979  0.1778  0.4927
   26MOL   C11010660   7.090   7.589   5.035  0.3879  0.4540 -0.1036
   26MOL   C11110661   7.029   7.552   5.174 -0.2987  0.1713 -0.2333
   26MOL   C11210662   6.938   7.435   5.160  0.4768  0.5844 -0.5392
   26MOL   C11310663   6.893   7.390   5.297 -0.1763 -0.0469  0.4058
   26MOL   H11410664   7.196   0.101   4.711 -1.6164  2.3081 -0.2357
   26MOL   H11510665   7.087   7.710   4.782  0.2988  0.4647 -2.1156
   26MOL   H11610666   7.338   0.097   4.924  0.7565 -0.2112  3.4890
   26MOL   H11710667   7.149   0.062   5.089  0.3492  1.1981 -0.8667
   26MOL   H11810668   7.280   7.655   5.110  1.6492 -0.0765 -1.6376
   26MOL   H11910669   7.011   7.629   4.972  0.7754  0.8086 -0.3609
   26MOL   H12010670   7.123   7.495   4.991 -2.1677  1.2041 -3.8183
   26MOL   H12110671   6.973   7.639   5.207  0.1792 -0.1049  1.3842
   26MOL   H12210672   7.110   7.538   5.246 -1.9219 -0.5575  1.4915
   26MOL   H12310673   6.858   7.459   5.090  0.2727  1.3807 -0.0437
   26MOL   H12410674   6.981   7.345   5.117 -0.6988 -0.0361 -0.4223
   26MOL   H12510675   6.820   7.310   5.292  0.5173 -0.8515  2.7213
   26MOL   H12610676   6.979   7.354   5.354  0.5145  0.5577 -0.2392
   26MOL   H12710677   6.866   7.474   5.361 -1.2878  0.4564 -0.7100
   26MOL   C12810678   7.349   7.613   4.848 -0.0998 -0.3681 -0.2647
   26MOL   C12910679   7.484   7.665   4.797 -1.2114  0.2559 -0.8912
   26MOL   C13010680   7.579   0.004   4.902 -0.1804  0.2095 -0.3477
   26MOL   C13110681   7.658   7.603   4.977  0.1665  0.7848 -0.1169
   26MOL   C13210682   0.021   7.652   5.088 -0.6160 -0.4107 -0.0571
   26MOL   C13310683   0.065   7.538   5.178 -0.6003  0.5671  0.5706
   26MOL   C13410684   0.181   7.571   5.263  0.9764  0.7642 -0.2912
   26MOL   H13510685   7.364   7.535   4.923  0.0969  0.8417  0.9536
   26MOL   H13610686   7.289   7.560   4.774  0.8148 -2.0626  0.1793
   26MOL   H13710687   7.547   7.586   4.755 -2.1089 -0.5323 -0.7637
   26MOL   H13810688   7.536   0.063   4.982 -0.3212 -0.3114 -0.0381
   26MOL   H13910689   7.640   0.081   4.855 -1.3421  0.6028 -1.2166
   26MOL   H14010690   0.013   7.556   4.905  0.2354  0.0672  0.4064
   26MOL   H14110691   7.585   7.526   5.002 -1.0076  2.2994  1.2287
   26MOL   H14210692   7.682   0.012   5.151  0.6394  1.6994 -1.4115
   26MOL   H14310693   0.102   0.006   5.061 -0.2083 -1.0196 -0.3328
   26MOL   H14410694   0.072   7.448   5.117 -0.5008  1.7216 -1.1500
   26MOL   H14510695   7.695   7.510   5.243 -0.1952  0.8498  1.2181
   26MOL   H14610696   0.191   7.490   5.335 -0.1830  1.2539  0.4263
   26MOL   H14710697   0.158   7.661   5.319 -0.1951  0.8286 -0.8628
   26MOL   H14810698   0.268   7.593   5.201  0.1326 -0.3430 -1.9082
   26MOL   C14910699   7.483   0.058   4.676 -0.2079  0.5972  0.3210
   26MOL   C15010700   7.604   0.051   4.571 -0.1021  0.0564 -0.1888
   26MOL   C15110701   7.669   0.190   4.543  0.2108  0.5951 -0.3935
   26MOL   C15210702   0.010   0.270   4.662  0.3264  0.4232  0.2417
   26MOL   C15310703   0.081   0.400   4.619  0.9792  0.4786  0.1486
   26MOL   C15410704   0.148   0.468   4.741 -0.1339  0.1603  0.5686
   26MOL   C15510705   0.237   0.587   4.711  0.7122  0.1595  0.3749
   26MOL   H15610706   7.391   0.031   4.625 -0.1767  0.4454  0.3446
   26MOL   H15710707   7.468   0.156   4.723 -0.5850  0.7851 -0.1914
   26MOL   H15810708   7.681   7.704   4.618 -0.6236  0.2124  0.9099
   26MOL   H15910709   0.030   0.182   4.464  1.1312 -3.1803  0.7560
   26MOL   H16010710   7.594   0.254   4.496 -2.1806 -2.4960 -0.9753
   26MOL   H16110711   0.078   0.212   4.725 -2.7017 -2.2778  1.1787
   26MOL   H16210712   7.649   0.304   4.733 -2.6878  0.8990 -3.0049
   26MOL   H16310713   0.003   0.463   4.577  0.1511 -1.7968 -1.8269
   26MOL   H16410714   0.152   0.383   4.539  1.4552 -0.7361  0.8079
   26MOL   H16510715   0.203   0.389   4.792 -0.4175 -0.0911  0.4894
   26MOL   H16610716   0.073   0.488   4.818 -0.3287 -0.8112  0.6496
   26MOL   H16710717   0.322   0.562   4.647  1.0718 -0.8991  1.2541
   26MOL   H16810718   0.280   0.639   4.797 -0.8659  0.5593  0.9333
   26MOL   H16910719   0.175   0.660   4.659  1.5623  0.2123 -0.5876
   26MOL   C17010720   7.570   7.690   4.440  0.8039  0.2085 -0.1650
   26MOL   C17110721   7.534   7.544   4.454 -0.2245 -0.1173  0.4423
   26MOL   C17210722   7.436   7.509   4.344 -0.3237 -0.7423  0.8796
   26MOL   C17310723   7.296   7.548   4.381 -0.0706  0.1583 -0.0257
   26MOL   C17410724   7.202   7.548   4.260  0.1487  0.2476 -0.5510
   26MOL   C17510725   7.050   7.558   4.294 -0.0009  0.3522  0.2828
   26MOL   C17610726   7.017   7.672   4.390 -0.1133  0.1573 -0.3125
   26MOL   H17710727   7.658   7.706   4.379  0.5269  1.8248 -0.1567
   26MOL   H17810728   7.482   0.025   4.397 -0.3389 -3.2538 -2.0139
   26MOL   H17910729   7.484   7.526   4.549 -1.5804  0.8279 -0.0825
   26MOL   H18010730   7.440   7.407   4.307 -2.8078 -0.2771 -0.7640
   26MOL   H18110731   7.464   7.560   4.251  0.2034  0.0305  1.4515
   26MOL   H18210732   7.302   7.645   4.430  0.5228  0.6023 -0.9601
   26MOL   H18310733   7.271   7.474   4.457 -2.0173  0.6194 -0.2023
   26MOL   H18410734   7.213   7.452   4.210 -0.6927 -0.8503  1.3133
   26MOL   H18510735   7.226   7.615   4.178  1.3112 -1.1006 -1.3335
   26MOL   H18610736   7.017   7.461   4.330 -1.3212  0.4877 -0.4958
   26MOL   H18710737   7.001   7.571   4.197  0.1934 -1.1458 -0.0241
   26MOL   H18810738   6.921   7.695   4.437  0.4082  1.2341  0.2536
   26MOL   H18910739   7.058   0.052   4.354 -1.2425  0.6416 -0.3657
   26MOL   H19010740   7.074   7.646   4.479 -1.0424  1.5346  0.7044
   26MOL   C19110741   7.659   7.457   4.457 -0.0601 -0.4513  0.0871
   26MOL   C19210742   7.652   7.311   4.491 -0.2804 -0.2385  0.4122
   26MOL   C19310743   0.058   7.231   4.435  0.2195 -0.8858 -0.6363
   26MOL   C19410744   0.198   7.286   4.474  0.4754  0.4542 -0.5160
   26MOL   C19510745   0.301   7.238   4.380 -0.2085  0.4223 -0.8091
   26MOL   C19610746   0.437   7.313   4.402  0.5507  0.4820 -0.5023
   26MOL   C19710747   0.559   7.250   4.328  0.1870 -0.4042  0.3192
   26MOL   H19810748   0.018   7.494   4.530  0.5282  0.8236 -1.1103
   26MOL   H19910749   0.006   7.467   4.367  1.6691 -0.5415  1.2237
   26MOL   H20010750   7.575   7.266   4.427 -1.1590  3.1046 -0.9625
   26MOL   H20110751   0.052   7.225   4.326 -0.0227  0.7156 -0.7241
   26MOL   H20210752   0.050   7.126   4.463  1.8090 -1.2921 -1.6527
   26MOL   H20310753   0.200   7.271   4.582  2.5550 -0.2552 -0.6440
   26MOL   H20410754   0.188   7.394   4.463  1.3261  0.7060  1.1457
   26MOL   H20510755   0.313   7.131   4.399 -0.9463  0.4363 -0.2423
   26MOL   H20610756   0.264   7.248   4.278  1.0172  1.2310 -1.1923
   26MOL   H20710757   0.452   7.306   4.510  2.9343 -0.6254 -0.8569
   26MOL   H20810758   0.435   7.420   4.381  2.8696  0.9397  1.3886
   26MOL   H20910759   0.553   7.223   4.222 -0.7109 -1.0618  0.5333
   26MOL   H21010760   0.611   7.172   4.383  1.7930 -0.7713 -1.6503
   26MOL   H21110761   0.641   7.323   4.331 -0.4351  0.2879  0.6313
   26MOL   C21210762   7.624   7.281   4.637  0.1376  0.6846 -0.1954
   26MOL   C21310763   7.508   7.183   4.663  0.3140 -0.4097 -0.9795
   26MOL   C21410764   7.525   7.111   4.800  0.5685  0.2358 -0.4244
   26MOL   C21510765   7.537   7.208   4.927 -0.1768 -0.9314  0.0323
   26MOL   C21610766   7.539   7.136   5.059 -0.7173 -0.1613  0.6811
   26MOL   C21710767   7.518   7.226   5.183 -0.0398  0.4528  0.0928
   26MOL   C21810768   7.392   7.310   5.177  0.8752 -0.5160  0.0619
   26MOL   H21910769   7.595   7.372   4.689 -1.3978 -0.5185  1.0769
   26MOL   H22010770   0.001   7.230   4.671 -1.3607 -1.6427  0.3879
   26MOL   H22110771   7.517   7.101   4.591 -0.2299 -2.7096  1.4902
   26MOL   H22210772   7.452   7.030   4.808  1.8774 -1.0593 -1.5352
   26MOL   H22310773   7.616   7.053   4.792  0.5947 -0.1737  2.2055
   26MOL   H22410774   7.447   7.269   4.919 -0.2571 -1.1787 -0.9344
   26MOL   H22510775   7.626   7.268   4.912 -0.7505  0.1671  0.9234
   26MOL   H22610776   7.461   7.061   5.066  0.4115 -1.3951  0.2524
   26MOL   H22710777   7.635   7.085   5.065 -1.1465 -0.8510  1.8908
   26MOL   H22810778   7.520   7.169   5.276 -1.0567  0.7900  0.3311
   26MOL   H22910779   7.603   7.288   5.211  1.1754 -0.6774 -1.0649
   26MOL   H23010780   7.302   7.250   5.167  1.8838 -2.1399  0.5304
   26MOL   H23110781   7.398   7.394   5.107 -0.2628 -0.3384  0.1723
   26MOL   H23210782   7.371   7.357   5.273  0.8516 -1.8258  0.7048
   26MOL   C23310783   7.369   7.255   4.647 -0.3567  0.1824  0.2043
   26MOL   C23410784   7.246   7.158   4.631 -0.3034 -0.4117  0.1460
   26MOL   C23510785   7.120   7.223   4.683 -0.4758  0.0192 -0.4439
   26MOL   C23610786   7.055   7.327   4.592 -0.0930  0.7831 -0.6453
   26MOL   C23710787   6.909   7.361   4.633 -0.9408  0.0164  0.1844
   26MOL   C23810788   6.896   7.444   4.767  0.1809 -0.4772  0.4788
   26MOL   C23910789   6.752   7.492   4.778  0.1189  0.8300  0.1347
   26MOL   H24010790   7.380   7.316   4.558 -0.8385 -1.8746 -1.2990
   26MOL   H24110791   7.361   7.318   4.736 -2.3716 -1.2944  1.1017
   26MOL   H24210792   7.267   7.079   4.703 -0.3865  0.2492  0.9072
   26MOL   H24310793   7.137   7.267   4.782  0.0603  1.0079 -0.9660
   26MOL   H24410794   7.046   7.146   4.703  0.5151 -0.6218  0.8288
   26MOL   H24510795   7.057   7.299   4.487  0.2794  0.8167 -0.6485
   26MOL   H24610796   7.108   7.422   4.600 -1.2260  1.3564  0.4084
   26MOL   H24710797   6.853   7.268   4.623 -0.6385 -0.2349  0.7782
   26MOL   H24810798   6.876   7.416   4.545 -0.6290 -0.6215 -0.3389
   26MOL   H24910799   6.932   7.382   4.849 -0.8570 -1.5452  0.1397
   26MOL   H25010800   6.964   7.527   4.750 -1.2589  0.5516 -0.3251
   26MOL   H25110801   6.724   7.518   4.880  0.3671  1.6989 -0.0154
   26MOL   H25210802   6.739   7.583   4.719 -0.2690  1.4547  1.1681
   26MOL   H25310803   6.691   7.409   4.743  1.7311 -0.2177 -0.2002
   26MOL   C25410804   7.231   7.095   4.491  0.6053  0.4696 -0.2885
   26MOL   C25510805   7.136   6.966   4.473 -0.4549 -0.1214 -0.0047
   26MOL   C25610806   7.157   6.857   4.573  0.0929 -0.1598 -0.0065
   26MOL   C25710807   7.296   6.789   4.565  0.0455  0.1370 -0.9480
   26MOL   C25810808   7.307   6.685   4.685  0.6546 -0.6137  1.0044
   26MOL   C25910809   7.442   6.617   4.680  0.9143  0.3077  0.6581
   26MOL   C26010810   7.473   6.542   4.806  0.3167  0.2376 -0.9453
   26MOL   H26110811   7.330   7.066   4.454  0.5889 -0.4422  0.3663
   26MOL   H26210812   7.202   7.171   4.418 -0.0858  2.9688  2.5118
   26MOL   H26310813   7.032   6.992   4.494 -0.5076  0.4578 -0.9422
   26MOL   H26410814   7.081   6.784   4.548  1.2226 -1.0801 -0.8320
   26MOL   H26510815   7.134   6.901   4.670 -0.7538 -1.0889  0.2193
   26MOL   H26610816   7.302   6.742   4.466  0.1626 -0.9320 -0.4351
   26MOL   H26710817   7.377   6.860   4.580 -1.4714  0.8133  5.3045
   26MOL   H26810818   7.230   6.611   4.665  0.2901  0.1747 -0.6249
   26MOL   H26910819   7.299   6.743   4.777 -2.1382  2.7914 -1.2266
   26MOL   H27010820   7.447   6.555   4.591  2.9828  0.3286  0.7397
   26MOL   H27110821   7.518   6.687   4.644  0.0307  0.1869 -1.5236
   26MOL   H27210822   7.434   6.440   4.799 -0.7481  0.5252  0.6782
   26MOL   H27310823   7.578   6.517   4.824  1.3820  2.8626 -3.0953
   26MOL   H27410824   7.420   6.586   4.890  0.3479 -3.1075  0.9443
   26MOL   C27510825   7.130   6.918   4.322 -0.1638  0.3442 -0.1517
   26MOL   C27610826   7.074   7.025   4.224 -0.5173  0.1374 -0.2587
   26MOL   C27710827   6.936   7.083   4.255  0.1550 -0.4539  0.3947
   26MOL   C27810828   6.901   7.212   4.173 -0.2405  0.0051 -0.4093
   26MOL   C27910829   6.777   7.282   4.233  0.0156  0.2133 -0.6600
   26MOL   C28010830   6.735   7.406   4.154 -0.4307  0.1847  0.3582
   26MOL   C28110831   6.636   7.351   4.046 -0.8114 -0.1195  0.7879
   26MOL   H28210832   7.071   6.827   4.311 -0.8214  0.6563  0.7790
   26MOL   H28310833   7.228   6.883   4.288 -1.0743 -3.6934  1.0679
   26MOL   H28410834   7.146   7.104   4.206 -1.7510  0.6914 -3.0201
   26MOL   H28510835   6.860   7.006   4.239  0.9261 -1.1180 -0.1094
   26MOL   H28610836   6.927   7.097   4.362  0.6466 -0.6531  0.4655
   26MOL   H28710837   6.887   7.186   4.068  1.0696  0.5038 -0.7198
   26MOL   H28810838   6.986   7.282   4.173  0.7862 -1.2173  1.4435
   26MOL   H28910839   6.801   7.305   4.337 -0.3326 -1.6393 -0.1455
   26MOL   H29010840   6.698   7.208   4.249  3.0203 -3.0077 -0.0191
   26MOL   H29110841   6.685   7.475   4.222 -2.2207  1.5083 -2.2310
   26MOL   H29210842   6.822   7.457   4.114 -1.4511  0.4073 -1.6494
   26MOL   H29310843   6.538   7.319   4.082 -0.8519 -2.3126 -1.1405
   26MOL   H29410844   6.670   7.263   3.991 -0.1395  0.2941  0.5384
   26MOL   H29510845   6.619   7.435   3.980 -0.2997  0.0116  0.8227
   26MOL   C29610846   7.070   6.971   4.079 -0.0851  0.5280  0.2479
   26MOL   C29710847   7.206   6.927   4.012  0.1802  0.9144 -0.4733
   26MOL   C29810848   7.282   7.044   3.965 -1.2006 -0.6882  0.0743
   26MOL   C29910849   7.437   7.027   3.960  0.0343  0.0069 -0.4757
   26MOL   C30010850   7.511   7.159   3.933 -0.0985 -0.1619  0.0849
   26MOL   C30110851   7.525   7.259   4.046  0.3414 -0.4331  0.1490
   26MOL   C30210852   7.626   7.376   4.019 -0.3069 -0.0363 -0.2780
   26MOL   H30310853   7.001   6.887   4.084 -0.1000  0.5881  1.0769
   26MOL   H30410854   7.032   7.038   4.002 -0.5407 -1.4761 -1.3162
   26MOL   H30510855   7.272   6.874   4.081  2.2449  1.3446 -2.0685
   26MOL   H30610856   7.236   7.086   3.876 -0.5016  0.3302  0.1771
   26MOL   H30710857   7.262   7.119   4.042  2.2808 -0.8795  1.2594
   26MOL   H30810858   7.457   6.950   3.887  1.9241 -0.3606  0.4129
   26MOL   H30910859   7.462   6.985   4.057 -1.3282  0.5852  0.1540
   26MOL   H31010860   7.462   7.204   3.847 -0.7063 -0.2368  0.3872
   26MOL   H31110861   7.614   7.137   3.907  0.3584  0.2061  1.5180
   26MOL   H31210862   7.429   7.306   4.066  0.7464  0.2777  0.4476
   26MOL   H31310863   7.548   7.212   4.142 -1.7306 -1.5310  0.1397
   26MOL   H31410864   0.015   7.339   4.006 -0.1629 -0.3454  1.5300
   26MOL   H31510865   7.602   7.422   3.923 -0.8164  2.4113  0.9810
   26MOL   H31610866   7.614   7.457   4.091 -0.3006 -1.6209  1.5555
   26MOL   C31710867   7.183   6.824   3.896  0.3411  0.5826  0.4822
   26MOL   C31810868   7.162   6.682   3.937  0.0222 -0.0903 -1.0635
   26MOL   C31910869   7.095   6.600   3.829  0.0504  0.1552 -0.4467
   26MOL   C32010870   6.960   6.638   3.760  0.6162  0.3119  0.0466
   26MOL   C32110871   6.886   6.522   3.682 -0.5296  0.4367 -0.4308
   26MOL   C32210872   6.741   6.557   3.661 -0.3150 -0.1289  0.0447
   26MOL   C32310873   6.681   6.435   3.581  0.1503  0.3436  0.3841
   26MOL   H32410874   7.269   6.830   3.829  0.3246  2.4159  0.5993
   26MOL   H32510875   7.102   6.857   3.830  0.6472  1.6537  0.6215
   26MOL   H32610876   7.103   6.684   4.029  1.4431  1.2702 -0.1485
   26MOL   H32710877   7.103   6.493   3.849  1.1948  0.2125 -0.5835
   26MOL   H32810878   7.163   6.603   3.744 -0.9418  0.1526 -1.2496
   26MOL   H32910879   6.975   6.728   3.700  2.0884 -0.0641 -0.1574
   26MOL   H33010880   6.889   6.662   3.838  0.9553 -0.3842  0.5711
   26MOL   H33110881   6.883   6.429   3.739 -0.1090  0.7818  0.1650
   26MOL   H33210882   6.935   6.505   3.586 -0.2573 -0.1082 -0.1962
   26MOL   H33310883   6.715   6.651   3.611 -0.6180 -0.9642 -1.3964
   26MOL   H33410884   6.716   6.564   3.767 -2.9519 -0.2657 -0.5525
   26MOL   H33510885   6.733   6.445   3.486  1.4134 -1.7993  0.8115
   26MOL   H33610886   6.573   6.438   3.592  0.1840  0.8021  0.6443
   26MOL   H33710887   6.720   6.350   3.638 -0.0331 -0.7488 -1.0959
   26MOL   C33810888   7.299   6.623   3.972 -0.0215  0.3634  0.3253
   26MOL   C33910889   7.292   6.498   4.058  0.2076 -0.2082  0.0693
   26MOL   C34010890   7.230   6.526   4.196 -0.5313  0.1124  0.0524
   26MOL   C34110891   7.246   6.408   4.298 -0.5308 -0.4917 -0.2249
   26MOL   C34210892   7.156   6.418   4.419  0.0080  0.2260  0.0572
   26MOL   C34310893   7.170   6.303   4.514 -0.2754 -0.2394  0.2396
   26MOL   C34410894   7.089   6.324   4.633  0.0639  0.3109  0.0945
   26MOL   H34510895   7.361   6.696   4.023  1.0675  0.6655 -1.4171
   26MOL   H34610896   7.351   6.603   3.879 -1.7889 -1.2379 -0.3698
   26MOL   H34710897   7.215   6.430   4.022 -1.2849  1.3189  0.3020
   26MOL   H34810898   7.279   6.615   4.236 -1.6556  0.4164  0.7626
   26MOL   H34910899   7.127   6.558   4.181  0.2058  2.5270 -0.0183
   26MOL   H35010900   7.348   6.413   4.336 -1.0477 -1.6825  1.3607
   26MOL   H35110901   7.237   6.312   4.246 -1.0323 -0.1415 -0.7905
   26MOL   H35210902   7.173   6.517   4.460 -2.0733  0.7098 -0.1924
   26MOL   H35310903   7.053   6.419   4.385  0.4751  0.0744 -1.4170
   26MOL   H35410904   7.141   6.210   4.466 -1.4428 -1.0617  2.4848
   26MOL   H35510905   7.273   6.289   4.548 -0.2995 -0.1856  0.3356
   26MOL   H35610906   6.982   6.319   4.611  0.4610  0.0565 -1.8224
   26MOL   H35710907   7.102   6.424   4.677 -1.4258  0.3394  0.5170
   26MOL   H35810908   7.112   6.241   4.700  0.2946 -1.6709 -2.3804
   26MOL   C35910909   7.436   6.432   4.060  0.1584 -0.3732  0.1472
   26MOL   C36010910   7.470   6.353   3.937  0.3762  0.8486  0.1568
   26MOL   C36110911   7.618   6.316   3.936  0.1381  0.3285 -0.0901
   26MOL   C36210912   0.007   6.430   3.910  0.2228  0.1234  0.3138
   26MOL   C36310913   0.150   6.368   3.883  0.3252  0.3738 -0.0257
   26MOL   C36410914   0.161   6.319   3.745  0.1443  0.3050  0.4361
   26MOL   C36510915   0.300   6.260   3.711  0.4167 -0.2712 -0.9409
   26MOL   H36610916   7.443   6.373   4.151 -1.4804 -0.6269  0.1126
   26MOL   H36710917   7.513   6.507   4.077  0.7762 -1.3253  1.6556
   26MOL   H36810918   7.471   6.417   3.848  3.0735 -1.4440 -1.5769
   26MOL   H36910919   7.641   6.263   4.028  0.1992 -0.4677 -0.5509
   26MOL   H37010920   7.639   6.240   3.861 -0.2144 -0.2704  0.4144
   26MOL   H37110921   7.683   6.486   3.824  0.4562 -2.5670 -1.5875
   26MOL   H37210922   7.710   6.499   3.994  0.0913  0.4821  0.0029
   26MOL   H37310923   0.222   6.447   3.907  0.4978  0.7414 -1.6739
   26MOL   H37410924   0.171   6.296   3.962 -2.1539 -0.8280 -0.4257
   26MOL   H37510925   0.096   6.232   3.735  1.3164 -0.9300  3.0629
   26MOL   H37610926   0.125   6.385   3.666  0.6738 -0.0415 -0.1042
   26MOL   H37710927   0.338   6.187   3.783  0.1093  0.0486 -0.4520
   26MOL   H37810928   0.301   6.219   3.610  0.7964  0.4230 -1.2191
   26MOL   H37910929   0.377   6.337   3.707  0.3128 -0.1885 -1.3368
   26MOL   C38010930   7.386   6.225   3.934  0.4054  0.4026 -0.6440
   26MOL   C38110931   7.363   6.176   3.789  0.3539  0.2345  0.5420
   26MOL   C38210932   7.344   6.022   3.792 -0.4208  0.3411  0.6649
   26MOL   C38310933   7.476   5.946   3.807  0.3439  0.9067 -0.4482
   26MOL   C38410934   7.551   5.929   3.682  0.2762 -0.3818 -0.0472
   26MOL   C38510935   7.697   5.899   3.698 -0.1349  0.9637  0.2879
   26MOL   C38610936   0.056   5.876   3.563  0.7520  0.0657 -0.2699
   26MOL   H38710937   7.433   6.148   3.996 -1.6708 -0.8730 -0.6152
   26MOL   H38810938   7.286   6.248   3.971  0.9212  1.1282  0.3248
   26MOL   H38910939   7.454   6.210   3.739  0.4094 -1.3413 -0.4793
   26MOL   H39010940   7.278   5.991   3.710 -2.4191  0.0359  2.3486
   26MOL   H39110941   7.285   5.990   3.878 -1.5388 -0.7857 -0.4911
   26MOL   H39210942   7.539   6.011   3.867  0.0233 -0.2158  1.1385
   26MOL   H39310943   7.473   5.845   3.847 -1.8704  1.3152  0.5515
   26MOL   H39410944   7.503   5.849   3.625  1.5819 -0.8179 -0.5620
   26MOL   H39510945   7.547   6.018   3.619  0.4072  0.3518  0.9728
   26MOL   H39610946   7.712   5.814   3.763 -0.8294 -0.4897 -1.4051
   26MOL   H39710947   0.024   5.992   3.739 -3.0994  1.8914  1.2716
   26MOL   H39810948   0.159   5.910   3.554  0.7586  0.3861  0.9257
   26MOL   H39910949   0.006   5.936   3.487  1.5306  1.6644  0.4505
   26MOL   H40010950   0.059   5.767   3.555  1.0737  0.2030 -2.2780
   26MOL   C40110951   7.252   6.249   3.720 -0.5472  0.3473  0.3052
   26MOL   C40210952   7.226   6.220   3.569  0.0461  0.5379 -0.1266
   26MOL   C40310953   7.155   6.336   3.496 -0.1522  0.9018 -0.6036
   26MOL   C40410954   7.133   6.322   3.344 -0.3642 -0.0966  0.7423
   26MOL   C40510955   7.268   6.336   3.278  0.7921  0.1641 -0.1563
   26MOL   C40610956   7.261   6.328   3.124  0.2993 -0.2712  0.0247
   26MOL   C40710957   7.395   6.348   3.048 -0.5602 -0.2578  0.3547
   26MOL   H40810958   7.269   6.357   3.731  2.5832 -0.0630 -0.1616
   26MOL   H40910959   7.154   6.233   3.766  0.1246 -0.7909  1.3447
   26MOL   H41010960   7.162   6.134   3.555  1.7077 -0.3447 -2.6185
   26MOL   H41110961   7.215   6.423   3.521  0.0173  0.9452 -1.1603
   26MOL   H41210962   7.052   6.339   3.532 -0.1449  0.5657 -0.5533
   26MOL   H41310963   7.057   6.382   3.293  0.2833 -0.4710 -0.6588
   26MOL   H41410964   7.110   6.221   3.310 -2.1835  0.6266 -0.2709
   26MOL   H41510965   7.302   6.435   3.309  1.8621 -0.0708 -0.5399
   26MOL   H41610966   7.340   6.257   3.298  0.0197 -0.1015  1.6063
   26MOL   H41710967   7.231   6.233   3.080 -1.8680 -0.4868  1.8850
   26MOL   H41810968   7.183   6.396   3.088 -1.5919 -1.7020  1.3373
   26MOL   H41910969   7.446   6.441   3.074 -1.8102  0.9362 -1.3591
   26MOL   H42010970   7.364   6.350   2.944 -1.1947  0.2476  0.5508
   26MOL   H42110971   7.466   6.266   3.063  0.7034  0.6913 -0.3920
   26MOL   H42210972   7.320   6.189   3.525 -0.8108 -0.8034 -1.0334
   27MOL     C110973   6.330   4.316   2.216  0.9263 -0.3139 -0.6661
   27MOL     C210974   6.423   4.206   2.155 -0.2000 -0.6563 -0.0111
   27MOL     C310975   6.568   4.254   2.172 -0.3420 -0.2691  0.1280
   27MOL     C410976   6.677   4.140   2.138  0.9482  0.5359 -0.5644
   27MOL     C510977   6.820   4.189   2.175  0.0307  0.1266 -0.5113
   27MOL     C610978   6.918   4.075   2.177  0.0188  0.4932  0.0318
   27MOL     C710979   7.068   4.091   2.222 -0.4832  0.7129  0.1568
   27MOL     H810980   6.224   4.293   2.221  0.6496  0.9665 -0.2868
   27MOL     H910981   6.341   4.410   2.161 -1.4822 -0.5649 -1.6345
   27MOL    H1010982   6.419   4.122   2.224 -0.7681 -2.2939 -1.9853
   27MOL    H1110983   6.593   4.344   2.116  0.3027  0.6303  1.8350
   27MOL    H1210984   6.582   4.281   2.276 -1.6080  0.7202  0.0473
   27MOL    H1310985   6.650   4.053   2.197 -1.2129  0.7878 -1.1430
   27MOL    H1410986   6.680   4.111   2.033  2.2412  0.0147 -0.3925
   27MOL    H1510987   6.820   4.234   2.274 -2.5730 -2.2220  0.6316
   27MOL    H1610988   6.856   4.268   2.109  1.5495 -0.3211 -0.2292
   27MOL    H1710989   6.913   4.028   2.079 -0.8459  1.6399 -0.4826
   27MOL    H1810990   6.867   4.011   2.249 -0.9040  0.4274 -0.6721
   27MOL    H1910991   7.096   4.186   2.269 -0.5007  0.1830  1.2438
   27MOL    H2010992   7.127   4.081   2.131 -0.8496 -1.1489  0.1043
   27MOL    H2110993   7.098   4.024   2.302 -1.9846 -1.7171 -1.2681
   27MOL    H2210994   6.368   4.323   2.318  0.2837 -0.2961 -0.4267
   27MOL    C2310995   6.390   4.148   2.015  0.6832  0.6576 -0.2284
   27MOL    C2410996   6.250   4.089   1.998 -0.3727  0.1551  0.0787
   27MOL    C2510997   6.200   3.980   2.101 -0.1605 -0.3888 -0.8797
   27MOL    C2610998   6.272   3.850   2.113  0.4764 -0.0559 -0.0377
   27MOL    C2710999   6.202   3.761   2.220 -0.2242 -0.1316 -0.4064
   27MOL    C2811000   6.075   3.684   2.172  0.1146 -0.1140  0.2655
   27MOL    C2911001   6.003   3.605   2.283 -0.9431 -0.6122  0.7926
   27MOL    H3011002   6.400   4.227   1.941 -1.5795  1.8570  0.6975
   27MOL    H3111003   6.453   4.060   2.001 -0.7231 -0.6337  1.2229
   27MOL    H3211004   6.182   4.174   2.006 -0.7847 -0.1920  0.2804
   27MOL    H3311005   6.095   3.961   2.081 -0.6194  0.0111  1.0922
   27MOL    H3411006   6.182   4.026   2.198  0.5297  0.0238 -0.9480
   27MOL    H3511007   6.371   3.876   2.151 -0.1290  0.0836  1.4569
   27MOL    H3611008   6.294   3.790   2.025  1.7405  0.7045 -0.2556
   27MOL    H3711009   6.175   3.813   2.311  2.2318 -0.5230  0.5879
   27MOL    H3811010   6.268   3.682   2.256  0.1816  1.2975  2.0861
   27MOL    H3911011   6.096   3.626   2.082 -0.0326  2.2337 -1.3126
   27MOL    H4011012   6.004   3.758   2.137  1.9923  3.0705  2.8323
   27MOL    H4111013   5.950   3.673   2.350 -0.5249  0.6537 -0.1485
   27MOL    H4211014   5.935   3.523   2.258 -1.4864 -0.1673  0.7961
   27MOL    H4311015   6.079   3.560   2.347  0.8900  0.5766 -0.4890
   27MOL    C4411016   6.229   4.040   1.852 -0.1782  0.8682  0.5069
   27MOL    C4511017   6.227   4.139   1.735 -0.1997  0.4718  0.3616
   27MOL    C4611018   6.227   4.058   1.608 -0.0355  0.7027  0.3856
   27MOL    C4711019   6.243   4.146   1.480 -0.7328  0.4129 -0.1187
   27MOL    C4811020   6.223   4.074   1.342  0.6038  0.3580 -0.0656
   27MOL    C4911021   6.245   4.169   1.222 -0.1031  0.2083 -0.4366
   27MOL    C5011022   6.216   4.113   1.086 -0.0794 -0.7171  0.4577
   27MOL    H5111023   6.142   3.977   1.841 -0.2532  0.8687  1.0939
   27MOL    H5211024   6.312   3.974   1.826 -1.3276  0.1160 -1.2921
   27MOL    H5311025   6.315   4.202   1.736 -0.0359  0.2825 -1.0510
   27MOL    H5411026   6.140   3.992   1.605  0.7408 -0.2633 -2.3714
   27MOL    H5511027   6.306   3.982   1.609 -1.7176 -1.1260 -0.6219
   27MOL    H5611028   6.167   4.225   1.475 -1.0971  0.0259 -0.7308
   27MOL    H5711029   6.339   4.197   1.472 -1.5758  2.0274 -0.2259
   27MOL    H5811030   6.121   4.035   1.346  0.7265 -0.1618 -1.6397
   27MOL    H5911031   6.291   3.989   1.330 -1.0285 -0.8666 -0.8734
   27MOL    H6011032   6.350   4.199   1.227 -0.4949  1.4096  0.9495
   27MOL    H6111033   6.189   4.260   1.246  0.5988  0.1202  1.6736
   27MOL    H6211034   6.248   4.178   1.006  1.1736 -1.2774  0.4876
   27MOL    H6311035   6.113   4.080   1.074 -0.0766 -1.0949  1.3789
   27MOL    H6411036   6.275   4.025   1.059  3.2989  1.2986  1.0452
   27MOL    C6511037   6.107   4.237   1.749  0.4541  0.3466 -0.3436
   27MOL    C6611038   6.150   4.378   1.809  0.2179 -0.2746 -0.2153
   27MOL    C6711039   6.029   4.451   1.879  0.1250  0.0457  0.4723
   27MOL    C6811040   5.964   4.384   2.007  0.7052  0.1885 -0.4275
   27MOL    C6911041   5.858   4.477   2.068  0.2767 -0.0266 -0.2231
   27MOL    C7011042   5.741   4.511   1.973  0.8044  0.2451  0.2345
   27MOL    C7111043   5.627   4.594   2.045  0.0651  0.5423  1.0384
   27MOL    H7211044   6.051   4.259   1.658  2.0593  0.3492 -1.3574
   27MOL    H7311045   6.021   4.203   1.807 -2.7686  0.4068 -4.7924
   27MOL    H7411046   6.225   4.354   1.884  1.3429 -0.0448 -1.2606
   27MOL    H7511047   6.056   4.552   1.911  2.5617 -0.8657  1.4807
   27MOL    H7611048   5.959   4.458   1.797  1.4476 -2.4087 -0.9421
   27MOL    H7711049   5.916   4.290   1.982  1.1784 -0.0731 -0.3556
   27MOL    H7811050   6.039   4.359   2.082  0.9212 -1.1294 -1.0802
   27MOL    H7911051   5.827   4.427   2.160 -0.6120 -0.7486 -0.8897
   27MOL    H8011052   5.903   4.570   2.100  0.9254  0.3238 -2.0665
   27MOL    H8111053   5.693   4.425   1.929  0.3808 -0.8375  2.7400
   27MOL    H8211054   5.773   4.571   1.887 -1.4059 -0.2523 -0.9774
   27MOL    H8311055   5.556   4.646   1.981 -2.7386 -1.7680  2.1242
   27MOL    H8411056   5.569   4.542   2.121 -1.4355 -0.9835 -1.1098
   27MOL    H8511057   5.663   4.672   2.112 -0.4255  0.4297  1.4333
   27MOL    C8611058   6.215   4.464   1.696 -0.7566 -0.4459 -0.4807
   27MOL    C8711059   6.319   4.567   1.747  0.9420 -0.4918 -0.5108
   27MOL    C8811060   6.452   4.497   1.780 -0.1597 -0.7133  0.4127
   27MOL    C8911061   6.552   4.487   1.665 -0.2300 -0.8272 -0.5336
   27MOL    C9011062   6.662   4.375   1.670 -0.1248 -0.1339  0.0257
   27MOL    C9111063   6.737   4.361   1.538 -0.0346  0.2703 -0.0414
   27MOL    C9211064   6.864   4.288   1.545  0.3547  0.3335  0.1910
   27MOL    H9311065   6.262   4.406   1.615  2.7737  0.6365  0.7039
   27MOL    H9411066   6.135   4.526   1.656 -1.8807 -2.3656 -1.3222
   27MOL    H9511067   6.279   4.600   1.843  0.9522  1.1451 -1.0489
   27MOL    H9611068   6.496   4.552   1.864 -0.6275 -1.4591  1.1535
   27MOL    H9711069   6.423   4.395   1.804 -1.4832 -0.0793  1.6336
   27MOL    H9811070   6.495   4.475   1.573 -0.8588  2.1574 -0.6073
   27MOL    H9911071   6.607   4.581   1.656  3.3299 -2.9278 -1.8931
   27MOL   H10011072   6.610   4.283   1.697  0.2733 -0.5947 -0.7491
   27MOL   H10111073   6.735   4.396   1.749 -1.8735 -0.4799  1.7578
   27MOL   H10211074   6.673   4.321   1.459  0.0655  1.7614 -0.9109
   27MOL   H10311075   6.762   4.462   1.506 -1.7191  1.4838  2.2994
   27MOL   H10411076   6.939   4.331   1.612  0.6533  0.1861 -0.0445
   27MOL   H10511077   6.916   4.286   1.449 -1.6978 -0.3327 -0.9203
   27MOL   H10611078   6.841   4.185   1.574  1.5474 -0.0784 -0.2783
   27MOL   C10711079   6.323   4.697   1.667  0.2093  0.3945  0.2697
   27MOL   C10811080   6.207   4.794   1.712 -0.4516 -0.4206 -0.1150
   27MOL   C10911081   6.261   4.907   1.804  0.0165 -0.2464  0.0338
   27MOL   C11011082   6.306   4.868   1.948  0.7141 -0.5368  0.4137
   27MOL   C11111083   6.318   4.985   2.047  0.4708  0.3366  0.5559
   27MOL   C11211084   6.430   5.090   2.007 -0.9848 -1.2560 -0.3841
   27MOL   C11311085   6.430   5.226   2.091  0.7236  0.1241 -0.3142
   27MOL   H11411086   6.317   4.680   1.559  0.8363  1.2576  0.1013
   27MOL   H11511087   6.417   4.751   1.675  0.5720 -0.7045  4.5003
   27MOL   H11611088   6.128   4.744   1.768 -2.3770  1.1535 -1.3584
   27MOL   H11711089   6.175   4.972   1.821 -0.0423 -0.8637  2.3166
   27MOL   H11811090   6.344   4.952   1.751 -0.2579  0.5853  0.3018
   27MOL   H11911091   6.230   4.803   1.992 -0.6869  1.2111  0.6285
   27MOL   H12011092   6.392   4.801   1.942 -0.1039 -1.6711  1.0917
   27MOL   H12111093   6.355   4.946   2.142  3.4297  3.5045  0.7582
   27MOL   H12211094   6.217   5.026   2.055  0.2605 -0.1417  0.4303
   27MOL   H12311095   6.532   5.052   2.015 -0.0275  1.3840  0.2831
   27MOL   H12411096   6.413   5.108   1.901  0.3390  2.1581 -0.0919
   27MOL   H12511097   6.522   5.235   2.148  0.4338 -1.0155  0.3403
   27MOL   H12611098   6.410   5.325   2.050  0.3095  0.6274  1.0772
   27MOL   H12711099   6.351   5.231   2.166  1.0500 -0.9383  0.1067
   27MOL   C12811100   6.146   4.866   1.590  0.1668 -0.2563 -0.5605
   27MOL   C12911101   6.050   4.783   1.504 -0.7680 -0.3905  0.2468
   27MOL   C13011102   6.040   4.849   1.358 -0.6323 -0.3314 -0.1263
   27MOL   C13111103   5.986   4.994   1.354  0.5157  0.2000 -0.0995
   27MOL   C13211104   6.014   5.072   1.227 -0.6228 -0.4955 -0.0238
   27MOL   C13311105   5.987   5.002   1.093  0.0978  0.0990  0.0563
   27MOL   C13411106   5.916   5.091   0.987  0.9616 -0.3133 -0.4545
   27MOL   H13511107   6.093   4.958   1.612  1.1180  0.7096 -2.2431
   27MOL   H13611108   6.232   4.895   1.531  0.4120 -2.0812 -1.1565
   27MOL   H13711109   6.093   4.687   1.478 -0.2904 -0.0323 -0.3167
   27MOL   H13811110   5.977   4.791   1.291 -0.4341 -1.9585  1.0814
   27MOL   H13911111   6.135   4.843   1.305  0.0624  0.6828  0.9784
   27MOL   H14011112   6.034   5.057   1.430  0.9358 -0.9506  0.6027
   27MOL   H14111113   5.879   4.998   1.370  0.5102  1.7056 -0.4403
   27MOL   H14211114   6.116   5.111   1.229  0.1468 -2.4220 -0.6113
   27MOL   H14311115   5.953   5.161   1.237  1.2039  1.0019 -1.7927
   27MOL   H14411116   5.917   4.920   1.106  0.9176 -0.5616  0.2813
   27MOL   H14511117   6.071   4.953   1.045 -0.0941  0.7911 -1.0127
   27MOL   H14611118   5.935   5.046   0.890  0.6952 -1.9928  0.2448
   27MOL   H14711119   5.966   5.187   0.983 -1.0167  0.8780  1.6715
   27MOL   H14811120   5.810   5.110   1.007  0.2177 -1.3522 -3.1521
   27MOL   C14911121   5.919   4.770   1.583  0.3498  0.2125 -0.3598
   27MOL   C15011122   5.820   4.661   1.516  0.5592 -0.5019  0.1223
   27MOL   C15111123   5.685   4.669   1.588 -0.1951 -1.1828  0.3683
   27MOL   C15211124   5.597   4.791   1.562  0.1304 -0.0615 -0.4191
   27MOL   C15311125   5.448   4.770   1.613 -0.3796 -0.6369 -0.5898
   27MOL   C15411126   5.342   4.879   1.576 -0.1505 -0.6578 -0.2044
   27MOL   C15511127   5.343   4.911   1.431  0.4399 -0.5824  0.7197
   27MOL   H15611128   5.931   4.736   1.686 -0.9373 -1.5591 -0.7728
   27MOL   H15711129   5.865   4.864   1.600 -2.2742 -0.9925 -1.7615
   27MOL   H15811130   5.790   4.702   1.419 -2.4309 -1.6273  0.5307
   27MOL   H15911131   5.617   4.585   1.570 -1.9062 -0.1029  1.6614
   27MOL   H16011132   5.706   4.649   1.693  0.4312 -2.3397  0.0307
   27MOL   H16111133   5.597   4.810   1.455 -0.8897 -1.0247 -0.6000
   27MOL   H16211134   5.633   4.887   1.598  1.2582  0.3908 -2.6931
   27MOL   H16311135   5.443   4.772   1.722  0.0743 -0.4499 -0.5719
   27MOL   H16411136   5.400   4.678   1.580 -1.3626 -0.4363  0.2302
   27MOL   H16511137   5.359   4.980   1.615  1.7136 -0.7171 -0.7947
   27MOL   H16611138   5.244   4.857   1.618  0.5620 -2.4026  0.5982
   27MOL   H16711139   5.312   4.829   1.365  1.9845 -0.3937 -0.2476
   27MOL   H16811140   5.434   4.958   1.397 -1.7912  2.6295 -1.0335
   27MOL   H16911141   5.269   4.991   1.421  0.1009 -0.9208  0.4697
   27MOL   C17011142   5.869   4.510   1.509  0.3889 -0.7560 -0.6080
   27MOL   C17111143   5.807   4.427   1.393  0.0704  0.7960 -0.2472
   27MOL   C17211144   5.880   4.476   1.267  0.1190 -0.5387 -0.7212
   27MOL   C17311145   5.828   4.428   1.134  0.6427 -0.3585  0.2646
   27MOL   C17411146   5.928   4.446   1.015  0.4539  0.3290  0.2528
   27MOL   C17511147   5.948   4.589   0.986 -0.1661 -0.3054 -0.2870
   27MOL   C17611148   6.029   4.613   0.862 -0.2491 -0.3126  0.2813
   27MOL   H17711149   5.853   4.468   1.608 -0.2602  0.8626 -0.0193
   27MOL   H17811150   5.978   4.516   1.504  0.2070  2.1767 -1.8328
   27MOL   H17911151   5.702   4.451   1.379 -0.4304 -1.1162  0.1623
   27MOL   H18011152   5.983   4.442   1.261  0.6727  0.8317  0.5831
   27MOL   H18111153   5.896   4.584   1.276  1.3922 -0.7157 -0.7170
   27MOL   H18211154   5.733   4.481   1.120  1.4660  0.6439 -1.7779
   27MOL   H18311155   5.795   4.324   1.134  3.2395 -1.1998 -0.0700
   27MOL   H18411156   5.884   4.388   0.934 -3.1041 -0.6097  2.7318
   27MOL   H18511157   6.029   4.412   1.038  1.1473  0.2365 -2.7911
   27MOL   H18611158   5.982   4.655   1.066  1.0545 -1.9257  0.5584
   27MOL   H18711159   5.852   4.630   0.955  0.0624  0.8853  0.5206
   27MOL   H18811160   6.128   4.573   0.880 -0.4706 -1.0834 -0.2229
   27MOL   H18911161   6.034   4.718   0.831  0.3045 -0.5195 -0.3196
   27MOL   H19011162   5.977   4.573   0.775 -0.0458 -0.1694  0.0941
   27MOL   C19111163   5.802   4.276   1.429 -0.0649 -0.4750  0.8858
   27MOL   C19211164   5.708   4.243   1.542  0.6467 -0.5405 -0.4183
   27MOL   C19311165   5.563   4.282   1.515  0.4467  0.1312  0.1546
   27MOL   C19411166   5.505   4.259   1.375  0.3797  0.1002 -0.2018
   27MOL   C19511167   5.382   4.346   1.347 -0.4029  0.3986 -0.8620
   27MOL   C19611168   5.321   4.319   1.211 -0.7209 -0.0928 -0.1242
   27MOL   C19711169   5.217   4.422   1.169 -0.4964 -0.0971 -0.3766
   27MOL   H19811170   5.903   4.258   1.466  0.2046 -2.5533 -0.7919
   27MOL   H19911171   5.780   4.212   1.344  2.0045  0.4424 -0.3631
   27MOL   H20011172   5.742   4.291   1.634 -1.0428  0.9683 -0.5487
   27MOL   H20111173   5.559   4.390   1.534  0.2306 -0.0991  1.4993
   27MOL   H20211174   5.496   4.233   1.586  3.2950 -0.2070  2.7535
   27MOL   H20311175   5.483   4.153   1.368  0.7997 -0.2680  3.3117
   27MOL   H20411176   5.576   4.270   1.293 -0.5877  0.1173 -1.0519
   27MOL   H20511177   5.311   4.332   1.429 -0.1049  0.5100 -0.5821
   27MOL   H20611178   5.423   4.446   1.357 -2.0923  1.0049  0.0844
   27MOL   H20711179   5.266   4.224   1.212  0.0309 -0.5455 -0.7996
   27MOL   H20811180   5.398   4.311   1.135  2.8859 -1.2154  3.4609
   27MOL   H20911181   5.162   4.382   1.083 -2.0137 -1.3902  1.1743
   27MOL   H21011182   5.284   4.506   1.147 -1.5311  1.2522  1.4718
   27MOL   H21111183   5.140   4.458   1.236  0.5317  2.1878 -0.3488
   27MOL   C21211184   5.733   4.097   1.569  0.5587  0.2951  0.2798
   27MOL   C21311185   5.644   4.025   1.676 -0.3347  0.1023  0.0669
   27MOL   C21411186   5.646   3.874   1.659 -0.3272  0.1053 -0.4063
   27MOL   C21511187   5.780   3.807   1.703 -0.1389  0.4454  0.5334
   27MOL   C21611188   5.767   3.652   1.709 -0.9240 -0.0547 -0.1379
   27MOL   C21711189   5.890   3.576   1.753 -0.0602 -0.7442 -0.3718
   27MOL   C21811190   5.868   3.430   1.788  0.5190 -0.9379  0.2601
   27MOL   H21911191   5.840   4.084   1.581  0.5028 -0.5412 -0.0639
   27MOL   H22011192   5.715   4.045   1.475 -0.4932  1.4123 -0.1500
   27MOL   H22111193   5.541   4.047   1.647 -0.1995  0.3069 -0.2491
   27MOL   H22211194   5.568   3.827   1.719 -1.7851  2.1951 -0.5794
   27MOL   H22311195   5.620   3.859   1.554 -0.2091 -1.2659 -0.2457
   27MOL   H22411196   5.792   3.846   1.804 -1.3130 -1.7985  1.5940
   27MOL   H22511197   5.868   3.836   1.646 -0.3082 -1.2631 -0.6456
   27MOL   H22611198   5.692   3.632   1.785 -0.1535  1.4645  1.0384
   27MOL   H22711199   5.727   3.612   1.615 -1.3445 -1.3011  0.5552
   27MOL   H22811200   5.961   3.601   1.673 -0.9940  1.3581 -0.5750
   27MOL   H22911201   5.930   3.624   1.842 -2.4622 -0.5648  0.6207
   27MOL   H23011202   5.788   3.421   1.861 -1.2580  0.4169 -1.5006
   27MOL   H23111203   5.962   3.390   1.827  0.9784 -0.6673 -0.5675
   27MOL   H23211204   5.846   3.364   1.704  0.4145  1.0525 -1.3048
   27MOL   C23311205   5.663   4.081   1.822  0.1948  0.1376  0.0364
   27MOL   C23411206   5.563   4.035   1.934  0.0350 -0.4552 -0.0095
   27MOL   C23511207   5.648   3.972   2.048 -0.0406  0.1909 -0.1257
   27MOL   C23611208   5.743   4.079   2.118 -0.2980  0.0532  0.0754
   27MOL   C23711209   5.829   4.031   2.238  0.4580 -0.2305 -0.1524
   27MOL   C23811210   5.933   4.132   2.278 -0.5662 -0.1090 -0.0991
   27MOL   C23911211   6.014   4.090   2.398  0.2858  0.0473  0.1671
   27MOL   H24011212   5.657   4.190   1.821  0.0407  0.1264 -1.3276
   27MOL   H24111213   5.769   4.071   1.843  0.2195  2.0275  0.9074
   27MOL   H24211214   5.521   3.949   1.882 -1.0570  1.0080 -1.6119
   27MOL   H24311215   5.699   3.887   2.003  2.4559  1.8022 -0.4562
   27MOL   H24411216   5.587   3.928   2.127 -0.0231 -0.0850 -0.2672
   27MOL   H24511217   5.688   4.163   2.160  0.4570  0.7962 -0.3973
   27MOL   H24611218   5.809   4.127   2.045 -1.3708  0.4187 -0.6564
   27MOL   H24711219   5.890   3.946   2.208  0.5292  0.2903 -1.5055
   27MOL   H24811220   5.761   4.006   2.319 -1.0849 -0.7487 -1.5755
   27MOL   H24911221   5.999   4.153   2.195  0.7200 -0.7799  0.7428
   27MOL   H25011222   5.883   4.228   2.295 -0.5284  0.0143 -0.6847
   27MOL   H25111223   6.070   3.996   2.394 -1.1490 -0.8473  0.7274
   27MOL   H25211224   6.095   4.164   2.393 -0.4518  0.8021 -0.7720
   27MOL   H25311225   5.958   4.094   2.491  1.3640 -0.1976  0.8371
   27MOL   C25411226   5.462   4.142   1.982  0.7865  0.6296 -0.4508
   27MOL   C25511227   5.343   4.170   1.879 -0.0920 -0.9171  0.0056
   27MOL   C25611228   5.318   4.323   1.879  0.1821  0.2120  0.0173
   27MOL   C25711229   5.250   4.369   2.001  0.4173  0.4746 -0.3491
   27MOL   C25811230   5.226   4.529   1.999 -0.4704  0.0644  0.1881
   27MOL   C25911231   5.144   4.595   1.885  0.3225 -0.4722  0.6777
   27MOL   C26011232   5.117   4.742   1.915  0.6073  0.3463 -0.0061
   27MOL   H26111233   5.508   4.234   2.019 -0.7656  0.7681  1.2096
   27MOL   H26211234   5.411   4.109   2.072  0.6006  0.9967 -0.4212
   27MOL   H26311235   5.371   4.141   1.778 -1.9415  0.5341 -0.9396
   27MOL   H26411236   5.275   4.370   1.790  0.9200 -0.9314 -0.9564
   27MOL   H26511237   5.415   4.372   1.880  0.4263 -0.2769  0.1780
   27MOL   H26611238   5.150   4.327   2.014  0.7921 -1.1220 -2.3231
   27MOL   H26711239   5.309   4.339   2.087 -0.8186  0.1801  0.3996
   27MOL   H26811240   5.321   4.583   1.993 -0.3163 -0.3978 -2.2315
   27MOL   H26911241   5.188   4.559   2.096 -0.2899  0.5168  0.1209
   27MOL   H27011242   5.204   4.582   1.795  0.3639  0.4594  0.5719
   27MOL   H27111243   5.055   4.536   1.864  0.5932 -0.9092  0.7298
   27MOL   H27211244   5.059   4.746   2.007  1.8498 -2.4978  0.9675
   27MOL   H27311245   5.212   4.794   1.916  0.4005  0.8215 -1.9242
   27MOL   H27411246   5.071   4.785   1.826  1.1598  0.2548 -0.3395
   27MOL   C27511247   5.219   4.092   1.917 -0.2287  0.0635  0.4917
   27MOL   C27611248   5.230   3.940   1.894  0.1214 -0.3894 -0.3179
   27MOL   C27711249   5.249   3.894   1.745 -0.5770  0.5355  0.1554
   27MOL   C27811250   5.131   3.921   1.651  0.5745  0.6221  0.6475
   27MOL   C27911251   5.132   4.053   1.581 -0.0259 -0.8897  0.2621
   27MOL   C28011252   4.994   4.092   1.526 -0.1734  0.5589 -0.1673
   27MOL   C28111253   5.014   4.183   1.405  0.1283  0.0453  0.2713
   27MOL   H28211254   5.129   4.129   1.868  0.3563 -1.3900 -1.7244
   27MOL   H28311255   5.200   4.109   2.023 -0.3660 -1.9417  0.8028
   27MOL   H28411256   5.320   3.910   1.947  0.3610  0.4879 -0.2371
   27MOL   H28511257   5.338   3.942   1.704 -1.3333  0.0059 -2.2375
   27MOL   H28611258   5.268   3.787   1.753 -0.8985  0.4432 -0.2770
   27MOL   H28711259   5.043   3.914   1.715 -0.3826 -0.5161 -0.7617
   27MOL   H28811260   5.133   3.841   1.577  1.3992  0.8929  0.3643
   27MOL   H28911261   5.208   4.048   1.504  0.1995 -1.9550  0.5454
   27MOL   H29011262   5.155   4.138   1.646  2.0936 -0.5373 -0.9438
   27MOL   H29111263   4.951   3.999   1.486  2.1124 -0.5531 -0.1119
   27MOL   H29211264   4.940   4.135   1.610  1.4690  0.9245  0.7036
   27MOL   H29311265   5.086   4.263   1.424  0.3129 -0.4062  1.5414
   27MOL   H29411266   4.930   4.248   1.381 -0.2605  0.1608  1.8886
   27MOL   H29511267   5.048   4.131   1.315 -1.7884  0.1780 -0.5532
   27MOL   C29611268   5.104   3.864   1.957 -0.3527  0.6197  0.1852
   27MOL   C29711269   5.101   3.716   1.964  0.1461  0.0876 -0.0124
   27MOL   C29811270   4.964   3.666   2.029  0.1526 -0.2042 -0.4730
   27MOL   C29911271   4.932   3.708   2.173 -0.5365 -0.4568  0.6042
   27MOL   C30011272   4.820   3.629   2.236  0.1307 -0.4998 -0.5397
   27MOL   C30111273   4.782   3.693   2.370  0.4318  0.1003 -0.5761
   27MOL   C30211274   4.687   3.814   2.373  0.2060  0.5585  0.2034
   27MOL   H30311275   5.105   3.902   2.059  1.5288  1.0974  0.0037
   27MOL   H30411276   5.014   3.914   1.922  0.3606  1.2746 -0.7067
   27MOL   H30511277   5.113   3.680   1.861  3.6408  1.5547 -0.1902
   27MOL   H30611278   4.882   3.708   1.970  0.3083  2.9520  1.4392
   27MOL   H30711279   4.956   3.558   2.033  0.3086 -0.3197 -2.4964
   27MOL   H30811280   4.898   3.812   2.166  0.1583 -0.0605  2.6115
   27MOL   H30911281   5.024   3.709   2.231 -0.5927 -0.0566  0.6867
   27MOL   H31011282   4.864   3.533   2.263  1.9210  0.2983 -0.5675
   27MOL   H31111283   4.734   3.617   2.169  1.6182 -1.3607 -2.3525
   27MOL   H31211284   4.736   3.619   2.435  0.7725  0.4038  0.0160
   27MOL   H31311285   4.878   3.713   2.418  0.7723 -0.9389 -0.8105
   27MOL   H31411286   4.595   3.815   2.315  1.0205 -0.6066 -1.1425
   27MOL   H31511287   4.671   3.839   2.478 -2.4877  0.1389 -0.0693
   27MOL   H31611288   4.754   3.889   2.333  0.3056  1.1921  1.5350
   27MOL   C31711289   5.224   3.655   2.035 -0.7214 -0.5676  0.1835
   27MOL   C31811290   5.241   3.502   2.051  0.1851  0.3023 -0.5411
   27MOL   C31911291   5.227   3.430   1.923 -0.2098  0.6675  0.1488
   27MOL   C32011292   5.347   3.444   1.823  0.2646  0.0083 -1.0264
   27MOL   C32111293   5.299   3.441   1.674  0.0766 -0.6292  0.6477
   27MOL   C32211294   5.422   3.472   1.586  0.0782 -0.5863 -0.1931
   27MOL   C32311295   5.388   3.432   1.439 -0.4915  0.1340  0.5517
   27MOL   H32411296   5.249   3.701   2.130 -0.1358 -1.0782  0.2825
   27MOL   H32511297   5.307   3.702   1.982  0.4327 -2.1342  0.5446
   27MOL   H32611298   5.155   3.476   2.113  0.5335  1.6440  0.5371
   27MOL   H32711299   5.135   3.452   1.868 -1.2523 -1.1733  1.1286
   27MOL   H32811300   5.196   3.326   1.926  0.9187  0.1462 -3.4471
   27MOL   H32911301   5.414   3.360   1.839  0.3452  0.2274 -0.1747
   27MOL   H33011302   5.400   3.538   1.843  0.2523 -0.5181  1.5962
   27MOL   H33111303   5.220   3.515   1.661 -0.0258 -0.3207  2.8456
   27MOL   H33211304   5.248   3.347   1.652 -1.4220  0.1064  0.9401
   27MOL   H33311305   5.510   3.417   1.618  1.0394  1.8905  1.5870
   27MOL   H33411306   5.463   3.573   1.595  0.1194 -0.8233  2.4438
   27MOL   H33511307   5.450   3.491   1.372 -0.0610 -0.0021  0.8336
   27MOL   H33611308   5.287   3.465   1.411  0.9337  1.4066 -3.3701
   27MOL   H33711309   5.383   3.325   1.419 -0.5423  0.5291 -1.6145
   27MOL   C33811310   5.371   3.465   2.135  0.1178 -0.0610  0.2141
   27MOL   C33911311   5.372   3.315   2.178 -1.0964 -1.1797 -0.3894
   27MOL   C34011312   5.278   3.293   2.299  0.3701  0.0342  0.4321
   27MOL   C34111313   5.242   3.149   2.315 -0.0955 -0.2250 -0.9805
   27MOL   C34211314   5.146   3.134   2.431 -0.0101  0.2333 -0.4212
   27MOL   C34311315   5.096   2.994   2.463  0.1213  0.2829 -0.2305
   27MOL   C34411316   4.981   2.998   2.571  0.4444  0.0504 -0.8564
   27MOL   H34511317   5.374   3.526   2.225 -0.9010  1.0855 -0.5189
   27MOL   H34611318   5.462   3.491   2.081  1.1793 -0.0108  1.9946
   27MOL   H34711319   5.340   3.257   2.091 -1.8299 -0.7150 -0.4376
   27MOL   H34811320   5.323   3.338   2.388 -0.2682  1.7717 -0.1049
   27MOL   H34911321   5.191   3.358   2.289 -2.4570 -3.5767  0.3559
   27MOL   H35011322   5.331   3.087   2.328  1.0560  1.2228 -1.7264
   27MOL   H35111323   5.193   3.117   2.223  1.3157 -0.5424 -1.6472
   27MOL   H35211324   5.191   3.170   2.524 -0.5835 -0.3169  0.0688
   27MOL   H35311325   5.060   3.195   2.404  0.4052  0.5523 -1.0374
   27MOL   H35411326   5.065   2.944   2.371  0.2215 -0.0067 -0.1064
   27MOL   H35511327   5.169   2.930   2.511 -1.0533 -2.8717 -2.5308
   27MOL   H35611328   5.018   2.955   2.664  0.0689  0.6536 -0.4203
   27MOL   H35711329   4.897   2.938   2.537  0.0750 -1.1571  2.0631
   27MOL   H35811330   4.942   3.096   2.600 -3.0306 -1.5867  0.2720
   27MOL   C35911331   5.512   3.269   2.221  0.0235  0.7049 -0.2001
   27MOL   C36011332   5.603   3.224   2.110 -0.2928 -0.2331  1.0318
   27MOL   C36111333   5.748   3.248   2.144  0.3637 -0.4398 -0.2286
   27MOL   C36211334   5.807   3.183   2.270 -0.6761 -0.4571 -0.4026
   27MOL   C36311335   5.947   3.218   2.308 -0.1395 -0.2289  0.0898
   27MOL   C36411336   6.017   3.108   2.396  0.3409 -0.2701 -0.6158
   27MOL   C36511337   6.137   3.178   2.461 -0.3105 -0.0857 -0.1959
   27MOL   H36611338   5.516   3.193   2.299 -0.2462 -0.9641 -1.7813
   27MOL   H36711339   5.550   3.357   2.272 -0.5703  1.2162 -0.6176
   27MOL   H36811340   5.589   3.287   2.023 -0.1610  0.3227  1.4126
   27MOL   H36911341   5.812   3.236   2.056  2.4274  2.0845  0.8699
   27MOL   H37011342   5.744   3.355   2.166 -0.4854 -0.7749  1.3116
   27MOL   H37111343   5.740   3.206   2.353  0.5953  1.8145  0.0179
   27MOL   H37211344   5.811   3.075   2.251 -2.1170 -0.5364 -0.3774
   27MOL   H37311345   6.021   3.240   2.231  0.2967 -0.8101  0.3398
   27MOL   H37411346   5.944   3.306   2.371  0.4560 -1.4004  1.7787
   27MOL   H37511347   5.948   3.073   2.473  1.3900 -4.3954 -1.4405
   27MOL   H37611348   6.029   3.015   2.341  1.0236 -0.1868 -0.6152
   27MOL   H37711349   6.111   3.260   2.527  0.9427 -1.9407  2.7114
   27MOL   H37811350   6.200   3.116   2.525 -1.6183  1.7824  3.0210
   27MOL   H37911351   6.191   3.223   2.378  0.0212 -1.9509 -1.0206
   27MOL   C38011352   5.574   3.074   2.075  0.7258  0.9524 -0.1724
   27MOL   C38111353   5.650   3.013   1.953  0.6646  0.2041  0.5796
   27MOL   C38211354   5.659   2.861   1.967  0.9903 -0.0525 -0.2276
   27MOL   C38311355   5.752   2.820   2.074 -0.4921  1.4746  0.0722
   27MOL   C38411356   5.806   2.678   2.044  0.2317 -0.3786 -0.2107
   27MOL   C38511357   5.892   2.639   2.163  0.3266  0.0764 -0.7127
   27MOL   C38611358   5.972   2.506   2.150 -0.0181 -0.1902 -0.2079
   27MOL   H38711359   5.596   3.019   2.167 -0.9281 -0.9112 -0.8735
   27MOL   H38811360   5.466   3.061   2.064  0.7920  0.5009 -0.2920
   27MOL   H38911361   5.752   3.049   1.943 -0.1007  2.4410  0.3478
   27MOL   H39011362   5.700   2.820   1.875  2.0464  1.7499 -0.5752
   27MOL   H39111363   5.564   2.814   1.992  0.3391  1.7742  0.8160
   27MOL   H39211364   5.845   2.876   2.080  0.7704 -0.4788 -0.6881
   27MOL   H39311365   5.709   2.826   2.174  0.3433  0.9431  0.4715
   27MOL   H39411366   5.733   2.597   2.039 -0.3461  0.1826 -0.8303
   27MOL   H39511367   5.861   2.674   1.950 -0.3991  0.0217 -0.5976
   27MOL   H39611368   5.830   2.626   2.252  1.3256 -0.7459 -0.1131
   27MOL   H39711369   5.960   2.722   2.182 -1.0539  0.9226  0.6403
   27MOL   H39811370   5.900   2.428   2.127  0.6601 -1.2404  1.1524
   27MOL   H39911371   6.026   2.483   2.242  0.1451 -0.4066 -0.3570
   27MOL   H40011372   6.055   2.510   2.079 -0.1676 -2.7118 -0.5387
   27MOL   C40111373   5.596   3.064   1.815  0.1987 -0.5323  0.6357
   27MOL   C40211374   5.689   3.045   1.693  0.2492 -0.7362  0.3272
   27MOL   C40311375   5.636   3.134   1.575 -0.5400 -0.1782  0.6178
   27MOL   C40411376   5.715   3.102   1.444 -0.1219  0.6115  0.0394
   27MOL   C40511377   5.697   3.184   1.319  0.3157 -0.3488 -0.9633
   27MOL   C40611378   5.736   3.330   1.328 -0.0347 -0.2722  0.5504
   27MOL   C40711379   5.891   3.337   1.345 -0.7096 -0.0693 -0.7488
   27MOL   H40811380   5.563   3.168   1.814  1.0367 -0.2675 -1.3301
   27MOL   H40911381   5.497   3.025   1.789  1.2849 -0.7622 -3.4497
   27MOL   H41011382   5.701   2.939   1.672  1.3301 -0.8880  1.6734
   27MOL   H41111383   5.647   3.238   1.605 -0.4265  1.1879 -3.8109
   27MOL   H41211384   5.531   3.122   1.552 -0.0255 -0.4898 -1.7149
   27MOL   H41311385   5.693   2.997   1.428  1.3410  0.4145 -0.7724
   27MOL   H41411386   5.821   3.100   1.470 -0.5336  0.3514  1.7585
   27MOL   H41511387   5.753   3.144   1.234 -1.1782  1.0712 -2.6814
   27MOL   H41611388   5.591   3.176   1.293 -0.1917  1.0532  0.5814
   27MOL   H41711389   5.716   3.381   1.233 -2.0150 -1.8219  0.1072
   27MOL   H41811390   5.702   3.381   1.418 -2.9891  0.5960 -0.9965
   27MOL   H41911391   5.920   3.334   1.450  0.3378  2.2301 -0.9319
   27MOL   H42011392   5.927   3.431   1.303 -0.4940  0.4976  0.6823
   27MOL   H42111393   5.949   3.252   1.309  1.7848  0.7879  1.1017
   27MOL   H42211394   5.785   3.083   1.728  1.0778 -1.1404 -1.4955
   28MOL     C111395   0.478   1.402   5.952  0.1962  0.1239 -0.1272
   28MOL     C211396   0.381   1.502   5.878  0.0347 -0.3234 -0.5198
   28MOL     C311397   0.347   1.620   5.975 -0.2663 -0.5606  0.2335
   28MOL     C411398   0.292   1.746   5.904 -0.3646  0.0561 -0.2968
   28MOL     C511399   0.403   1.821   5.822  0.1137 -0.0907  1.3361
   28MOL     C611400   0.351   1.941   5.736 -0.1275  0.0259 -0.3380
   28MOL     C711401   0.471   2.005   5.673  0.0660  0.2123  0.0572
   28MOL     H811402   0.552   1.455   6.013  1.4762 -0.8309 -0.8208
   28MOL     H911403   0.540   1.346   5.882  0.7058  1.1072 -0.4724
   28MOL    H1011404   0.432   1.542   5.790 -1.6191  3.6651  0.2214
   28MOL    H1111405   0.282   1.587   6.056 -0.1621 -0.0286  0.5391
   28MOL    H1211406   0.434   1.650   6.034 -0.4337 -1.0132  0.7121
   28MOL    H1311407   0.221   1.709   5.830  0.9667 -1.8849 -0.6475
   28MOL    H1411408   0.239   1.813   5.972 -2.3834 -4.1485  2.4353
   28MOL    H1511409   0.452   1.753   5.752  1.1077  3.9731 -2.1176
   28MOL    H1611410   0.489   1.851   5.882  0.9409 -1.1817  0.7118
   28MOL    H1711411   0.299   2.018   5.793 -1.6843 -1.0652 -0.2544
   28MOL    H1811412   0.285   1.904   5.658 -0.1842 -1.1814  0.2689
   28MOL    H1911413   0.550   1.943   5.632 -0.1136  0.1463 -0.1875
   28MOL    H2011414   0.521   2.084   5.729  1.7405  1.5066 -3.1330
   28MOL    H2111415   0.428   2.062   5.591 -1.2336  0.0965  0.6508
   28MOL    H2211416   0.431   1.325   6.013  1.7017  2.0214  3.6110
   28MOL    C2311417   0.244   1.425   5.841 -0.1992 -0.1173  0.1207
   28MOL    C2411418   0.270   1.316   5.733  0.0624  0.4510  0.3536
   28MOL    C2511419   0.318   1.374   5.599  1.0973 -0.6184  0.5398
   28MOL    C2611420   0.235   1.496   5.548  0.2505 -0.7722  0.0331
   28MOL    C2711421   0.287   1.541   5.413  0.3897 -0.3640  0.5809
   28MOL    C2811422   0.243   1.682   5.380  0.7249 -0.6339 -0.7858
   28MOL    C2911423   0.338   1.767   5.289  0.2677 -0.1733 -0.4562
   28MOL    H3011424   0.195   1.375   5.925 -1.7603 -2.9056 -2.3283
   28MOL    H3111425   0.159   1.486   5.811 -1.4555 -0.5153  2.6911
   28MOL    H3211426   0.356   1.266   5.775 -0.3996 -0.5272  0.1356
   28MOL    H3311427   0.307   1.290   5.531  0.2739  0.7349 -1.0356
   28MOL    H3411428   0.423   1.403   5.597  0.2734  2.4522 -1.9553
   28MOL    H3511429   0.240   1.574   5.624  0.8562  1.1159 -1.9047
   28MOL    H3611430   0.129   1.473   5.538  0.1742 -0.0652 -0.8572
   28MOL    H3711431   0.262   1.473   5.331  2.5571 -0.9355  0.3452
   28MOL    H3811432   0.396   1.537   5.422  0.5553 -0.3387 -1.1781
   28MOL    H3911433   0.236   1.729   5.478 -2.9296 -2.8894  0.1075
   28MOL    H4011434   0.145   1.682   5.332  0.8681  2.1076 -1.1764
   28MOL    H4111435   0.302   1.869   5.280  1.2377  0.1796 -0.3390
   28MOL    H4211436   0.438   1.765   5.333  0.2480 -1.3270 -0.4236
   28MOL    H4311437   0.340   1.725   5.189  0.5945  0.6964 -0.8178
   28MOL    C4411438   0.152   1.220   5.718 -0.4920  0.3531  0.0680
   28MOL    C4511439   0.121   1.118   5.829  0.7330  0.2640  0.4876
   28MOL    C4611440   7.689   1.043   5.801 -0.7751 -0.2686  0.2993
   28MOL    C4711441   7.560   1.124   5.797 -0.4645 -0.2487  0.4322
   28MOL    C4811442   7.536   1.197   5.930  0.4539  0.6018  0.2175
   28MOL    C4911443   7.388   1.243   5.934  0.6607 -0.3130  0.2447
   28MOL    C5011444   7.359   1.363   6.026 -0.3211 -0.1207 -0.5000
   28MOL    H5111445   0.157   1.167   5.623 -0.3247 -2.2799  1.5001
   28MOL    H5211446   0.066   1.285   5.699 -0.3096 -0.1381 -2.6263
   28MOL    H5311447   0.122   1.180   5.919  1.2151 -0.4779  1.0020
   28MOL    H5411448   7.678   0.963   5.875 -1.6307  1.0428  1.5972
   28MOL    H5511449   0.009   0.999   5.707  3.5517 -3.1892  3.0013
   28MOL    H5611450   7.573   1.200   5.720 -0.2886 -0.0418  0.6650
   28MOL    H5711451   7.474   1.065   5.764 -1.1617  1.8030 -1.5307
   28MOL    H5811452   7.619   1.267   5.940  1.6123 -0.1299 -3.6802
   28MOL    H5911453   7.556   1.126   6.011 -1.3680  0.5852  0.6628
   28MOL    H6011454   7.329   1.156   5.964  0.4565 -0.1283  0.3753
   28MOL    H6111455   7.358   1.264   5.832  0.7333  1.0727  0.5002
   28MOL    H6211456   7.415   1.374   6.120  0.3193 -0.3779 -0.8470
   28MOL    H6311457   7.258   1.348   6.063 -0.1290  2.9711  1.5078
   28MOL    H6411458   7.361   1.451   5.961 -1.7299 -0.7384 -1.3869
   28MOL    C6511459   0.234   1.023   5.846 -0.0121 -0.2630 -0.0694
   28MOL    C6611460   0.272   0.999   5.997  0.0054 -0.1173  0.2770
   28MOL    C6711461   0.387   0.904   6.002  0.3957  0.3655  0.3093
   28MOL    C6811462   0.523   0.976   6.005 -0.0101  0.1963  0.1199
   28MOL    C6911463   0.641   0.879   6.012 -0.0253  0.5964 -0.6698
   28MOL    C7011464   0.769   0.949   6.029 -0.0249 -0.1448 -0.4853
   28MOL    C7111465   0.890   0.857   6.053 -0.1908  0.3526  0.3157
   28MOL    H7211466   0.217   0.925   5.801 -0.5470 -0.7490  1.1704
   28MOL    H7311467   0.323   1.056   5.792 -1.0448 -0.7455 -2.1308
   28MOL    H7411468   0.290   1.095   6.045 -0.7855 -1.3032  3.0740
   28MOL    H7511469   0.384   0.840   6.090 -1.1422  0.4732  0.3605
   28MOL    H7611470   0.384   0.838   5.915 -2.9484  2.7546 -1.5260
   28MOL    H7711471   0.540   1.043   5.921  1.7607  1.1785  1.2394
   28MOL    H7811472   0.528   1.044   6.090  0.5382  0.2853  0.0138
   28MOL    H7911473   0.631   0.802   6.088 -3.5474  1.2941 -0.3024
   28MOL    H8011474   0.643   0.824   5.918 -2.0696 -3.7025  1.6392
   28MOL    H8111475   0.783   1.013   6.117  0.2060 -0.6840 -0.1281
   28MOL    H8211476   0.783   1.007   5.938 -2.0163  1.3119  0.0728
   28MOL    H8311477   0.986   0.907   6.035  0.8327 -1.5179  0.3782
   28MOL    H8411478   0.889   0.827   6.158  0.0857 -0.0279  0.2144
   28MOL    H8511479   0.895   0.778   5.977  1.6718  1.2903 -0.5788
   28MOL    C8611480   0.156   0.950   6.087  0.3506  0.0838  0.3794
   28MOL    C8711481   0.194   0.957   6.243  0.5747 -0.3726 -0.1276
   28MOL    C8811482   0.223   1.102   6.300 -0.4707  0.1192 -1.0079
   28MOL    C8911483   0.093   1.196   6.302 -0.3295  0.1982 -0.3969
   28MOL    C9011484   0.131   1.347   6.316 -0.2491 -0.1103 -0.0188
   28MOL    C9111485   0.190   1.391   6.453 -0.3713 -0.0580 -0.0796
   28MOL    C9211486   0.340   1.358   6.478  0.0219 -0.0679  0.4178
   28MOL    H9311487   0.076   1.023   6.071  2.3536  2.1765 -0.4654
   28MOL    H9411488   0.137   0.846   6.061  0.9158  0.2127 -0.5683
   28MOL    H9511489   0.292   0.910   6.256  0.5950 -0.1496  0.5323
   28MOL    H9611490   0.261   1.087   6.401  0.4655 -0.4734 -1.4389
   28MOL    H9711491   0.298   1.156   6.242  0.3280 -0.8329 -0.8747
   28MOL    H9811492   0.024   1.179   6.219 -0.2135  1.4742 -0.7666
   28MOL    H9911493   0.034   1.176   6.391 -0.3414  0.5306 -0.3282
   28MOL   H10011494   0.043   1.409   6.304  0.1130  0.8025  1.9888
   28MOL   H10111495   0.199   1.372   6.234 -0.2342 -0.1126 -0.0075
   28MOL   H10211496   0.167   1.498   6.456 -2.6892 -0.4757 -1.8507
   28MOL   H10311497   0.133   1.357   6.540 -1.8289  0.5393 -0.7778
   28MOL   H10411498   0.348   1.254   6.511 -0.1518 -0.3891 -0.5373
   28MOL   H10511499   0.387   1.417   6.556  0.1589 -0.6086  0.7473
   28MOL   H10611500   0.398   1.380   6.389 -1.0315  1.1552  0.0131
   28MOL   C10711501   0.083   0.889   6.325 -0.0138 -0.1547 -0.1319
   28MOL   C10811502   0.142   0.825   6.452 -0.2078 -0.2047  0.0575
   28MOL   C10911503   0.037   0.790   6.558  0.2601 -0.1176  0.2758
   28MOL   C11011504   0.075   0.754   6.703 -0.5234 -0.0676 -0.4687
   28MOL   C11111505   7.673   0.788   6.803 -0.6137  0.0034  1.1538
   28MOL   C11211506   7.705   0.723   6.933  0.6393  0.5159  0.2905
   28MOL   C11311507   0.103   0.792   7.010  0.1476 -0.0598  0.1312
   28MOL   H11411508   0.035   0.812   6.265  2.2444  0.8678 -3.3984
   28MOL   H11511509   0.018   0.964   6.371 -0.0437 -1.2456  1.6682
   28MOL   H11611510   0.199   0.901   6.505 -1.2291  0.3178  0.4114
   28MOL   H11711511   7.677   0.727   6.507 -1.7574  1.2617  1.4192
   28MOL   H11811512   7.692   0.880   6.575  0.9190  0.7973 -2.1236
   28MOL   H11911513   0.114   0.653   6.706 -2.2675 -0.7114  0.9742
   28MOL   H12011514   0.165   0.805   6.739 -1.3701 -1.0760  3.3139
   28MOL   H12111515   7.580   0.751   6.759  1.7808 -2.7853 -1.8755
   28MOL   H12211516   7.669   0.897   6.807  2.4003  0.3250 -2.0028
   28MOL   H12311517   7.618   0.724   6.999  0.0990  0.1948 -0.4109
   28MOL   H12411518   0.016   0.619   6.911 -0.4127  0.1081  0.9749
   28MOL   H12511519   0.112   0.749   7.110 -0.0382  0.3324  0.3179
   28MOL   H12611520   0.202   0.785   6.965  0.3283  0.5443  0.4195
   28MOL   H12711521   0.098   0.900   7.025 -0.6961 -0.0085 -0.5355
   28MOL   C12811522   0.241   0.704   6.419  0.4751  0.2326 -0.8384
   28MOL   C12911523   0.390   0.710   6.475  1.7113 -0.0543 -0.3481
   28MOL   C13011524   0.480   0.819   6.412  0.0420 -0.1518 -0.1729
   28MOL   C13111525   0.624   0.839   6.461 -0.4194 -0.4859  0.1984
   28MOL   C13211526   0.694   0.964   6.393 -0.6830 -0.6667  0.5862
   28MOL   C13311527   0.609   1.099   6.397 -0.5952 -0.6667 -0.1908
   28MOL   C13411528   0.689   1.211   6.328  0.1283  0.1669  0.4949
   28MOL   H13511529   0.201   0.615   6.469  1.1819 -0.0983 -0.8531
   28MOL   H13611530   0.251   0.691   6.311 -2.5279 -0.9713 -1.0304
   28MOL   H13711531   0.373   0.740   6.579 -0.0213 -2.5405  0.1243
   28MOL   H13811532   0.433   0.915   6.432  0.0783 -0.3126  0.6985
   28MOL   H13911533   0.488   0.811   6.303  0.2818  1.1085 -0.2563
   28MOL   H14011534   0.678   0.746   6.445 -0.7101 -1.3085  3.6623
   28MOL   H14111535   0.612   0.855   6.568  0.6223 -2.2571  0.6092
   28MOL   H14211536   0.707   0.930   6.291 -2.4844 -2.0963  0.7918
   28MOL   H14311537   0.789   0.990   6.439  0.9106 -1.0921 -2.3625
   28MOL   H14411538   0.585   1.132   6.498 -1.3306 -2.2627  0.1579
   28MOL   H14511539   0.513   1.090   6.346 -1.1886  0.4977  0.6979
   28MOL   H14611540   0.627   1.300   6.345  0.3261  0.4270 -0.1260
   28MOL   H14711541   0.705   1.206   6.220 -2.7689  0.7851 -0.0033
   28MOL   H14811542   0.779   1.246   6.378  0.1712 -1.5331  1.6453
   28MOL   C14911543   0.463   0.571   6.490 -0.5321  0.3367 -0.4287
   28MOL   C15011544   0.465   0.471   6.374 -0.0784  0.2673 -0.5907
   28MOL   C15111545   0.453   0.328   6.422  0.2905  0.3551  0.1392
   28MOL   C15211546   0.559   0.273   6.520 -0.7780  0.4981 -0.3886
   28MOL   C15311547   0.561   0.123   6.560 -0.2615  0.0387 -0.1102
   28MOL   C15411548   0.658   0.086   6.673 -0.7781  0.2054  0.7587
   28MOL   C15511549   0.605   0.123   6.814 -0.8520 -0.0539  0.3375
   28MOL   H15611550   0.565   0.571   6.527  0.0226 -1.5186 -1.9121
   28MOL   H15711551   0.409   0.517   6.568  0.5476 -2.2690 -1.4312
   28MOL   H15811552   0.367   0.482   6.326 -0.8041 -0.6999  0.6403
   28MOL   H15911553   0.359   0.323   6.476  1.7917  3.3886  3.2153
   28MOL   H16011554   0.450   0.260   6.336 -2.0203  1.2110 -0.4823
   28MOL   H16111555   0.556   0.333   6.611  0.0004  1.8731 -1.2506
   28MOL   H16211556   0.656   0.294   6.473  0.4682 -0.0565  1.8762
   28MOL   H16311557   0.581   0.060   6.474  1.3286  1.9597 -1.1966
   28MOL   H16411558   0.461   0.104   6.601 -1.0867  2.9860 -0.6434
   28MOL   H16511559   0.759   0.124   6.656 -0.9101 -0.1181 -0.7426
   28MOL   H16611560   0.681   7.693   6.679  1.5608  0.7059  1.5458
   28MOL   H16711561   0.596   0.231   6.825  0.9819 -0.0210  1.6229
   28MOL   H16811562   0.663   0.072   6.890  0.2782  0.6233 -0.0558
   28MOL   H16911563   0.504   0.081   6.818 -0.4671 -1.2446 -1.7295
   28MOL   C17011564   0.581   0.509   6.276 -0.5783  0.0036 -0.6768
   28MOL   C17111565   0.561   0.444   6.132  0.0503 -0.8287  0.3637
   28MOL   C17211566   0.444   0.499   6.061  0.2847 -0.4669 -0.4355
   28MOL   C17311567   0.421   0.444   5.920  0.4202 -0.2158 -0.5518
   28MOL   C17411568   0.286   0.454   5.864 -0.2216  0.0468  0.0982
   28MOL   C17511569   0.172   0.407   5.954 -0.1730 -0.2604 -0.2919
   28MOL   C17611570   0.190   0.266   6.014 -0.2937  0.3109  0.4962
   28MOL   H17711571   0.670   0.470   6.326 -0.1063  0.3301 -1.2499
   28MOL   H17811572   0.588   0.616   6.261 -1.8512  0.2843  0.6522
   28MOL   H17911573   0.529   0.340   6.126 -3.1129  0.2265 -2.2609
   28MOL   H18011574   0.451   0.607   6.052  0.3702 -0.2560  1.8553
   28MOL   H18111575   0.358   0.471   6.123 -0.6767  2.0468 -0.5695
   28MOL   H18211576   0.444   0.338   5.912 -2.1655 -0.9238  0.8849
   28MOL   H18311577   0.492   0.486   5.849 -1.4376  1.0777 -1.6750
   28MOL   H18411578   0.289   0.399   5.769 -2.1023 -0.8414  0.5144
   28MOL   H18511579   0.264   0.558   5.840  0.7286  0.4573  0.9700
   28MOL   H18611580   0.079   0.390   5.900 -0.2689 -2.3555  0.4681
   28MOL   H18711581   0.152   0.486   6.027  0.1488 -0.7530  0.3346
   28MOL   H18811582   0.210   0.176   5.956  1.5031 -0.5211  2.3275
   28MOL   H18911583   0.098   0.248   6.071 -1.7381 -2.6150 -2.5958
   28MOL   H19011584   0.275   0.272   6.082 -0.8561  1.8717  1.1052
   28MOL   C19111585   0.694   0.461   6.044 -0.3837  0.5833  0.6719
   28MOL   C19211586   0.799   0.355   6.090 -0.3170  0.7867 -0.1789
   28MOL   C19311587   0.776   0.222   6.009 -0.2210 -0.6470 -0.2098
   28MOL   C19411588   0.831   0.099   6.079  0.0103 -0.3068  0.2729
   28MOL   C19511589   0.764   7.684   6.031 -0.2267 -0.2214 -0.3509
   28MOL   C19611590   0.807   7.567   6.129  0.2700  0.4830  0.3647
   28MOL   C19711591   0.851   7.440   6.053 -0.2325  0.0300  0.5844
   28MOL   H19811592   0.732   0.559   6.069  1.9852 -0.0826 -0.2606
   28MOL   H19911593   0.674   0.465   5.937  0.4005  0.5402  0.5242
   28MOL   H20011594   0.787   0.334   6.196  1.3458  1.1260  0.0780
   28MOL   H20111595   0.811   0.238   5.907 -0.6230 -0.0922 -0.2589
   28MOL   H20211596   0.669   0.207   5.996 -0.4380  0.4967  0.2094
   28MOL   H20311597   0.801   0.122   6.182  2.5695  1.9082  0.6056
   28MOL   H20411598   0.940   0.099   6.075  0.2475  2.6154  3.8148
   28MOL   H20511599   0.656   7.682   6.015 -0.4644 -1.0600  1.2625
   28MOL   H20611600   0.811   7.672   5.933 -0.1687 -2.5694 -0.0723
   28MOL   H20711601   0.739   7.559   6.214  1.6138 -1.0153  1.3191
   28MOL   H20811602   0.889   7.592   6.196  2.7073 -0.9941 -1.9455
   28MOL   H20911603   0.945   7.456   6.001 -0.1129  1.4319  1.2186
   28MOL   H21011604   0.773   7.410   5.982  0.9474 -0.1448 -0.6429
   28MOL   H21111605   0.869   7.350   6.113  2.6264  2.2662  3.2046
   28MOL   C21211606   0.940   0.404   6.064  0.7022 -0.4630  0.6723
   28MOL   C21311607   0.998   0.469   6.195  0.1483  0.3137 -0.3716
   28MOL   C21411608   1.014   0.377   6.312  0.4591  0.1703  0.4233
   28MOL   C21511609   0.951   0.425   6.448  0.1015  0.0425  0.4043
   28MOL   C21611610   1.019   0.369   6.568  0.5241 -0.6075 -0.4894
   28MOL   C21711611   0.963   0.424   6.700 -0.1843 -0.2833 -0.5052
   28MOL   C21811612   1.000   0.351   6.825 -0.2780  0.1654  0.3032
   28MOL   H21911613   0.944   0.485   5.991  0.8364 -0.8461  0.2556
   28MOL   H22011614   1.001   0.323   6.026 -1.5047 -2.2371  0.8023
   28MOL   H22111615   0.933   0.555   6.212 -0.3519  0.1811 -1.5206
   28MOL   H22211616   0.981   0.276   6.286 -0.1060  0.3613  0.4018
   28MOL   H22311617   1.118   0.367   6.342 -0.0130 -1.1155  1.7362
   28MOL   H22411618   0.842   0.420   6.451  0.0924 -0.5998 -0.6059
   28MOL   H22511619   0.983   0.529   6.445  0.7324 -0.1835 -1.1837
   28MOL   H22611620   1.006   0.261   6.569 -1.4204 -0.4128 -1.6094
   28MOL   H22711621   1.123   0.396   6.553  0.2712 -0.3647 -1.8812
   28MOL   H22811622   1.009   0.523   6.707  2.3470 -1.4911  0.3365
   28MOL   H22911623   0.856   0.435   6.681  0.6452  3.7867 -3.6706
   28MOL   H23011624   0.933   0.266   6.836  1.5060 -1.1727  1.1056
   28MOL   H23111625   1.010   0.414   6.914  2.6589  0.0030  0.1409
   28MOL   H23211626   1.103   0.320   6.809  0.7813  4.8912 -3.1036
   28MOL   C23311627   1.139   0.535   6.160 -0.0035 -0.7857 -0.4147
   28MOL   C23411628   1.211   0.610   6.277  0.2300 -0.2464 -0.4351
   28MOL   C23511629   1.366   0.615   6.247  0.1449 -0.1064 -0.0958
   28MOL   C23611630   1.443   0.479   6.241 -0.8927  0.5283 -0.1709
   28MOL   C23711631   1.596   0.478   6.242  0.0478 -0.0142 -0.1587
   28MOL   C23811632   1.659   0.351   6.189 -0.0558 -0.2810  0.6189
   28MOL   C23911633   1.638   0.229   6.281  0.1475  0.4876 -0.3413
   28MOL   H24011634   1.132   0.602   6.074 -0.5730 -0.0425  0.2019
   28MOL   H24111635   1.197   0.454   6.116 -1.4364 -1.8808 -0.2865
   28MOL   H24211636   1.193   0.559   6.371  0.2432 -2.6411 -1.6848
   28MOL   H24311637   1.417   0.684   6.315 -0.9856 -0.1697  0.8457
   28MOL   H24411638   1.380   0.672   6.155 -4.0749 -0.6599 -1.2144
   28MOL   H24511639   1.415   0.428   6.149  2.1324  1.4219 -1.6577
   28MOL   H24611640   1.407   0.415   6.321  1.1838 -1.5213 -0.8126
   28MOL   H24711641   1.638   0.495   6.341 -1.6236  1.7189  0.3003
   28MOL   H24811642   1.622   0.567   6.183 -2.1178  1.0893  0.4868
   28MOL   H24911643   1.627   0.341   6.085  1.6590  1.2283 -0.0887
   28MOL   H25011644   1.767   0.363   6.187 -0.1550  0.7757  1.1686
   28MOL   H25111645   1.694   0.144   6.242  1.4264  0.5147  1.4007
   28MOL   H25211646   1.662   0.246   6.386 -0.2571 -1.8031  0.1379
   28MOL   H25311647   1.539   0.185   6.277  0.0946  0.6193 -0.5099
   28MOL   C25411648   1.144   0.746   6.289  0.2294  0.7383  0.0192
   28MOL   C25511649   1.189   0.841   6.405 -0.1807  0.8024  0.5054
   28MOL   C25611650   1.143   0.780   6.542 -0.4196  0.3369  0.0357
   28MOL   C25711651   1.236   0.816   6.655  0.5916  0.3128 -0.3275
   28MOL   C25811652   1.186   0.788   6.800  0.5604 -0.3727 -1.0060
   28MOL   C25911653   1.260   0.857   6.913  0.5318  0.6768  0.0681
   28MOL   C26011654   1.194   0.832   7.051  0.1471  0.0656  1.1472
   28MOL   H26111655   1.037   0.730   6.301  0.5062 -0.5532  0.8974
   28MOL   H26211656   1.158   0.785   6.189 -0.4739 -0.2369 -0.4681
   28MOL   H26311657   1.297   0.838   6.401 -0.2504  0.0647 -1.4320
   28MOL   H26411658   1.148   0.671   6.551 -0.3084  0.4256  1.0503
   28MOL   H26511659   1.039   0.806   6.561 -0.6773 -0.4858 -0.2191
   28MOL   H26611660   1.330   0.762   6.639  0.4626  0.5975 -2.1561
   28MOL   H26711661   1.260   0.922   6.646  2.8457 -0.1667 -0.3108
   28MOL   H26811662   1.200   0.681   6.817 -1.6750 -0.8391 -1.9463
   28MOL   H26911663   1.077   0.788   6.802  0.5560  1.5848  2.1348
   28MOL   H27011664   1.366   0.832   6.915 -0.2883 -3.0095  0.3123
   28MOL   H27111665   1.248   0.965   6.903  0.3253  0.8161  1.6080
   28MOL   H27211666   1.264   0.880   7.119  1.9465 -0.6821 -0.1375
   28MOL   H27311667   1.093   0.873   7.052 -0.4441 -1.2922 -0.9213
   28MOL   H27411668   1.188   0.724   7.065  0.9962  0.1533  2.2441
   28MOL   C27511669   1.138   0.991   6.394 -0.1248 -0.2419 -0.2955
   28MOL   C27611670   1.186   1.073   6.275 -0.3811  0.1939 -0.0068
   28MOL   C27711671   1.340   1.094   6.267  0.1893  0.1644 -0.1551
   28MOL   C27811672   1.415   1.008   6.173 -0.3798 -0.1489  0.9304
   28MOL   C27911673   1.564   1.020   6.196  0.1956 -0.1438 -0.0665
   28MOL   C28011674   1.650   0.909   6.134  0.2968 -0.2421  0.2792
   28MOL   C28111675   1.791   0.951   6.081  0.5693 -0.0793 -0.0822
   28MOL   H28211676   1.162   1.043   6.487  0.1241  0.3500 -0.6882
   28MOL   H28311677   1.030   0.994   6.389 -0.0767 -1.2766 -2.6062
   28MOL   H28411678   1.153   1.042   6.176 -0.7231 -0.4550  0.3005
   28MOL   H28511679   1.362   1.198   6.244 -0.2591  0.1686 -0.5648
   28MOL   H28611680   1.381   1.083   6.367  0.5394  0.0340 -0.3091
   28MOL   H28711681   1.386   1.018   6.069  1.9583  0.9787  0.3481
   28MOL   H28811682   1.375   0.909   6.196 -2.5919  0.7711  1.1307
   28MOL   H28911683   1.598   1.042   6.298 -0.3439 -1.0663  0.3160
   28MOL   H29011684   1.596   1.114   6.152 -1.6725  1.3051  1.5438
   28MOL   H29111685   1.677   0.832   6.206  0.5678 -1.7434 -1.4153
   28MOL   H29211686   1.601   0.862   6.049 -3.5002  2.5551  0.7757
   28MOL   H29311687   1.853   0.988   6.162  3.2024 -0.0951 -2.0334
   28MOL   H29411688   1.787   1.021   5.998 -0.8461 -0.2482 -0.1794
   28MOL   H29511689   1.847   0.861   6.056 -1.4833 -1.0345 -1.3890
   28MOL   C29611690   1.122   1.219   6.293 -0.0017  0.2455  0.7440
   28MOL   C29711691   1.103   1.303   6.165 -0.3548  0.5683  0.0992
   28MOL   C29811692   1.082   1.445   6.199  0.1293 -0.0384 -0.5423
   28MOL   C29911693   1.192   1.519   6.279  0.0581 -0.0328  0.2065
   28MOL   C30011694   1.178   1.674   6.293  0.3813  0.3543 -0.3597
   28MOL   C30111695   1.302   1.733   6.348 -0.8504 -0.0129  0.0893
   28MOL   C30211696   1.297   1.889   6.357 -0.1713 -0.5356  0.4534
   28MOL   H30311697   1.025   1.223   6.343 -0.8877 -0.8469 -0.8690
   28MOL   H30411698   1.190   1.277   6.356  0.2997 -0.1086  0.7509
   28MOL   H30511699   1.196   1.300   6.110 -0.3623 -0.5016  0.1322
   28MOL   H30611700   1.079   1.504   6.108  0.9963 -0.1552 -0.6492
   28MOL   H30711701   0.986   1.471   6.245 -0.9405 -1.1633 -2.0844
   28MOL   H30811702   1.281   1.494   6.222 -0.8353  0.0452 -1.2556
   28MOL   H30911703   1.209   1.480   6.380  0.9578  0.5872  0.2983
   28MOL   H31011704   1.098   1.689   6.365  0.8718 -0.0988  0.2958
   28MOL   H31111705   1.148   1.724   6.201 -0.8075 -2.2303 -1.4360
   28MOL   H31211706   1.311   1.695   6.450 -0.7357 -0.7001 -0.1763
   28MOL   H31311707   1.388   1.704   6.288 -0.0178  1.2516  0.6374
   28MOL   H31411708   1.395   1.926   6.389 -0.7756  1.5776 -0.0651
   28MOL   H31511709   1.264   1.942   6.267 -0.1627  2.5812  2.2486
   28MOL   H31611710   1.230   1.922   6.435 -0.0636  0.7359  0.0294
   28MOL   C31711711   0.989   1.253   6.076  0.0581 -0.2134  0.6644
   28MOL   C31811712   1.003   1.300   5.924  0.0239  0.5692 -0.2153
   28MOL   C31911713   1.120   1.242   5.846 -0.5669 -0.0379 -0.6233
   28MOL   C32011714   1.117   1.086   5.833  0.0609 -0.0370 -0.3457
   28MOL   C32111715   1.219   1.039   5.729 -0.2136 -0.2195 -0.1692
   28MOL   C32211716   1.248   0.888   5.737  0.1740 -0.1162 -0.2673
   28MOL   C32311717   1.135   0.784   5.703 -0.6371  0.3142 -0.2092
   28MOL   H32411718   0.895   1.287   6.121  0.8509  2.0752  0.6812
   28MOL   H32511719   0.986   1.144   6.077 -2.0970 -0.2682 -3.1699
   28MOL   H32611720   1.021   1.407   5.931  1.8296  0.6019 -3.9847
   28MOL   H32711721   1.218   1.277   5.879 -0.4923 -2.0733  1.4252
   28MOL   H32811722   1.121   1.288   5.746  1.2526  0.6235 -0.3279
   28MOL   H32911723   1.017   1.051   5.808 -0.2660 -0.7793  1.9395
   28MOL   H33011724   1.143   1.045   5.930 -2.0733 -0.2586  0.1603
   28MOL   H33111725   1.307   1.097   5.757 -0.1228 -0.4609  0.0517
   28MOL   H33211726   1.181   1.065   5.630 -1.6142  0.8598  0.6366
   28MOL   H33311727   1.294   0.863   5.833 -1.9589 -0.8879  0.5882
   28MOL   H33411728   1.316   0.871   5.653 -0.5722 -1.0789 -0.6811
   28MOL   H33511729   1.087   0.794   5.605 -1.8721  0.8281  0.4417
   28MOL   H33611730   1.044   0.781   5.763 -1.6280 -1.2047 -1.7037
   28MOL   H33711731   1.168   0.681   5.717 -0.2988  0.5865  0.9712
   28MOL   C33811732   0.869   1.280   5.847 -0.4655  0.3418  0.7792
   28MOL   C33911733   0.848   1.389   5.737  0.2349  0.5410 -0.4862
   28MOL   C34011734   0.809   1.514   5.813  0.2121 -0.0270  0.0196
   28MOL   C34111735   0.816   1.645   5.734  0.1899 -0.1936 -0.3153
   28MOL   C34211736   0.808   1.769   5.830  0.2521 -0.1841  0.2250
   28MOL   C34311737   0.823   1.906   5.766 -0.5248 -0.2646  0.0055
   28MOL   C34411738   0.845   2.019   5.871 -0.6370 -0.1419  0.0606
   28MOL   H34511739   0.780   1.275   5.910 -0.4908 -1.2632  0.6421
   28MOL   H34611740   0.864   1.189   5.786 -3.1265 -0.1643  1.6757
   28MOL   H34711741   0.944   1.402   5.687  0.8712  1.1995  0.8726
   28MOL   H34811742   0.702   1.503   5.831  0.4259 -0.0984  1.3528
   28MOL   H34911743   0.852   1.523   5.913  2.0012 -0.6251 -0.6917
   28MOL   H35011744   0.743   1.656   5.654  0.0487 -3.0810 -0.6128
   28MOL   H35111745   0.907   1.650   5.674 -0.2671  1.8505 -0.8696
   28MOL   H35211746   0.711   1.771   5.880 -1.4382 -3.5025 -2.7068
   28MOL   H35311747   0.885   1.767   5.907  0.9802 -1.0241 -0.5196
   28MOL   H35411748   0.910   1.905   5.699  0.1334  0.8461  0.8188
   28MOL   H35511749   0.738   1.928   5.701 -0.7749 -2.1790 -0.3355
   28MOL   H35611750   0.849   2.117   5.825  0.7861 -1.0698 -1.8936
   28MOL   H35711751   0.926   1.999   5.941 -0.4164 -2.2733 -0.7569
   28MOL   H35811752   0.757   2.021   5.935 -1.1852 -0.3677 -0.6800
   28MOL   C35911753   0.743   1.350   5.628 -0.0825  0.3649 -0.0796
   28MOL   C36011754   0.801   1.257   5.521  0.1723  0.0118 -0.0964
   28MOL   C36111755   0.696   1.155   5.476 -0.2101 -0.5712  0.1329
   28MOL   C36211756   0.685   1.027   5.561  0.4222  0.0054  0.2084
   28MOL   C36311757   0.559   0.959   5.516 -0.0087  0.3099 -0.3852
   28MOL   C36411758   0.526   0.839   5.602  0.2208  0.6223  0.7030
   28MOL   C36511759   0.627   0.716   5.602  0.5122 -0.2646  0.5160
   28MOL   H36611760   0.697   1.439   5.585 -1.0118  0.4210  0.9934
   28MOL   H36711761   0.666   1.291   5.677  1.4538 -1.5557  0.0794
   28MOL   H36811762   0.886   1.209   5.570  0.0940  1.1049  1.1204
   28MOL   H36911763   0.605   1.211   5.453  0.1033 -1.3867 -3.3682
   28MOL   H37011764   0.720   1.112   5.379 -4.8613 -3.8077  0.2905
   28MOL   H37111765   0.770   0.961   5.542 -0.2789 -0.4826 -1.2891
   28MOL   H37211766   0.678   1.053   5.667  0.4606  1.6642 -0.1758
   28MOL   H37311767   0.475   1.025   5.538 -0.3986 -0.8254  1.6394
   28MOL   H37411768   0.567   0.920   5.415 -1.7298 -1.7094  0.2166
   28MOL   H37511769   0.515   0.873   5.705 -0.1773 -0.2553  0.9556
   28MOL   H37611770   0.426   0.805   5.573  1.3302 -0.7620 -1.6654
   28MOL   H37711771   0.583   0.631   5.653 -1.8919  1.0605  0.7250
   28MOL   H37811772   0.650   0.689   5.499  1.9491  0.4855  0.6321
   28MOL   H37911773   0.721   0.732   5.655  1.0344  0.0070 -0.4831
   28MOL   C38011774   0.853   1.338   5.395 -0.3047  1.2562 -0.1872
   28MOL   C38111775   0.951   1.261   5.307 -0.6543 -0.0779  0.9283
   28MOL   C38211776   0.949   1.312   5.160 -0.1062  0.3563  0.7855
   28MOL   C38311777   1.057   1.263   5.072  0.0993  0.1091 -0.5929
   28MOL   C38411778   1.030   1.308   4.925  0.2311  0.5626 -0.6112
   28MOL   C38511779   1.041   1.455   4.883 -0.2359  0.0147 -0.5103
   28MOL   C38611780   1.033   1.474   4.732 -0.7587 -0.2368  0.6134
   28MOL   H38711781   0.775   1.356   5.321  0.6149  1.8406 -1.0305
   28MOL   H38811782   0.884   1.439   5.421  2.3111 -0.2060  2.6506
   28MOL   H38911783   0.926   1.155   5.306  1.7125 -0.6743 -2.2320
   28MOL   H39011784   0.954   1.421   5.168  1.2748  0.4870 -1.3581
   28MOL   H39111785   0.851   1.295   5.116 -1.1507 -1.1182  3.5883
   28MOL   H39211786   1.148   1.312   5.104  0.9495 -0.7086 -1.7168
   28MOL   H39311787   1.077   1.156   5.070 -3.0756 -0.5592  0.5527
   28MOL   H39411788   1.100   1.259   4.858  0.4555  1.4175 -1.0176
   28MOL   H39511789   0.941   1.262   4.883  0.4058 -0.4212  0.0730
   28MOL   H39611790   1.138   1.493   4.915  0.5342 -3.1111  1.0480
   28MOL   H39711791   0.972   1.516   4.941 -0.9952 -1.5730  0.2770
   28MOL   H39811792   1.133   1.497   4.696 -1.0318 -0.0010  0.0093
   28MOL   H39911793   0.972   1.559   4.704 -1.7383  0.2254  3.8477
   28MOL   H40011794   0.979   1.390   4.687 -0.0624 -0.2729 -0.1522
   28MOL   C40111795   1.087   1.248   5.365  1.0237 -0.9989 -0.1233
   28MOL   C40211796   1.158   1.384   5.378  0.5251 -0.4613 -0.1443
   28MOL   C40311797   1.291   1.360   5.450 -0.2448 -0.5438  0.1199
   28MOL   C40411798   1.357   1.490   5.497 -0.3441 -0.0051 -0.0850
   28MOL   C40511799   1.486   1.479   5.566 -0.0495  0.0895 -0.3908
   28MOL   C40611800   1.486   1.407   5.694 -0.3809  0.1200  0.0871
   28MOL   C40711801   1.604   1.436   5.793 -0.1008  0.2764  0.3404
   28MOL   H40811802   1.149   1.187   5.300  1.2869  0.0947 -0.9093
   28MOL   H40911803   1.092   1.192   5.458  0.4924 -0.5147  0.2074
   28MOL   H41011804   1.092   1.451   5.433 -0.9675 -0.9974 -1.2560
   28MOL   H41111805   1.359   1.314   5.378 -0.1514 -0.7937  0.3667
   28MOL   H41211806   1.280   1.302   5.542  1.1716 -0.4797  0.3396
   28MOL   H41311807   1.284   1.548   5.554 -1.2458 -0.9094 -0.3067
   28MOL   H41411808   1.368   1.555   5.410  0.5488  0.9727  0.7459
   28MOL   H41511809   1.551   1.429   5.494 -0.5098 -0.6581 -0.2886
   28MOL   H41611810   1.534   1.576   5.579  0.1115 -0.0344 -0.0239
   28MOL   H41711811   1.393   1.420   5.750  0.0023  0.6328  0.6094
   28MOL   H41811812   1.478   1.300   5.676  2.3244  0.1640 -1.5544
   28MOL   H41911813   1.580   1.400   5.893 -1.2065 -0.7641 -0.3041
   28MOL   H42011814   1.629   1.542   5.797 -1.5800  0.6302  0.3952
   28MOL   H42111815   1.683   1.373   5.752  0.6069  0.8603  0.7900
   28MOL   H42211816   1.156   1.442   5.286 -0.0781  0.1097  0.2267
   29MOL     C111817   4.922   7.330   3.036 -0.1264  0.2938  0.2907
   29MOL     C211818   4.817   7.224   3.027 -0.1156  0.1709  0.3663
   29MOL     C311819   4.872   7.105   3.110 -0.0605  0.7173 -0.0048
   29MOL     C411820   4.917   7.131   3.254  0.0645  0.4649 -0.0409
   29MOL     C511821   4.809   7.167   3.363  0.0573 -0.4882 -0.6724
   29MOL     C611822   4.886   7.178   3.500  0.8746  0.1183  0.2763
   29MOL     C711823   4.789   7.207   3.613  0.1820  0.4117  0.4505
   29MOL     H811824   5.020   7.303   2.996  0.4704  0.4843  1.6083
   29MOL     H911825   4.915   7.376   3.135 -1.2379 -0.5274  0.5959
   29MOL    H1011826   4.726   7.260   3.073  0.5786  3.9005 -1.0281
   29MOL    H1111827   4.799   7.024   3.110 -0.4263  1.0473 -0.7571
   29MOL    H1211828   4.956   7.052   3.064  0.2632 -0.1216  1.5253
   29MOL    H1311829   4.974   7.042   3.281  0.3825  0.0503 -1.9959
   29MOL    H1411830   4.992   7.209   3.257  2.0637 -1.4607  1.5497
   29MOL    H1511831   4.747   7.078   3.372  0.0742 -0.4685 -0.3291
   29MOL    H1611832   4.747   7.254   3.342  1.0936  0.0376 -1.6529
   29MOL    H1711833   4.963   7.256   3.501 -0.0562  1.0208  1.8206
   29MOL    H1811834   4.939   7.086   3.522 -1.0237 -1.0786 -0.1091
   29MOL    H1911835   4.720   7.291   3.600  0.0422  0.2846  0.3777
   29MOL    H2011836   4.833   7.225   3.711  0.0476 -2.2851  1.0197
   29MOL    H2111837   4.731   7.121   3.645  0.0818  0.6173  0.8279
   29MOL    H2211838   4.888   7.410   2.971  1.6719 -0.3636 -1.5227
   29MOL    C2311839   4.787   7.189   2.873 -0.1072  0.2171 -0.0580
   29MOL    C2411840   4.633   7.192   2.836 -0.4573 -0.1155 -0.1107
   29MOL    C2511841   4.577   7.337   2.840  0.6905 -0.0075 -0.3946
   29MOL    C2611842   4.588   7.417   2.705  0.2497  1.3094  0.4773
   29MOL    C2711843   4.530   7.552   2.714  0.0757  0.7479 -0.0548
   29MOL    C2811844   4.554   7.648   2.591  0.2758  0.3899  0.2512
   29MOL    C2911845   4.701   7.677   2.575  0.7697 -0.0024  0.5020
   29MOL    H3011846   4.854   7.253   2.815 -0.3118  0.5189  0.0361
   29MOL    H3111847   4.826   7.089   2.854 -0.2460 -0.3081  2.2427
   29MOL    H3211848   4.619   7.162   2.732  2.1925 -1.5048 -0.1120
   29MOL    H3311849   4.612   7.399   2.922 -2.2129  2.4072 -0.8774
   29MOL    H3411850   4.469   7.328   2.856  1.0725  0.3170  2.5809
   29MOL    H3511851   4.541   7.367   2.620  3.0967 -1.3595  0.4270
   29MOL    H3611852   4.696   7.418   2.690  0.5724  2.6685  2.8027
   29MOL    H3711853   4.573   7.597   2.804  2.8518  1.3963 -1.6310
   29MOL    H3811854   4.423   7.538   2.727 -0.3120  3.1183 -0.4476
   29MOL    H3911855   4.496   0.026   2.605 -1.1968 -0.4777  0.0186
   29MOL    H4011856   4.498   7.601   2.509  0.4855 -0.5953  0.6687
   29MOL    H4111857   4.744   7.583   2.540 -2.1088 -0.8140 -1.0428
   29MOL    H4211858   4.724   0.039   2.501 -2.6688 -0.6957 -1.3891
   29MOL    H4311859   4.735   7.707   2.674 -1.5957  1.0433  1.0519
   29MOL    C4411860   4.553   7.092   2.934 -0.1758 -0.2909 -0.2019
   29MOL    C4511861   4.413   7.051   2.877  0.2045 -0.8313  0.7675
   29MOL    C4611862   4.410   6.998   2.730  0.5823 -0.5433  1.3889
   29MOL    C4711863   4.275   6.936   2.685  0.3200 -0.4610  0.7364
   29MOL    C4811864   4.261   6.937   2.527 -0.1965  0.1318  0.1119
   29MOL    C4911865   4.127   6.917   2.468 -0.2594 -0.2379 -0.1137
   29MOL    C5011866   4.130   6.961   2.315  0.2817  0.1698 -0.6544
   29MOL    H5111867   4.553   7.115   3.041 -1.3518 -0.2946 -0.1976
   29MOL    H5211868   4.613   7.002   2.941 -1.3015 -0.9971  0.4626
   29MOL    H5311869   4.345   7.134   2.894  1.4367  0.4414 -0.2727
   29MOL    H5411870   4.487   6.922   2.717  1.0121  0.5204 -3.1163
   29MOL    H5511871   4.429   7.087   2.669 -0.7958 -1.2712 -0.1507
   29MOL    H5611872   4.264   6.833   2.717 -0.4997 -1.0003 -1.2069
   29MOL    H5711873   4.187   6.988   2.721  0.4870  0.7996 -0.6237
   29MOL    H5811874   4.335   6.867   2.489  0.7947  1.9869 -1.5140
   29MOL    H5911875   4.287   7.038   2.493 -1.4604  0.1523 -0.7993
   29MOL    H6011876   4.043   6.969   2.514  1.0028  1.2100  0.6235
   29MOL    H6111877   4.095   6.813   2.472 -3.2172  0.5912 -1.0160
   29MOL    H6211878   4.032   6.950   2.267 -0.4434  0.9674  0.6332
   29MOL    H6311879   4.210   6.912   2.260 -1.5113 -1.9686 -1.4426
   29MOL    H6411880   4.148   7.068   2.314 -1.1798  0.4256 -0.3078
   29MOL    C6511881   4.345   6.955   2.975 -0.7287 -0.0292  0.6887
   29MOL    C6611882   4.306   7.009   3.118 -0.3745 -0.5831  0.3442
   29MOL    C6711883   4.220   6.915   3.201 -0.0977  0.1060 -0.0797
   29MOL    C6811884   4.205   6.948   3.346  0.4578  0.0381 -0.2121
   29MOL    C6911885   4.103   6.871   3.423  0.3997  0.1270 -0.3377
   29MOL    C7011886   4.108   6.892   3.576  0.1489 -0.2779  0.2975
   29MOL    C7111887   4.022   6.786   3.651 -0.1982  0.5365  0.0242
   29MOL    H7211888   4.253   6.914   2.933 -0.8209  2.5611 -1.7540
   29MOL    H7311889   4.411   6.870   2.995 -2.0961 -1.6609 -1.5755
   29MOL    H7411890   4.397   7.040   3.168 -0.8316  1.9504 -0.3231
   29MOL    H7511891   4.120   6.915   3.157 -0.2461  1.3827  0.2467
   29MOL    H7611892   4.259   6.814   3.185  1.4888  0.6756  0.0977
   29MOL    H7711893   4.305   6.937   3.389  0.3077  0.5703  0.2815
   29MOL    H7811894   4.181   7.053   3.365 -0.6546 -0.2051 -0.2832
   29MOL    H7911895   4.000   6.895   3.397  0.1741 -2.7950 -2.3216
   29MOL    H8011896   4.103   6.763   3.411  1.1186  0.1922 -0.9114
   29MOL    H8111897   4.076   6.993   3.602 -1.7698 -0.5657 -0.8865
   29MOL    H8211898   4.210   6.890   3.616  0.1580 -1.8287  0.2165
   29MOL    H8311899   3.919   6.770   3.619 -0.1548  0.9572 -0.3347
   29MOL    H8411900   4.070   6.688   3.653  0.8244  0.9998 -1.1363
   29MOL    H8511901   4.014   6.830   3.751  1.5516  1.4324 -0.2057
   29MOL    C8611902   4.217   7.142   3.115 -0.4911 -0.3865  0.7277
   29MOL    C8711903   4.287   7.280   3.130 -0.8190 -0.2488  0.9176
   29MOL    C8811904   4.182   7.394   3.092 -0.0334  0.7904  0.0352
   29MOL    C8911905   4.174   7.435   2.938  0.7350  0.4702  0.0091
   29MOL    C9011906   4.092   7.350   2.840  0.0738  0.1068 -0.0314
   29MOL    C9111907   4.125   7.402   2.697  0.3784  0.2263 -0.6743
   29MOL    C9211908   4.063   7.323   2.572  0.1367  0.1952 -0.0964
   29MOL    H9311909   4.168   7.149   3.018  0.9666 -0.3012 -0.0239
   29MOL    H9411910   4.134   7.138   3.185 -1.4678  1.4655 -0.2902
   29MOL    H9511911   4.374   7.272   3.064 -1.2152  0.7930  0.2531
   29MOL    H9611912   4.080   7.366   3.118  0.5653 -0.1030  1.4501
   29MOL    H9711913   4.212   7.491   3.132  0.0843  1.4484 -1.6030
   29MOL    H9811914   4.149   7.542   2.934 -0.7013  0.1300 -0.5828
   29MOL    H9911915   4.278   7.439   2.905  0.5862  0.0733 -0.5061
   29MOL   H10011916   3.985   7.366   2.854  0.2583 -0.7885  2.5072
   29MOL   H10111917   4.112   7.244   2.852  0.3354  0.1790  0.1633
   29MOL   H10211918   4.083   7.503   2.688 -1.5928 -0.4122  1.0854
   29MOL   H10311919   4.233   7.395   2.687  0.2831 -0.6388 -1.1608
   29MOL   H10411920   3.955   7.333   2.580  0.1594 -0.4220  1.0466
   29MOL   H10511921   4.096   7.223   2.600  0.6395  0.9393  2.1276
   29MOL   H10611922   4.093   7.362   2.475 -2.0009 -1.9012 -1.6244
   29MOL   C10711923   4.333   7.309   3.274 -0.2193  0.1296  0.7748
   29MOL   C10811924   4.401   7.445   3.314 -0.1236  0.4081 -0.3214
   29MOL   C10911925   4.421   7.456   3.470  0.0614  0.1426  0.1559
   29MOL   C11011926   4.298   7.419   3.552 -0.6279 -0.4023 -0.3489
   29MOL   C11111927   4.300   7.466   3.699 -0.3706 -0.3277  0.6478
   29MOL   C11211928   4.424   7.429   3.781  0.3928 -0.3187  0.7013
   29MOL   C11311929   4.430   7.272   3.800  0.5613 -0.7154 -0.0170
   29MOL   H11411930   4.405   7.228   3.291  0.5925  0.9673  1.3248
   29MOL   H11511931   4.248   7.282   3.337 -0.9943 -0.7387 -0.5982
   29MOL   H11611932   4.324   7.520   3.298 -0.4419 -0.0110 -0.7635
   29MOL   H11711933   4.458   7.556   3.493  1.5161  0.1548 -2.1238
   29MOL   H11811934   4.497   7.383   3.499  1.2150  1.1963 -0.1909
   29MOL   H11911935   4.208   7.466   3.512 -0.0223  0.2251 -0.9799
   29MOL   H12011936   4.292   7.310   3.558 -0.9966 -0.4105 -0.8281
   29MOL   H12111937   4.214   7.428   3.753 -0.5573 -1.3289 -0.3511
   29MOL   H12211938   4.291   7.575   3.695  2.3205 -0.0982 -0.2192
   29MOL   H12311939   4.516   7.470   3.739 -1.1491  1.3338 -1.1616
   29MOL   H12411940   4.408   7.476   3.878 -0.0802 -0.1484  0.5435
   29MOL   H12511941   4.335   7.239   3.844  0.9416 -0.2360  1.2001
   29MOL   H12611942   4.459   7.222   3.708 -1.2842  0.4191 -1.2627
   29MOL   H12711943   4.510   7.241   3.866  0.1907  0.1080  0.8464
   29MOL   C12811944   4.524   7.482   3.234  0.5874  0.1525 -0.0871
   29MOL   C12911945   4.562   7.632   3.237  0.1757 -0.5226  0.4465
   29MOL   C13011946   4.461   0.002   3.148 -0.5794 -0.3686 -0.1379
   29MOL   C13111947   4.466   0.155   3.159 -0.4879  0.8485  0.1670
   29MOL   C13211948   4.340   0.221   3.117 -0.0078 -0.3262 -0.5458
   29MOL   C13311949   4.327   0.372   3.147 -0.5069 -0.3408 -0.6110
   29MOL   C13411950   4.216   0.443   3.068 -0.1728  0.1530  0.9331
   29MOL   H13511951   4.610   7.421   3.260  1.0549  0.3620 -1.1300
   29MOL   H13611952   4.513   7.458   3.128  1.3454  3.1385 -0.9011
   29MOL   H13711953   4.526   7.671   3.332 -1.0528  0.2254 -0.3162
   29MOL   H13811954   4.363   7.675   3.173 -0.2748 -3.0405 -2.9513
   29MOL   H13911955   4.481   7.684   3.046  0.0461 -4.2441  1.0881
   29MOL   H14011956   4.549   0.197   3.102  1.0880 -0.3442  1.5170
   29MOL   H14111957   4.478   0.183   3.264  0.6694  1.6135 -0.1585
   29MOL   H14211958   4.252   0.170   3.155  0.5693 -0.1285  1.0747
   29MOL   H14311959   4.335   0.196   3.011 -1.6672  0.0757 -0.5806
   29MOL   H14411960   4.423   0.423   3.146 -1.3566  1.2782 -2.1877
   29MOL   H14511961   4.298   0.369   3.252 -1.2360 -0.9639 -0.8236
   29MOL   H14611962   4.184   0.530   3.125 -2.1576  0.4642 -0.6040
   29MOL   H14711963   4.131   0.381   3.039  1.6346 -2.4157  0.9052
   29MOL   H14811964   4.256   0.477   2.972 -1.5019 -0.7207  0.0499
   29MOL   C14911965   4.707   7.658   3.213  0.6781  0.2149  0.1458
   29MOL   C15011966   4.802   7.647   3.337 -0.5444 -0.2903  0.8316
   29MOL   C15111967   4.769   0.033   3.453  0.1612 -0.3648 -0.7443
   29MOL   C15211968   4.773   0.190   3.409 -0.8139 -0.2869  0.1775
   29MOL   C15311969   4.715   0.285   3.518 -0.0600 -0.4015  0.5296
   29MOL   C15411970   4.733   0.434   3.483 -0.6233 -0.3168 -0.5869
   29MOL   C15511971   4.661   0.530   3.584 -0.5571  0.3987  0.2780
   29MOL   H15611972   4.742   7.605   3.125  0.5037 -0.8396  0.7007
   29MOL   H15711973   4.717   0.046   3.176  0.3184 -0.2195 -1.1474
   29MOL   H15811974   4.790   7.547   3.378 -0.3700 -0.7517 -0.2168
   29MOL   H15911975   4.665   0.026   3.485  0.3042 -0.5447 -0.3209
   29MOL   H16011976   4.834   0.015   3.538 -0.3407 -2.7305 -0.8405
   29MOL   H16111977   4.727   0.209   3.312  2.2013  1.9594 -0.8899
   29MOL   H16211978   4.870   0.215   3.367 -0.3584 -0.9043  0.8493
   29MOL   H16311979   4.763   0.272   3.615  0.9887 -3.5589 -0.3434
   29MOL   H16411980   4.613   0.249   3.528 -0.7891  1.0810 -1.2650
   29MOL   H16511981   4.669   0.455   3.397 -3.4756 -0.8327  1.3355
   29MOL   H16611982   4.838   0.460   3.470  0.1217 -2.4312  0.9021
   29MOL   H16711983   4.718   0.533   3.677 -0.7629  0.0196  0.4157
   29MOL   H16811984   4.559   0.503   3.608 -0.4272 -0.7896 -0.4350
   29MOL   H16911985   4.661   0.631   3.541  1.8903  0.8184  1.1553
   29MOL   C17011986   4.952   7.677   3.296 -0.3941 -0.4685  0.0028
   29MOL   C17111987   5.057   7.679   3.407 -0.3625 -0.2877  0.4029
   29MOL   C17211988   5.066   7.549   3.499 -0.2125 -0.4935 -0.3181
   29MOL   C17311989   5.152   7.570   3.630  0.3521 -0.6877 -0.0752
   29MOL   C17411990   5.129   7.456   3.725  0.2912  0.0906 -0.6121
   29MOL   C17511991   5.222   7.466   3.846 -0.4129 -0.0239  0.0457
   29MOL   C17611992   5.189   7.578   3.937  0.4542 -0.8020 -0.1689
   29MOL   H17711993   4.966   0.052   3.234  0.8334  0.1512  1.1493
   29MOL   H17811994   4.981   7.603   3.221 -0.3552  0.2303 -0.6734
   29MOL   H17911995   5.038   0.052   3.470 -0.1173  1.4107 -1.8149
   29MOL   H18011996   5.104   7.472   3.432  0.6474  0.0192 -0.4231
   29MOL   H18111997   4.965   7.517   3.525  0.0596 -0.7577  0.4348
   29MOL   H18211998   5.116   7.658   3.683  0.0208  0.6557 -2.4606
   29MOL   H18311999   5.259   7.570   3.613  0.4153 -5.1439 -0.1335
   29MOL   H18412000   5.148   7.360   3.676 -0.3879 -0.7065  0.6846
   29MOL   H18512001   5.028   7.449   3.766 -0.5573 -0.7178 -2.7694
   29MOL   H18612002   5.326   7.484   3.818 -0.3505 -0.9786 -0.3609
   29MOL   H18712003   5.227   7.367   3.891 -0.8134 -0.0248  0.0938
   29MOL   H18812004   5.228   7.670   3.894 -1.1163 -0.4097 -0.8100
   29MOL   H18912005   5.236   7.558   4.033  0.2188  0.6312  0.2553
   29MOL   H19012006   5.082   7.589   3.955  0.4104  0.6538 -1.2639
   29MOL   C19112007   5.198   7.711   3.339  0.0751  0.0010  0.4380
   29MOL   C19212008   5.210   0.135   3.265 -0.0856 -1.1989  0.0826
   29MOL   C19312009   5.168   0.260   3.350  0.0489 -0.1169 -0.1856
   29MOL   C19412010   5.264   0.272   3.473  0.5482  0.0171 -0.0225
   29MOL   C19512011   5.197   0.277   3.614 -0.0355 -0.0618  0.1630
   29MOL   C19612012   5.104   0.394   3.642  0.9061  0.2812  0.1585
   29MOL   C19712013   5.043   0.400   3.789  0.6923  0.4163  0.0661
   29MOL   H19812014   5.226   7.635   3.266  0.5684  0.1616  0.4573
   29MOL   H19912015   5.278   7.701   3.413  1.2791  1.9253 -0.5685
   29MOL   H20012016   5.145   0.137   3.177  2.0911  3.2918 -1.5856
   29MOL   H20112017   5.065   0.237   3.379 -0.8029 -1.6090 -3.9504
   29MOL   H20212018   5.158   0.354   3.296 -3.2579 -0.8931 -1.0517
   29MOL   H20312019   5.329   0.359   3.457  1.4957 -0.4214  1.2759
   29MOL   H20412020   5.332   0.187   3.476  1.5645  0.7931 -0.4251
   29MOL   H20512021   5.139   0.187   3.631  0.7509 -0.4564  0.8156
   29MOL   H20612022   5.264   0.264   3.700  1.3411 -2.4895 -1.2410
   29MOL   H20712023   5.017   0.395   3.576 -0.4667  1.8711  1.9131
   29MOL   H20812024   5.160   0.484   3.620 -0.9960  1.4073 -0.2138
   29MOL   H20912025   4.977   0.315   3.805  1.6014 -0.6612 -1.7106
   29MOL   H21012026   4.995   0.497   3.805 -0.9229 -0.5387  1.1102
   29MOL   H21112027   5.125   0.396   3.861 -1.5594  0.4992  2.7115
   29MOL   C21212028   5.343   0.150   3.196 -0.2284 -0.1431 -0.1912
   29MOL   C21312029   5.351   0.070   3.070  0.5010  0.3464  0.3242
   29MOL   C21412030   5.341   0.152   2.944  0.6220 -0.1723  0.4636
   29MOL   C21512031   5.219   0.248   2.930 -0.0859 -0.1271 -0.2528
   29MOL   C21612032   5.087   0.182   2.894  1.2398 -0.7403  0.1075
   29MOL   C21712033   4.959   0.275   2.894  0.3685  0.4158 -0.1068
   29MOL   C21812034   4.825   0.199   2.897  0.1868  0.3353 -0.0829
   29MOL   H21912035   5.419   0.133   3.272 -0.2642  2.5974  0.5314
   29MOL   H22012036   5.358   0.258   3.184 -1.8417  0.6844  4.3017
   29MOL   H22112037   5.265   0.002   3.062 -0.2942  1.4210 -0.4197
   29MOL   H22212038   5.435   0.206   2.932  1.5768 -2.1890 -1.3600
   29MOL   H22312039   5.346   0.092   2.854  3.1821  0.8979 -0.1361
   29MOL   H22412040   5.241   0.327   2.858  1.1051 -0.4893 -0.2928
   29MOL   H22512041   5.202   0.306   3.021  1.1707  1.5168 -1.0425
   29MOL   H22612042   5.088   0.120   2.805 -0.6585  1.6330 -1.6419
   29MOL   H22712043   5.065   0.107   2.970  1.0001 -0.9832 -0.1993
   29MOL   H22812044   4.967   0.340   2.981  1.9720 -0.8373  0.7267
   29MOL   H22912045   4.950   0.337   2.805 -0.6243  1.6545  0.8288
   29MOL   H23012046   4.827   0.128   2.814 -1.1643  0.1455  0.0359
   29MOL   H23112047   4.741   0.265   2.877  1.7616  2.1756 -0.6800
   29MOL   H23212048   4.823   0.149   2.994  0.7628  0.2202 -0.1296
   29MOL   C23312049   5.482   7.703   3.074 -0.4741 -0.0888  0.6582
   29MOL   C23412050   5.491   7.579   2.984  0.1869  0.0735  0.3351
   29MOL   C23512051   5.635   7.528   2.975  0.8591 -0.1303 -0.0959
   29MOL   C23612052   5.736   7.610   2.890  0.3518 -0.0729 -0.2831
   29MOL   C23712053   5.872   7.549   2.860 -0.2872  0.0910 -0.3903
   29MOL   C23812054   5.950   7.642   2.757 -0.5228 -0.0011  0.2282
   29MOL   C23912055   6.069   7.578   2.682 -0.4991  0.0078 -0.6611
   29MOL   H24012056   5.484   7.665   3.177 -0.1923  1.3306  1.1884
   29MOL   H24112057   5.569   0.054   3.066 -1.0786  0.6436 -0.0108
   29MOL   H24212058   5.458   7.605   2.884 -1.2709 -0.6875  0.6143
   29MOL   H24312059   5.627   7.432   2.924  0.6786  0.3037 -0.8891
   29MOL   H24412060   5.683   7.504   3.069 -2.5641  0.5824  1.9368
   29MOL   H24512061   5.759   0.001   2.912  0.8321 -0.5785  1.7861
   29MOL   H24612062   5.687   7.625   2.794  0.3962  0.4845 -0.2243
   29MOL   H24712063   5.863   7.449   2.818 -0.6828  0.0853 -0.2936
   29MOL   H24812064   5.925   7.540   2.955  0.7885  0.7933 -0.9107
   29MOL   H24912065   5.880   7.679   2.682  1.4890  0.1884 -1.6144
   29MOL   H25012066   5.982   0.015   2.815 -0.9038  0.1935  0.1482
   29MOL   H25112067   6.056   7.475   2.648  1.1424 -0.4743  0.1115
   29MOL   H25212068   6.093   7.652   2.605  1.5290  1.9376  1.7315
   29MOL   H25312069   6.153   7.572   2.751 -1.2527 -2.7116  0.0707
   29MOL   C25412070   5.404   7.465   3.031  0.9224 -0.3977  0.3390
   29MOL   C25512071   5.346   7.388   2.908  0.2928  0.1905 -0.2087
   29MOL   C25612072   5.236   7.475   2.844  0.3616  0.0020 -0.4522
   29MOL   C25712073   5.214   7.443   2.700 -0.6938  0.3973  0.8145
   29MOL   C25812074   5.113   7.536   2.635  0.4901 -0.0232  0.2712
   29MOL   C25912075   5.086   7.492   2.484 -0.5061  0.3690 -0.3339
   29MOL   C26012076   5.009   7.367   2.469 -0.5149  0.5892  0.1641
   29MOL   H26112077   5.320   7.501   3.091  1.0552  0.8726 -0.2227
   29MOL   H26212078   5.461   7.393   3.089  1.1779 -3.6213 -3.6891
   29MOL   H26312079   5.424   7.375   2.833 -0.3804 -1.0646 -0.6921
   29MOL   H26412080   5.250   7.583   2.849 -0.1698 -0.0367  2.7905
   29MOL   H26512081   5.141   7.473   2.897 -0.4666  0.5388 -1.8704
   29MOL   H26612082   5.305   7.462   2.643 -0.7733 -1.7355 -0.0619
   29MOL   H26712083   5.175   7.342   2.691 -1.3086  0.7180 -0.2312
   29MOL   H26812084   5.153   7.638   2.639 -0.3857  0.3121  0.6887
   29MOL   H26912085   5.016   7.532   2.685  0.5895  0.0229  0.4676
   29MOL   H27012086   5.032   7.580   2.450  0.9091  1.1489 -0.6100
   29MOL   H27112087   5.171   7.495   2.415  0.7292 -0.5892  1.1065
   29MOL   H27212088   5.065   7.277   2.496 -0.4461  0.5736 -0.0269
   29MOL   H27312089   4.910   7.367   2.513 -0.9472 -2.8857 -0.6782
   29MOL   H27412090   4.991   7.348   2.364  0.3537  2.9867 -0.4646
   29MOL   C27512091   5.287   7.257   2.959 -0.4525  0.3423 -0.0861
   29MOL   C27612092   5.383   7.139   2.993 -0.0931  0.1269  0.0423
   29MOL   C27712093   5.332   7.005   2.930  0.0376  0.4622  0.0016
   29MOL   C27812094   5.330   7.008   2.776  0.2351  0.4043  0.3983
   29MOL   C27912095   5.325   6.873   2.720  0.4257  0.2545  0.8708
   29MOL   C28012096   5.349   6.871   2.574 -0.3857 -0.3637  0.1698
   29MOL   C28112097   5.359   6.732   2.510 -0.0431  0.0512  0.7117
   29MOL   H28212098   5.202   7.227   2.898 -0.2033 -1.2193  0.3136
   29MOL   H28312099   5.245   7.278   3.057  1.0209 -0.2189  0.6931
   29MOL   H28412100   5.477   7.145   2.938  0.7124 -1.7648  1.1634
   29MOL   H28512101   5.401   6.927   2.961  0.3101  0.3789 -0.8093
   29MOL   H28612102   5.233   6.978   2.967  0.3569  0.2178  0.6805
   29MOL   H28712103   5.427   7.046   2.742  0.3145 -0.8515 -0.7914
   29MOL   H28812104   5.253   7.072   2.733  0.8785  1.4646  0.8046
   29MOL   H28912105   5.226   6.832   2.739 -0.4886  2.5020  1.1775
   29MOL   H29012106   5.397   6.807   2.769  0.7149  0.4479  0.7097
   29MOL   H29112107   5.273   6.927   2.520 -0.7735  0.3516  1.4467
   29MOL   H29212108   5.449   6.915   2.573 -0.1224 -0.9466 -1.1128
   29MOL   H29312109   5.258   6.718   2.473  0.0446 -1.6851  1.0900
   29MOL   H29412110   5.388   6.651   2.578 -3.0309  0.2416  2.2726
   29MOL   H29512111   5.436   6.726   2.433 -0.5536 -0.8610  0.2691
   29MOL   C29612112   5.411   7.107   3.144  0.2389 -0.6097  0.1955
   29MOL   C29712113   5.551   7.042   3.179 -0.8562 -0.5835 -0.1211
   29MOL   C29812114   5.556   6.995   3.324 -0.2115  0.4024  0.8210
   29MOL   C29912115   5.484   6.859   3.351 -0.3542 -0.0361 -0.0372
   29MOL   C30012116   5.526   6.794   3.478  0.3063  0.2916 -0.2559
   29MOL   C30112117   5.483   6.644   3.486 -0.2627 -0.1683  0.0831
   29MOL   C30212118   5.515   6.570   3.619 -0.3306 -0.4817 -0.8037
   29MOL   H30312119   5.413   7.203   3.195 -2.1767 -0.4237  0.0252
   29MOL   H30412120   5.330   7.052   3.192 -1.9533  0.2471 -2.4035
   29MOL   H30512121   5.562   6.954   3.116  0.2642 -2.1122  2.1089
   29MOL   H30612122   5.660   6.978   3.349 -0.3203 -0.0867  0.9444
   29MOL   H30712123   5.517   7.076   3.386 -2.5688  2.4830 -3.1646
   29MOL   H30812124   5.499   6.791   3.268  1.6132 -0.1924  0.4229
   29MOL   H30912125   5.381   6.896   3.344  0.0531  1.3247  0.8755
   29MOL   H31012126   5.472   6.851   3.553 -0.9749 -2.8553  1.2801
   29MOL   H31112127   5.633   6.797   3.497  0.6838  0.1615 -2.2081
   29MOL   H31212128   5.376   6.636   3.463 -0.1097  2.0282 -1.6019
   29MOL   H31312129   5.526   6.577   3.412 -0.0762  0.1679 -0.1157
   29MOL   H31412130   5.622   6.580   3.638  0.1992 -2.7935 -2.3103
   29MOL   H31512131   5.460   6.611   3.704  0.2134  1.7510 -1.4927
   29MOL   H31612132   5.486   6.466   3.607  0.1188 -0.4777 -1.9857
   29MOL   C31712133   5.666   7.142   3.147  0.3818  0.2797  0.1425
   29MOL   C31812134   5.808   7.076   3.115  0.1654  0.4098 -0.1957
   29MOL   C31912135   5.809   6.998   2.981  0.2827  0.4399 -0.6732
   29MOL   C32012136   5.797   6.846   3.001  0.2158  0.7776  0.6600
   29MOL   C32112137   5.927   6.782   3.041 -0.4065  0.0500 -0.5345
   29MOL   C32212138   6.014   6.758   2.916 -0.0865 -0.0574  0.0850
   29MOL   C32312139   6.137   6.678   2.959 -0.0616  0.3220  0.9511
   29MOL   H32412140   5.681   7.211   3.230 -0.3725  0.4776  0.1201
   29MOL   H32512141   5.644   7.210   3.064 -0.1329 -0.1719 -0.0973
   29MOL   H32612142   5.825   7.006   3.197  0.0430 -2.1328 -2.2570
   29MOL   H32712143   5.894   7.028   2.918  1.3239 -3.4789 -1.2360
   29MOL   H32812144   5.734   7.043   2.916  0.2539  1.1994 -0.1333
   29MOL   H32912145   5.756   6.797   2.913  2.5406 -1.0599  0.5679
   29MOL   H33012146   5.721   6.826   3.077  0.6914 -1.1498  0.6423
   29MOL   H33112147   5.897   6.689   3.089  0.1323 -0.8555 -1.9201
   29MOL   H33212148   5.980   6.838   3.118  0.6012 -0.5262 -0.7883
   29MOL   H33312149   6.041   6.848   2.862  0.7731 -0.6566 -0.4945
   29MOL   H33412150   5.948   6.701   2.851 -0.7402  1.6791 -0.8075
   29MOL   H33512151   6.213   6.734   3.013  1.4264 -1.5244  0.8280
   29MOL   H33612152   6.193   6.626   2.881 -0.3894  0.9179  0.3124
   29MOL   H33712153   6.111   6.607   3.038 -0.3074 -0.3277  0.2965
   29MOL   C33812154   5.928   7.177   3.121  0.6713  0.3400 -0.1728
   29MOL   C33912155   5.957   7.250   3.253 -0.0135  0.0397 -0.3247
   29MOL   C34012156   6.043   7.381   3.221  0.7056 -0.1696 -0.4102
   29MOL   C34112157   6.176   7.356   3.134  0.8577 -0.9066  0.3668
   29MOL   C34212158   6.253   7.487   3.102 -0.0482 -0.3957  0.1412
   29MOL   C34312159   6.402   7.457   3.059  0.4610 -0.6889  0.3282
   29MOL   C34412160   6.471   7.591   3.025  0.5103  0.1886  0.4111
   29MOL   H34512161   5.911   7.260   3.053  1.7627  1.5381  1.0031
   29MOL   H34612162   6.012   7.123   3.079  1.4001  2.2431 -1.2121
   29MOL   H34712163   5.864   7.287   3.296  0.9849 -0.7151  2.6314
   29MOL   H34812164   5.982   7.455   3.171  3.2991  2.4207  0.0969
   29MOL   H34912165   6.088   7.431   3.307  1.0571 -0.2378 -0.5511
   29MOL   H35012166   6.159   7.309   3.037 -0.7307 -1.1121  0.7304
   29MOL   H35112167   6.242   7.290   3.189  1.5049  0.7057  1.5754
   29MOL   H35212168   6.204   7.555   3.033  1.9514 -1.7314 -2.6631
   29MOL   H35312169   6.247   7.542   3.196  0.4507 -1.9952  1.1196
   29MOL   H35412170   6.460   7.403   3.134  3.4142  0.2825 -1.2218
   29MOL   H35512171   6.418   7.394   2.971  0.0724 -0.9208  0.4188
   29MOL   H35612172   6.578   7.574   3.015  0.4215 -0.4042  0.4410
   29MOL   H35712173   6.458   7.678   3.090  0.8613  1.4600 -1.1938
   29MOL   H35812174   6.438   7.622   2.926  2.2043  2.3178  0.4799
   29MOL   C35912175   6.029   7.171   3.354 -0.1380  0.4996 -0.1273
   29MOL   C36012176   5.949   7.113   3.472 -0.2635 -0.3684 -0.6497
   29MOL   C36112177   6.032   7.005   3.545 -0.0213 -0.8696  0.2341
   29MOL   C36212178   6.054   6.872   3.470 -0.3757  0.0118  0.1595
   29MOL   C36312179   5.921   6.792   3.472  0.2427 -0.0103 -0.2608
   29MOL   C36412180   5.945   6.649   3.416  0.0830 -0.0651  0.2501
   29MOL   C36512181   5.815   6.568   3.391 -0.2885 -0.1130 -0.1434
   29MOL   H36612182   6.108   7.232   3.397  1.7194 -2.9541  1.5873
   29MOL   H36712183   6.094   7.094   3.312  1.3746  1.3791  0.5743
   29MOL   H36812184   5.856   7.068   3.436 -0.2990 -0.4500 -0.4572
   29MOL   H36912185   6.122   7.064   3.563 -1.0363  0.4535  1.1125
   29MOL   H37012186   6.003   6.985   3.648 -0.4803  1.3247  0.5642
   29MOL   H37112187   6.096   6.886   3.370  0.1574  0.8197  0.4968
   29MOL   H37212188   6.129   6.816   3.525  0.7228  1.6109  0.3207
   29MOL   H37312189   5.875   6.782   3.571 -1.3443  1.3565 -0.8429
   29MOL   H37412190   5.844   6.838   3.411  1.0391  1.4797 -0.1633
   29MOL   H37512191   5.980   6.664   3.313  2.1641 -0.9007  0.7982
   29MOL   H37612192   6.024   6.601   3.474  3.0143  0.9636 -2.6876
   29MOL   H37712193   5.751   6.615   3.317 -1.3010 -1.6890 -0.2865
   29MOL   H37812194   5.840   6.465   3.367 -0.5395 -0.0006 -0.8771
   29MOL   H37912195   5.760   6.567   3.485 -0.8067 -2.6498 -0.4331
   29MOL   C38012196   5.912   7.229   3.572 -0.1139  0.1518  0.8596
   29MOL   C38112197   5.824   7.191   3.690 -0.9662  0.4280  0.0771
   29MOL   C38212198   5.826   7.305   3.792  0.0320 -0.2003  0.0054
   29MOL   C38312199   5.945   7.284   3.884 -0.8113  0.4922 -0.8474
   29MOL   C38412200   5.967   7.394   3.979  0.2457 -0.2986 -0.5920
   29MOL   C38512201   6.090   7.354   4.060  0.1615 -0.5152  0.0415
   29MOL   C38612202   6.121   7.464   4.165 -0.0195 -0.6707 -0.3703
   29MOL   H38712203   6.007   7.279   3.592 -0.3782  1.6911 -1.5173
   29MOL   H38812204   5.869   7.311   3.514  2.1453  1.8777  1.5222
   29MOL   H38912205   5.845   7.098   3.743 -0.9001  1.5256  2.0639
   29MOL   H39012206   5.742   7.310   3.860 -1.1058  0.4323 -1.4132
   29MOL   H39112207   5.826   7.400   3.738 -0.6600  0.0827  0.5047
   29MOL   H39212208   5.938   7.186   3.931  2.3922  0.4214 -0.4358
   29MOL   H39312209   6.034   7.266   3.824 -0.3585 -0.4911  0.1041
   29MOL   H39412210   5.990   7.492   3.937  1.0192  0.4593  1.5500
   29MOL   H39512211   5.888   7.411   4.053  0.0730 -0.6398 -0.6978
   29MOL   H39612212   6.181   7.342   4.002  1.1164 -1.7699  1.7413
   29MOL   H39712213   6.067   7.261   4.112  0.8067 -1.9198 -2.1436
   29MOL   H39812214   6.032   7.491   4.222 -0.0277 -0.3281 -0.5411
   29MOL   H39912215   6.152   7.551   4.107 -1.1989  0.5121  0.7660
   29MOL   H40012216   6.205   7.440   4.230  0.8734  0.6158 -1.0222
   29MOL   C40112217   5.679   7.190   3.640  0.4296  0.8618 -0.4299
   29MOL   C40212218   5.590   7.097   3.732  0.2972 -0.1907 -0.3845
   29MOL   C40312219   5.439   7.120   3.713  0.0555 -0.3287 -0.2790
   29MOL   C40412220   5.362   7.018   3.795 -0.4547 -0.0759 -0.4155
   29MOL   C40512221   5.208   7.027   3.783  0.4134  0.5168 -0.0182
   29MOL   C40612222   5.133   6.899   3.815 -0.4760  0.2059  0.2669
   29MOL   C40712223   5.003   6.885   3.730 -0.1090 -0.0855  0.3277
   29MOL   H40812224   5.681   7.144   3.541  0.5144 -0.5276  0.2152
   29MOL   H40912225   5.626   7.286   3.637 -0.3822  0.3833 -3.8327
   29MOL   H41012226   5.617   7.121   3.834  1.0778  1.0108 -0.8651
   29MOL   H41112227   5.421   7.090   3.610  1.1787 -1.8000 -0.0751
   29MOL   H41212228   5.396   7.219   3.725  0.7367 -0.0994  0.2855
   29MOL   H41312229   5.389   7.025   3.901  0.4881 -0.8093 -0.6064
   29MOL   H41412230   5.389   6.917   3.763 -0.5450  0.0826 -0.9880
   29MOL   H41512231   5.166   7.106   3.845 -0.9522  0.5425 -0.9666
   29MOL   H41612232   5.182   7.059   3.682 -0.4382 -1.8757 -0.5725
   29MOL   H41712233   5.197   6.812   3.800  2.1235  2.1326 -0.0853
   29MOL   H41812234   5.118   6.898   3.923  1.3469 -0.4885  0.5287
   29MOL   H41912235   4.939   6.972   3.744 -1.4568 -0.9075 -0.5477
   29MOL   H42012236   4.939   6.797   3.737 -1.7965  1.1157  0.4177
   29MOL   H42112237   5.020   6.884   3.622  0.8351 -1.4787  0.4781
   29MOL   H42212238   5.614   6.991   3.716 -0.1755 -0.4789  0.7935
   30MOL     C112239   5.973   3.075   0.485  0.6495 -0.0045 -0.0048
   30MOL     C212240   6.107   3.062   0.554  0.6872  0.0196 -0.0749
   30MOL     C312241   6.181   2.952   0.480 -0.3388  1.1720  0.5129
   30MOL     C412242   6.234   2.999   0.341  0.1804 -0.1557  0.2072
   30MOL     C512243   6.342   2.910   0.279  0.4568 -1.1151 -0.2791
   30MOL     C612244   6.291   2.782   0.216  0.2763  0.4049 -0.6530
   30MOL     C712245   6.255   2.803   0.066 -0.0541  0.0627 -0.8964
   30MOL     H812246   5.881   3.099   0.538  0.7551 -0.4216  0.3728
   30MOL     H912247   5.955   2.989   0.420 -0.4603  1.1554 -1.2818
   30MOL    H1012248   6.146   3.163   0.545 -1.0166  0.6391 -0.6573
   30MOL    H1112249   6.269   2.912   0.532 -1.0878  0.5152  1.2944
   30MOL    H1212250   6.116   2.865   0.480  1.3635 -0.1422  1.2289
   30MOL    H1312251   6.152   3.002   0.269  0.6556  1.3347 -0.3001
   30MOL    H1412252   6.263   3.104   0.338 -3.1039  0.7827 -0.2094
   30MOL    H1512253   6.427   2.886   0.343  0.3079  0.3459  0.4819
   30MOL    H1612254   6.392   2.973   0.204  2.4147  0.0252  1.9076
   30MOL    H1712255   6.209   2.742   0.275  2.2378  0.5563  2.2822
   30MOL    H1812256   6.370   2.706   0.219 -0.2179 -0.2284 -2.8754
   30MOL    H1912257   6.329   2.842   7.709  0.3291  2.8839  0.9659
   30MOL    H2012258   6.171   2.872   0.061 -0.1864  0.0069  0.3630
   30MOL    H2112259   6.225   2.705   0.031  3.1041 -1.0893 -0.5499
   30MOL    H2212260   5.978   3.148   0.405  2.0279  1.1162  1.0840
   30MOL    C2312261   6.084   3.019   0.706  0.0229  0.0929  0.5070
   30MOL    C2412262   6.084   3.123   0.821 -0.2254  0.3109 -0.1967
   30MOL    C2512263   6.075   3.071   0.966 -0.1028 -0.5632  0.5129
   30MOL    C2612264   5.960   2.983   1.008 -0.1791  0.2052 -0.1123
   30MOL    C2712265   5.957   2.937   1.152 -0.0161 -0.2357  0.5214
   30MOL    C2812266   6.069   2.847   1.203  0.0265  0.2730 -0.0949
   30MOL    C2912267   6.032   2.759   1.331 -0.0931  0.3190  0.3685
   30MOL    H3012268   5.990   2.964   0.713  0.8546 -1.6273 -1.3933
   30MOL    H3112269   6.168   2.957   0.739 -0.2687 -0.7137 -0.2651
   30MOL    H3212270   6.177   3.179   0.818  0.9045 -1.5690 -1.9199
   30MOL    H3312271   6.088   3.145   1.044 -2.0174 -0.7711  1.0795
   30MOL    H3412272   6.169   3.019   0.984  1.0122  1.0101 -0.6453
   30MOL    H3512273   5.962   2.893   0.947 -1.4768 -0.0069  0.1419
   30MOL    H3612274   5.871   3.036   0.974  0.6476  0.8309 -1.3618
   30MOL    H3712275   5.856   2.895   1.156 -0.5518  1.0437  0.8574
   30MOL    H3812276   5.955   3.024   1.218 -0.0334 -1.0690  1.6175
   30MOL    H3912277   6.156   2.909   1.225 -1.0109  1.3094  1.2224
   30MOL    H4012278   6.086   2.781   1.118  0.0536 -0.3356  0.3762
   30MOL    H4112279   5.975   2.816   1.404  1.0944  1.7211  0.2172
   30MOL    H4212280   5.983   2.666   1.303 -0.1177  0.7181 -0.9433
   30MOL    H4312281   6.122   2.731   1.388 -0.1183  1.4478  0.9715
   30MOL    C4412282   5.979   3.236   0.784  0.2340  0.1552 -0.8750
   30MOL    C4512283   5.962   3.363   0.882  0.7562 -0.1550 -0.1566
   30MOL    C4612284   6.099   3.428   0.929  0.0186 -0.2814 -1.0985
   30MOL    C4712285   6.090   3.551   1.026  0.4881  0.4327  0.4977
   30MOL    C4812286   6.209   3.559   1.123 -0.0430 -0.4120 -0.2175
   30MOL    C4912287   6.209   3.693   1.200  0.4101  0.8147 -0.4494
   30MOL    C5012288   6.102   3.693   1.319  0.0858 -0.5198 -0.2378
   30MOL    H5112289   5.880   3.193   0.773  0.2909 -0.5411  1.1540
   30MOL    H5212290   6.004   3.281   0.688  0.0493  0.2731 -0.8673
   30MOL    H5312291   5.915   3.324   0.972  1.7240 -0.9176  0.0331
   30MOL    H5412292   6.164   3.458   0.846  2.6494 -1.5341  0.4457
   30MOL    H5512293   6.167   3.354   0.972  1.6990  1.0636 -1.3906
   30MOL    H5612294   6.066   3.644   0.975 -0.0556 -0.6405 -1.2377
   30MOL    H5712295   6.004   3.530   1.090  1.6069  1.7337  2.4763
   30MOL    H5812296   6.300   3.548   1.064  1.4671  2.7235  1.3777
   30MOL    H5912297   6.223   3.478   1.193  0.4678 -1.5259 -1.5789
   30MOL    H6012298   6.199   3.780   1.135  3.2616 -0.7097 -3.0473
   30MOL    H6112299   6.314   3.700   1.230  0.6529  1.9259 -1.5057
   30MOL    H6212300   6.090   3.796   1.353  0.2428  0.0272 -1.8069
   30MOL    H6312301   6.147   3.632   1.397  1.9966 -1.2496 -1.8858
   30MOL    H6412302   6.002   3.676   1.278 -0.0347 -0.6090  0.0974
   30MOL    C6512303   5.873   3.476   0.826  0.7175 -0.1918  0.1888
   30MOL    C6612304   5.730   3.446   0.780  0.0110  0.3871  0.1169
   30MOL    C6712305   5.667   3.573   0.718  0.1893 -0.2186  0.5206
   30MOL    C6812306   5.610   3.661   0.836 -0.0470 -0.2873 -0.6243
   30MOL    C6912307   5.551   3.795   0.782 -0.3238 -0.3983  0.4360
   30MOL    C7012308   5.406   3.769   0.732 -0.0510  0.3764  0.1002
   30MOL    C7112309   5.354   3.893   0.661 -0.3711  0.1478  0.2229
   30MOL    H7212310   5.873   3.553   0.903  0.7997  0.3680 -0.3642
   30MOL    H7312311   5.926   3.524   0.744 -1.3098  3.0644  0.6849
   30MOL    H7412312   5.746   3.385   0.690 -2.6393  0.7498 -0.6453
   30MOL    H7512313   5.743   3.627   0.663 -1.0862  0.4617 -0.5736
   30MOL    H7612314   5.584   3.547   0.652  0.1227 -0.3939  0.6708
   30MOL    H7712315   5.543   3.607   0.903 -0.3102 -0.9323 -1.3976
   30MOL    H7812316   5.694   3.690   0.899 -1.6570 -1.0377  1.9247
   30MOL    H7912317   5.542   3.853   0.874  0.0735  0.0927  0.1676
   30MOL    H8012318   5.615   3.840   0.706  2.5537 -1.3911  2.2023
   30MOL    H8112319   5.335   3.743   0.810  0.2376 -1.5673 -0.2571
   30MOL    H8212320   5.404   3.691   0.655 -2.8991  0.8066 -0.3104
   30MOL    H8312321   5.343   3.984   0.721 -2.1721 -0.2091  0.4688
   30MOL    H8412322   5.411   3.919   0.571 -2.7572  0.8178 -1.1446
   30MOL    H8512323   5.251   3.881   0.626 -0.1981  2.2942 -1.1613
   30MOL    C8612324   5.646   3.379   0.890 -0.1650  0.1866  0.4179
   30MOL    C8712325   5.498   3.341   0.859 -0.6964  0.5582  0.5235
   30MOL    C8812326   5.494   3.230   0.743  0.1259 -1.4575  0.0550
   30MOL    C8912327   5.543   3.085   0.780 -0.2412  0.6228  0.6568
   30MOL    C9012328   5.496   2.986   0.675  0.7152  0.0073 -0.0878
   30MOL    C9112329   5.574   2.856   0.672 -0.9239  0.2281  0.1595
   30MOL    C9212330   5.719   2.867   0.603  0.2927 -0.1668 -0.0741
   30MOL    H9312331   5.697   3.286   0.915  1.3401  1.0714  0.7131
   30MOL    H9412332   5.652   3.448   0.975  1.2250 -0.2304  0.6821
   30MOL    H9512333   5.448   3.432   0.827 -1.1799 -0.1867 -0.8577
   30MOL    H9612334   5.392   3.242   0.704  1.2938  0.0031 -2.6881
   30MOL    H9712335   5.564   3.255   0.664 -3.3337 -0.5856 -2.8733
   30MOL    H9812336   5.651   3.097   0.787  0.1092  1.0438 -3.9201
   30MOL    H9912337   5.505   3.059   0.879 -1.1267  0.5411  0.3004
   30MOL   H10012338   5.505   3.038   0.580 -0.1721  0.5904  0.1370
   30MOL   H10112339   5.389   2.963   0.678  1.0533 -1.9537 -1.9080
   30MOL   H10212340   5.592   2.821   0.774 -0.1387  1.7487  0.5646
   30MOL   H10312341   5.516   2.777   0.625 -2.2948  0.4078  1.5033
   30MOL   H10412342   5.701   2.876   0.496  2.1530  0.2797 -0.3551
   30MOL   H10512343   5.794   2.788   0.603 -1.2278 -1.6272  0.1922
   30MOL   H10612344   5.766   2.957   0.644 -0.2391  0.3637 -0.6161
   30MOL   C10712345   5.434   3.301   0.988 -0.1535  0.0434 -0.5378
   30MOL   C10812346   5.278   3.275   0.990  0.1581  0.2801  0.4971
   30MOL   C10912347   5.233   3.214   1.127 -0.0867 -0.3069  0.1939
   30MOL   C11012348   5.264   3.065   1.150  0.5561  0.6925  0.7646
   30MOL   C11112349   5.203   2.958   1.053  0.3922  0.3572  0.7171
   30MOL   C11212350   5.229   2.814   1.099 -0.0822 -0.0387  0.1411
   30MOL   C11312351   5.173   2.714   1.003 -0.1069  0.7720  0.2980
   30MOL   H11412352   5.443   3.381   1.061 -2.0751  0.6598 -0.9322
   30MOL   H11512353   5.478   3.208   1.025 -0.5057  0.2230  0.3498
   30MOL   H11612354   5.260   3.200   0.913  0.9152  2.1119 -1.5112
   30MOL   H11712355   5.124   3.213   1.128 -0.0841 -2.8275  0.6163
   30MOL   H11812356   5.260   3.273   1.215  1.6092 -1.6986  0.6145
   30MOL   H11912357   5.369   3.053   1.177  1.6216  0.5145 -3.1336
   30MOL   H12012358   5.221   3.056   1.249 -1.3098 -2.6859 -0.2682
   30MOL   H12112359   5.239   2.975   0.951  0.4512  1.0389  0.8429
   30MOL   H12212360   5.095   2.971   1.054  0.3872  0.3179  0.7403
   30MOL   H12312361   5.337   2.802   1.093  0.0120  0.2372  1.1685
   30MOL   H12412362   5.198   2.799   1.202 -0.1065  1.0053  0.2947
   30MOL   H12512363   5.072   2.699   1.041 -0.5728 -1.2945 -1.6955
   30MOL   H12612364   5.169   2.746   0.899 -2.1630 -1.0341 -0.2211
   30MOL   H12712365   5.234   2.623   1.009 -2.4863 -0.7362  3.7465
   30MOL   C12812366   5.193   3.393   0.947  0.6158 -0.0328  0.2073
   30MOL   C12912367   5.042   3.378   0.915  0.0547 -0.0634 -0.0541
   30MOL   C13012368   5.003   3.262   0.824 -0.0728  0.1656  0.1133
   30MOL   C13112369   5.078   3.256   0.691  0.1162  0.6698  0.0228
   30MOL   C13212370   5.052   3.127   0.617 -0.5787 -0.0263  0.1857
   30MOL   C13312371   5.097   3.122   0.469 -0.2773  0.5578 -0.0128
   30MOL   C13412372   5.247   3.087   0.434  0.4038 -0.3473 -0.4664
   30MOL   H13512373   5.191   3.470   1.024  1.3503  0.5423 -0.3341
   30MOL   H13612374   5.249   3.444   0.868  0.2245  1.5251  0.9210
   30MOL   H13712375   4.988   3.352   1.006 -0.4115 -2.7770 -1.0813
   30MOL   H13812376   4.899   3.259   0.794 -0.0744  0.8017  0.0600
   30MOL   H13912377   5.038   3.172   0.876 -0.2864  0.5120  0.8554
   30MOL   H14012378   5.179   3.289   0.712 -0.6215  2.0838  1.4517
   30MOL   H14112379   5.039   3.330   0.621 -1.0033 -0.6444 -0.7724
   30MOL   H14212380   4.944   3.114   0.611 -0.8770  2.5068 -0.4431
   30MOL   H14312381   5.088   3.046   0.680  1.0458 -0.5191 -1.3404
   30MOL   H14412382   5.072   3.222   0.435 -0.3126  0.5264 -0.0790
   30MOL   H14512383   5.033   3.044   0.429  0.7921 -0.0423 -0.5680
   30MOL   H14612384   5.320   3.143   0.492  0.1507 -1.6147  1.0981
   30MOL   H14712385   5.260   3.083   0.325 -0.3339 -3.8912 -0.4921
   30MOL   H14812386   5.261   2.980   0.446 -4.2672 -1.1246 -1.1008
   30MOL   C14912387   4.980   3.510   0.869  0.5004 -0.7040  0.0761
   30MOL   C15012388   4.824   3.524   0.856 -0.2343  0.4097  0.2912
   30MOL   C15112389   4.784   3.642   0.768 -0.6665 -0.6962 -0.2954
   30MOL   C15212390   4.832   3.776   0.827  0.2378  1.0637  0.4814
   30MOL   C15312391   4.951   3.842   0.760  0.0283  0.4618  0.1920
   30MOL   C15412392   4.995   3.974   0.832  0.5479  0.2956  0.3785
   30MOL   C15512393   4.996   3.954   0.989  0.5403  0.1751  0.4042
   30MOL   H15612394   5.020   3.587   0.934  2.2612  0.7415 -2.6105
   30MOL   H15712395   5.018   3.526   0.768 -0.3392 -2.0434 -0.4659
   30MOL   H15812396   4.792   3.438   0.796  0.5501 -1.2074  2.1506
   30MOL   H15912397   4.836   3.637   0.672 -1.8801  2.6704 -1.2003
   30MOL   H16012398   4.676   3.651   0.765 -0.5512  0.6512 -0.8436
   30MOL   H16112399   4.842   3.757   0.934  0.9866  0.9795  0.3951
   30MOL   H16212400   4.746   3.842   0.821  1.0463  1.9254 -2.2588
   30MOL   H16312401   4.916   3.868   0.660 -0.7441 -0.1375  0.3051
   30MOL   H16412402   5.035   3.773   0.762 -1.3800 -1.3852 -1.5478
   30MOL   H16512403   4.914   4.044   0.811 -0.3490 -0.2642  1.9349
   30MOL   H16612404   5.087   4.022   0.799  0.0472  1.8059  1.1309
   30MOL   H16712405   5.050   4.031   1.044 -0.1260 -0.0531  1.3842
   30MOL   H16812406   5.045   3.860   1.011  0.2175 -0.1977 -0.4479
   30MOL   H16912407   4.891   3.959   1.018  0.5149 -1.1643  0.5711
   30MOL   C17012408   4.752   3.521   0.994 -0.6114 -0.1250 -0.7836
   30MOL   C17112409   4.596   3.546   1.004 -0.5187 -0.6530 -0.8560
   30MOL   C17212410   4.532   3.445   0.907  0.3940  0.1051 -0.1987
   30MOL   C17312411   4.387   3.483   0.865 -0.6612  1.0417 -0.7659
   30MOL   C17412412   4.316   3.360   0.805 -0.0074 -0.4088 -0.0887
   30MOL   C17512413   4.169   3.411   0.763 -0.0157  0.2193  0.4736
   30MOL   C17612414   4.067   3.413   0.878  0.3897 -0.0685 -0.4185
   30MOL   H17712415   4.802   3.593   1.060  0.6039 -1.5204 -0.1455
   30MOL   H17812416   4.779   3.425   1.038  0.2675  0.1176 -0.7900
   30MOL   H17912417   4.579   3.650   0.974  2.0817  0.2574  0.6310
   30MOL   H18012418   4.523   3.357   0.970  0.2140  0.9686  0.9985
   30MOL   H18112419   4.595   3.419   0.822  1.0854 -0.1901  0.4046
   30MOL   H18212420   4.403   3.570   0.801  0.5153  1.3975 -0.0066
   30MOL   H18312421   4.329   3.520   0.949 -0.5977 -0.9377  0.1846
   30MOL   H18412422   4.306   3.272   0.869 -2.4526  0.9659  1.4884
   30MOL   H18512423   4.369   3.323   0.717 -1.6211 -1.3844 -0.6765
   30MOL   H18612424   4.140   3.345   0.681 -1.3843  2.5334 -0.9369
   30MOL   H18712425   4.164   3.507   0.713  1.7592 -0.0251 -0.2295
   30MOL   H18812426   4.116   3.482   0.948  1.2048 -1.3521  0.2973
   30MOL   H18912427   4.060   3.311   0.917 -1.3983 -1.9321 -5.2492
   30MOL   H19012428   3.971   3.458   0.852  0.1278 -0.7804 -0.6868
   30MOL   C19112429   4.544   3.540   1.148  0.0920 -0.1949  0.1341
   30MOL   C19212430   4.604   3.638   1.246 -0.7438  0.1016 -0.0933
   30MOL   C19312431   4.549   3.779   1.219 -0.2602  0.8140 -0.0662
   30MOL   C19412432   4.655   3.889   1.202  0.3137  0.3545 -0.0977
   30MOL   C19512433   4.587   4.024   1.194  0.5046 -0.3438 -0.3275
   30MOL   C19612434   4.680   4.147   1.202 -0.1008  0.3458 -0.4606
   30MOL   C19712435   4.635   4.270   1.118  0.1915 -1.1349  0.0337
   30MOL   H19812436   4.549   3.436   1.179 -1.0312 -1.0954 -2.5559
   30MOL   H19912437   4.437   3.561   1.155  0.2559  1.4245 -1.6779
   30MOL   H20012438   4.711   3.644   1.227 -0.2502 -1.3297  2.1144
   30MOL   H20112439   4.489   3.809   1.305 -0.2349 -2.3572  1.1398
   30MOL   H20212440   4.478   3.780   1.137  0.6206 -1.5778 -0.9049
   30MOL   H20312441   4.712   3.875   1.111  2.3406  2.2194  0.8410
   30MOL   H20412442   4.727   3.884   1.284 -0.7427 -0.6776  0.8013
   30MOL   H20512443   4.527   4.042   1.105  1.0689  0.1125 -0.6210
   30MOL   H20612444   4.517   4.026   1.277  2.2879 -0.6758  1.2135
   30MOL   H20712445   4.782   4.122   1.173  0.5314  2.1601  0.1891
   30MOL   H20812446   4.682   4.169   1.308 -2.0981 -0.4882 -0.2285
   30MOL   H20912447   4.703   4.355   1.124  0.2799 -0.9965 -2.5189
   30MOL   H21012448   4.538   4.310   1.146  1.3553  1.9745 -0.2344
   30MOL   H21112449   4.642   4.244   1.012  1.5577  0.0992 -0.1897
   30MOL   C21212450   4.582   3.583   1.388 -0.3183  0.1098 -0.0383
   30MOL   C21312451   4.677   3.651   1.490 -0.1197  0.5437  0.2292
   30MOL   C21412452   4.602   3.718   1.608  0.0940 -0.1470  0.2548
   30MOL   C21512453   4.671   3.801   1.713  0.2549 -0.8527  0.0601
   30MOL   C21612454   4.581   3.905   1.786  0.2232 -0.3944  0.3186
   30MOL   C21712455   4.669   3.970   1.890 -0.0704 -0.0329  0.2487
   30MOL   C21812456   4.580   4.072   1.971  0.1013  0.0621 -0.5206
   30MOL   H21912457   4.600   3.476   1.388  0.7994  0.2931 -0.2196
   30MOL   H22012458   4.480   3.606   1.420 -0.4408 -0.2088 -0.2036
   30MOL   H22112459   4.736   3.735   1.453  1.0836 -0.7669 -0.8711
   30MOL   H22212460   4.530   3.785   1.563 -1.3870 -2.0868 -0.3503
   30MOL   H22312461   4.542   3.642   1.658  0.1646 -0.0380  0.5106
   30MOL   H22412462   4.753   3.854   1.664 -0.5276 -1.1492 -1.6330
   30MOL   H22512463   4.713   3.732   1.785 -0.5845 -1.1047  0.3154
   30MOL   H22612464   4.554   3.967   1.701 -2.2685 -1.3976  0.3437
   30MOL   H22712465   4.493   3.854   1.826  1.2906 -0.1921  3.0757
   30MOL   H22812466   4.702   3.900   1.966 -0.2434  0.2843  0.6218
   30MOL   H22912467   4.748   4.025   1.839 -0.4354 -1.1755 -1.5802
   30MOL   H23012468   4.481   4.026   1.978  1.3248 -2.8403 -1.5336
   30MOL   H23112469   4.572   4.171   1.926 -3.0600  1.2417  2.4698
   30MOL   H23212470   4.619   4.083   2.072 -0.9635 -3.3229  0.3598
   30MOL   C23312471   4.785   3.554   1.531  0.3819  0.5531  0.2080
   30MOL   C23412472   4.893   3.523   1.409  0.3407 -0.1088  0.4054
   30MOL   C23512473   4.986   3.645   1.392 -0.5334  0.1731 -0.5572
   30MOL   C23612474   5.074   3.647   1.261  0.5632 -0.3373 -0.2053
   30MOL   C23712475   5.195   3.752   1.274 -0.0701 -0.2021  0.5401
   30MOL   C23812476   5.305   3.733   1.169  0.7260  0.7105 -0.1662
   30MOL   C23912477   5.433   3.813   1.193  0.6876 -0.2611  0.2309
   30MOL   H24012478   4.729   3.465   1.558 -1.2297  0.9781 -1.6216
   30MOL   H24112479   4.838   3.593   1.618  0.4486  1.5492 -0.2695
   30MOL   H24212480   4.841   3.506   1.314  2.1838 -0.7315 -0.5102
   30MOL   H24312481   5.049   3.640   1.481 -1.1166  1.9597 -0.0210
   30MOL   H24412482   4.941   3.743   1.404  1.2777  0.5962  3.7694
   30MOL   H24512483   5.005   3.676   1.181  1.6834  2.6647 -0.1447
   30MOL   H24612484   5.114   3.549   1.236  2.6704  0.3034  0.5912
   30MOL   H24712485   5.237   3.724   1.371 -1.7837  1.3918  1.7952
   30MOL   H24812486   5.163   3.854   1.296  2.2407  0.4570  1.0692
   30MOL   H24912487   5.341   3.630   1.159  3.0597  1.6511 -1.7620
   30MOL   H25012488   5.263   3.773   1.077 -1.4039  1.7931  1.2336
   30MOL   H25112489   5.507   3.797   1.115  0.0827 -0.0046 -0.4124
   30MOL   H25212490   5.409   3.920   1.195  1.6655 -0.0124 -0.7221
   30MOL   H25312491   5.472   3.775   1.287  1.3657  0.7377  0.3567
   30MOL   C25412492   4.965   3.391   1.438 -0.1554  1.0575  0.4021
   30MOL   C25512493   4.891   3.252   1.427  0.4446  0.0273  0.2698
   30MOL   C25612494   4.998   3.136   1.464  0.5829  0.1110 -0.2736
   30MOL   C25712495   5.012   3.109   1.614  0.3922 -0.3587  0.7820
   30MOL   C25812496   5.141   3.025   1.646 -0.4679  0.2005  0.3028
   30MOL   C25912497   5.122   2.956   1.778  0.3840 -0.3483  0.1213
   30MOL   C26012498   5.112   3.050   1.901  0.2822 -0.2064 -1.2284
   30MOL   H26112499   5.002   3.395   1.541 -0.6738 -0.3329  0.6587
   30MOL   H26212500   5.033   3.380   1.355  1.1606  0.7952  1.5000
   30MOL   H26312501   4.814   3.265   1.502 -2.5034 -2.4802 -2.2021
   30MOL   H26412502   5.093   3.174   1.427  0.3690 -1.5268 -2.5777
   30MOL   H26512503   4.981   3.039   1.418  2.6870  0.4239 -1.7822
   30MOL   H26612504   5.000   3.202   1.668  0.2644  0.0979 -0.0290
   30MOL   H26712505   4.922   3.055   1.646  0.1776 -1.4256 -1.5009
   30MOL   H26812506   5.232   3.082   1.630 -0.7964 -0.0318 -2.7298
   30MOL   H26912507   5.149   2.952   1.565 -2.0241  0.0012  0.3224
   30MOL   H27012508   5.033   2.893   1.774 -0.8895  1.3435  1.2355
   30MOL   H27112509   5.210   2.896   1.803 -0.3184 -1.5411 -0.2170
   30MOL   H27212510   5.081   2.991   1.987  1.2084  1.6976  0.4389
   30MOL   H27312511   5.202   3.109   1.917  0.6618 -0.2591 -3.0799
   30MOL   H27412512   5.029   3.121   1.893  0.2821 -0.1505 -0.7499
   30MOL   C27512513   4.815   3.230   1.288  0.3785 -0.3328  0.5056
   30MOL   C27612514   4.716   3.109   1.290 -0.6393  0.7292 -0.6318
   30MOL   C27712515   4.654   3.085   1.147  0.2769  0.8964 -0.2110
   30MOL   C27812516   4.742   2.994   1.061 -0.1351 -0.3945  0.0034
   30MOL   C27912517   4.683   2.980   0.918  0.4986 -0.0413  0.6396
   30MOL   C28012518   4.767   2.873   0.847  0.0856 -0.0658 -0.5519
   30MOL   C28112519   4.723   2.848   0.700  0.1080  0.5101 -0.9021
   30MOL   H28212520   4.888   3.220   1.207 -1.4661 -1.5877 -1.0555
   30MOL   H28312521   4.750   3.311   1.254  2.2561  0.7442 -0.6179
   30MOL   H28412522   4.787   3.027   1.304 -0.3232  1.3533  1.6316
   30MOL   H28512523   4.554   3.041   1.142  1.1009 -0.9956 -0.5974
   30MOL   H28612524   4.636   3.182   1.100  1.3950  1.4388  0.4555
   30MOL   H28712525   4.755   2.898   1.111  0.2804 -0.0138  0.6247
   30MOL   H28812526   4.841   3.037   1.050 -0.6846  0.9161  0.1411
   30MOL   H28912527   4.676   3.080   0.874 -0.5550 -1.8300 -3.5410
   30MOL   H29012528   4.585   2.932   0.919  0.3594  0.1472 -1.1038
   30MOL   H29112529   4.871   2.907   0.844 -0.7797  2.8214 -0.1617
   30MOL   H29212530   4.773   2.781   0.906 -2.2049 -0.3098 -0.6619
   30MOL   H29312531   4.780   2.772   0.648 -0.3641  1.0013 -2.1560
   30MOL   H29412532   4.726   2.940   0.641 -1.2374  1.2228  0.0993
   30MOL   H29512533   4.618   2.817   0.702  0.4517 -0.6899 -1.0246
   30MOL   C29612534   4.600   3.098   1.395  0.2330  0.1172 -0.6737
   30MOL   C29712535   4.566   2.952   1.430 -0.0436 -0.3241  0.0858
   30MOL   C29812536   4.424   2.928   1.491  0.0085  0.0599 -0.0752
   30MOL   C29912537   4.313   2.903   1.383 -0.6563 -0.3253  0.5599
   30MOL   C30012538   4.172   2.942   1.416  0.1299  0.8334 -0.1730
   30MOL   C30112539   4.076   2.934   1.297 -0.0460 -0.4777 -0.2245
   30MOL   C30212540   3.929   2.970   1.335  0.1839  0.0641  0.4893
   30MOL   H30312541   4.632   3.150   1.485 -1.3528  1.4549 -0.8655
   30MOL   H30412542   4.513   3.149   1.354 -2.8613 -0.8062  4.2781
   30MOL   H30512543   4.565   2.902   1.333 -0.7729 -1.1475  0.5136
   30MOL   H30612544   4.417   2.832   1.541  0.6784 -0.3557 -0.7658
   30MOL   H30712545   4.391   3.006   1.560 -1.7468 -1.0686  0.3895
   30MOL   H30812546   4.326   2.802   1.343  2.3379 -0.6757  2.2300
   30MOL   H30912547   4.336   2.970   1.300 -2.9336  1.3736  1.2558
   30MOL   H31012548   4.173   3.044   1.455  1.0450  0.5171  0.6713
   30MOL   H31112549   4.130   2.874   1.490  0.6444 -0.8315 -1.3826
   30MOL   H31212550   4.106   3.006   1.222 -0.0501 -0.0744  0.1610
   30MOL   H31312551   4.073   2.830   1.264  2.8503  0.1818 -2.8872
   30MOL   H31412552   3.904   2.910   1.423 -0.1301 -1.0761 -0.3747
   30MOL   H31512553   3.906   3.075   1.355 -0.3554 -0.4492  2.6983
   30MOL   H31612554   3.876   2.939   1.246 -1.7099  1.6435  1.0446
   30MOL   C31712555   4.680   2.903   1.525 -0.3610 -0.0335 -0.1325
   30MOL   C31812556   4.691   2.748   1.548 -0.2576  0.5949 -0.1625
   30MOL   C31912557   4.816   2.693   1.476  0.2014  0.0848 -0.5308
   30MOL   C32012558   4.835   2.733   1.329  0.2280  0.1904 -0.7382
   30MOL   C32112559   4.899   2.618   1.253  0.1235  0.5145  0.0361
   30MOL   C32212560   5.033   2.562   1.311  0.3650 -0.1439 -0.0443
   30MOL   C32312561   5.077   2.436   1.233  0.0065 -0.3671  0.2534
   30MOL   H32412562   4.662   2.953   1.619 -0.6478  1.2885 -0.8811
   30MOL   H32512563   4.779   2.942   1.504  0.3955 -1.5732  0.4688
   30MOL   H32612564   4.610   2.701   1.493 -0.6341 -1.2891  1.9586
   30MOL   H32712565   4.803   2.585   1.484 -0.6908  0.0255 -2.5335
   30MOL   H32812566   4.902   2.720   1.538  0.0270 -0.6109  0.0168
   30MOL   H32912567   4.908   2.814   1.328  0.9121 -0.3949  0.3427
   30MOL   H33012568   4.740   2.757   1.282  0.1321  4.6762  1.4604
   30MOL   H33112569   4.912   2.636   1.147  1.0899 -0.2969  0.0114
   30MOL   H33212570   4.832   2.532   1.258  0.9194 -0.2054 -1.4306
   30MOL   H33312571   5.013   2.532   1.414  0.1913 -0.7605 -0.2605
   30MOL   H33412572   5.109   2.640   1.300 -0.9794  0.9735 -1.6016
   30MOL   H33512573   5.161   2.376   1.269 -2.0834 -2.0817  2.4306
   30MOL   H33612574   5.093   2.460   1.128  0.2819  0.8605  0.5655
   30MOL   H33712575   4.996   2.364   1.235 -0.2232 -0.0910  2.4360
   30MOL   C33812576   4.685   2.712   1.700 -0.0152 -0.5917  0.3524
   30MOL   C33912577   4.704   2.563   1.739  0.6064 -0.2328  0.5436
   30MOL   C34012578   4.581   2.479   1.697  0.2647  0.0351 -0.4204
   30MOL   C34112579   4.597   2.329   1.674 -0.2027 -0.8065  0.4994
   30MOL   C34212580   4.682   2.288   1.550  0.1113  0.2462  0.3977
   30MOL   C34312581   4.692   2.136   1.518 -0.4533  0.5105  0.3057
   30MOL   C34412582   4.767   2.111   1.386  0.4950 -0.2330  0.6719
   30MOL   H34512583   4.593   2.758   1.734  1.7957  2.3781  1.4418
   30MOL   H34612584   4.761   2.776   1.745  0.4852 -0.7294 -0.2784
   30MOL   H34712585   4.797   2.527   1.694 -0.6833 -2.5596 -0.3611
   30MOL   H34812586   4.506   2.487   1.776  0.9926 -2.0404  0.4963
   30MOL   H34912587   4.539   2.527   1.608 -1.5611  1.9630  1.4260
   30MOL   H35012588   4.498   2.284   1.685 -0.3901 -0.5758 -0.2514
   30MOL   H35112589   4.655   2.283   1.754  0.8827 -0.6286 -0.1849
   30MOL   H35212590   4.645   2.348   1.466  1.3948  1.3640  0.6107
   30MOL   H35312591   4.785   2.320   1.568  0.1200  1.1802 -1.1813
   30MOL   H35412592   4.740   2.083   1.600 -0.6845  0.9312  0.7145
   30MOL   H35512593   4.594   2.089   1.512  0.9080 -2.3422 -0.8125
   30MOL   H35612594   4.753   2.008   1.353 -0.4129  0.2257 -0.3997
   30MOL   H35712595   4.872   2.138   1.399  0.5826  0.3409 -1.0287
   30MOL   H35812596   4.732   2.179   1.308  0.3401  0.2311  1.1404
   30MOL   C35912597   4.723   2.544   1.890 -0.2421  0.1475 -0.3077
   30MOL   C36012598   4.853   2.605   1.953 -0.6398  0.4135 -0.3320
   30MOL   C36112599   4.818   2.677   2.084 -0.8015  0.1861  0.1020
   30MOL   C36212600   4.746   2.815   2.082 -0.2480  0.6010 -0.1863
   30MOL   C36312601   4.726   2.858   2.232 -0.4946 -0.4708 -0.0834
   30MOL   C36412602   4.664   2.996   2.250 -0.2015 -0.4280 -0.1138
   30MOL   C36512603   4.762   3.115   2.242 -0.3511 -0.8236  0.8130
   30MOL   H36612604   4.718   2.438   1.912  1.4161  0.2696  0.7247
   30MOL   H36712605   4.632   2.586   1.933  1.0076  1.3884  1.2082
   30MOL   H36812606   4.898   2.680   1.887  1.8658  0.3825  1.2899
   30MOL   H36912607   4.760   2.610   2.148 -0.2457 -1.3615 -0.9746
   30MOL   H37012608   4.916   2.697   2.127 -0.7641 -2.2580  1.2562
   30MOL   H37112609   4.795   2.889   2.019  1.2832  0.5891  0.9596
   30MOL   H37212610   4.644   2.801   2.047  0.7414 -3.8427 -1.6466
   30MOL   H37312611   4.650   2.788   2.268  1.0939 -1.0295  2.3072
   30MOL   H37412612   4.812   2.837   2.295  0.4054  3.3791  0.0620
   30MOL   H37512613   4.594   3.002   2.166  0.2452 -0.3934 -0.4834
   30MOL   H37612614   4.608   2.997   2.343  0.1102  0.4457  0.0676
   30MOL   H37712615   4.841   3.113   2.317  1.6549 -0.7980 -1.2090
   30MOL   H37812616   4.817   3.111   2.147 -0.0987  1.3325  0.8479
   30MOL   H37912617   4.706   3.207   2.260  0.1544 -0.6229  1.3944
   30MOL   C38012618   4.973   2.511   1.972  0.2000  0.0348 -0.0275
   30MOL   C38112619   5.039   2.437   1.848  0.1466 -0.3700  0.6088
   30MOL   C38212620   5.135   2.538   1.770  0.2183  0.4984 -0.2604
   30MOL   C38312621   5.212   2.474   1.648  0.1292  0.2392  0.4642
   30MOL   C38412622   5.290   2.577   1.559  0.1933  0.5864  0.2238
   30MOL   C38512623   5.378   2.679   1.631 -0.2068 -0.0398 -0.4271
   30MOL   C38612624   5.451   2.789   1.553 -0.5336 -0.1002  0.3598
   30MOL   H38712625   5.045   2.561   2.037  2.5568 -0.6882 -2.0337
   30MOL   H38812626   4.933   2.434   2.038 -0.5652  0.3325 -0.1351
   30MOL   H38912627   4.950   2.422   1.787 -0.3573  1.0578  0.9965
   30MOL   H39012628   5.209   2.571   1.844  1.2313  0.0719 -1.0854
   30MOL   H39112629   5.071   2.621   1.738  0.6459  0.1794 -1.9516
   30MOL   H39212630   5.283   2.394   1.669  1.5291  1.4953  0.5813
   30MOL   H39312631   5.141   2.429   1.579  0.9411  2.6416 -2.0303
   30MOL   H39412632   5.365   2.526   1.498  0.5484  0.8980  0.3946
   30MOL   H39512633   5.230   2.625   1.483  0.2448  0.1360 -0.1021
   30MOL   H39612634   5.457   2.627   1.685 -0.8944  0.6548  1.2972
   30MOL   H39712635   5.328   2.720   1.718 -1.1505  0.7662 -1.3370
   30MOL   H39812636   5.485   2.866   1.622 -1.2203 -1.0631  1.7938
   30MOL   H39912637   5.389   2.844   1.483 -2.4364 -0.7656  1.4713
   30MOL   H40012638   5.528   2.741   1.491  0.3000  0.3986  0.9944
   30MOL   C40112639   5.116   2.315   1.899 -0.0390  0.0964 -0.3240
   30MOL   C40212640   5.029   2.192   1.933 -0.3264  0.4867  0.0431
   30MOL   C40312641   5.104   2.114   2.034  0.1426 -0.0329  0.2466
   30MOL   C40412642   5.034   1.990   2.082  0.4272  0.1875 -0.0779
   30MOL   C40512643   5.037   1.879   1.975 -0.2168  0.2759  0.4004
   30MOL   C40612644   4.976   1.749   2.027 -0.2803 -0.1575 -0.3244
   30MOL   C40712645   5.018   1.624   1.958  0.0436  0.5658 -0.5955
   30MOL   H40812646   5.175   2.342   1.986  0.3072  0.8410 -0.7876
   30MOL   H40912647   5.180   2.287   1.815 -1.2442 -2.4805 -0.4389
   30MOL   H41012648   5.005   2.131   1.846  0.5596 -1.5789  1.2216
   30MOL   H41112649   5.116   2.175   2.123 -1.4472  1.7279 -0.7220
   30MOL   H41212650   5.203   2.087   1.995  1.1212 -0.0763  2.6987
   30MOL   H41312651   4.932   2.007   2.117 -0.2746  1.0273 -2.4266
   30MOL   H41412652   5.091   1.949   2.165 -1.6336  1.7468  2.1965
   30MOL   H41512653   4.992   1.914   1.882 -2.3404 -1.7799  0.5839
   30MOL   H41612654   5.144   1.864   1.967 -0.0713  0.7689  1.3548
   30MOL   H41712655   5.002   1.738   2.133  0.3214  1.0340 -0.3428
   30MOL   H41812656   4.869   1.764   2.012 -0.3964  0.3561  0.8863
   30MOL   H41912657   5.115   1.620   2.006 -0.1551  4.7478  0.3365
   30MOL   H42012658   5.033   1.629   1.850  1.5579 -0.1682 -0.4236
   30MOL   H42112659   4.961   1.537   1.991 -0.4392  1.6488  1.4653
   30MOL   H42212660   4.930   2.217   1.971 -2.4834 -1.9059 -3.7111
   31MOL     C112661   6.352   1.656   3.904 -0.3749  0.3163  0.4754
   31MOL     C212662   6.293   1.532   3.838  0.1055  0.1164  0.6021
   31MOL     C312663   6.304   1.533   3.683 -0.0855  0.5038  0.1214
   31MOL     C412664   6.260   1.404   3.618  0.5850  0.4275 -0.1229
   31MOL     C512665   6.249   1.417   3.469 -0.2863 -0.1520  0.6651
   31MOL     C612666   6.228   1.280   3.401  0.8521  0.0631 -0.2798
   31MOL     C712667   6.081   1.229   3.402  0.4995 -0.1417  0.6601
   31MOL     H812668   6.300   1.747   3.877  0.9710  1.5985  2.0891
   31MOL     H912669   6.451   1.677   3.863 -1.8071  1.0984 -2.7520
   31MOL    H1012670   6.357   1.447   3.863  0.7834  0.9327  1.6642
   31MOL    H1112671   6.253   1.623   3.647 -0.5182 -0.5012 -1.7949
   31MOL    H1212672   6.409   1.552   3.663 -0.0601 -0.2883 -0.4808
   31MOL    H1312673   6.327   1.322   3.641 -1.6628 -1.6002 -0.5851
   31MOL    H1412674   6.166   1.367   3.658  0.3759  0.5109 -0.5307
   31MOL    H1512675   6.339   1.469   3.435  0.0059 -2.0156 -1.5168
   31MOL    H1612676   6.172   1.487   3.434 -0.5955 -0.6024  0.4449
   31MOL    H1712677   6.282   1.201   3.454  1.2482 -0.1478 -0.9936
   31MOL    H1812678   6.251   1.281   3.295 -0.4414 -2.8587 -0.6634
   31MOL    H1912679   6.057   1.143   3.339  0.6376  0.6026 -0.4316
   31MOL    H2012680   6.012   1.305   3.364  1.5217 -0.2467 -1.4623
   31MOL    H2112681   6.045   1.190   3.497  0.9888 -0.1602  0.8390
   31MOL    H2212682   6.360   1.654   4.013 -1.1358 -1.9244  0.5136
   31MOL    C2312683   6.153   1.506   3.892  0.3413  0.3809 -0.3916
   31MOL    C2412684   6.146   1.504   4.049 -0.2472  0.1849  0.4270
   31MOL    C2512685   6.254   1.407   4.107  0.3785  0.0475 -0.1646
   31MOL    C2612686   6.251   1.256   4.077  0.0748  0.7881  0.6061
   31MOL    C2712687   6.290   1.176   4.197 -0.2297 -0.8198 -0.0969
   31MOL    C2812688   6.429   1.223   4.257 -0.0844 -0.2774 -0.2190
   31MOL    C2912689   6.538   1.176   4.161  0.0328  0.3214 -0.2873
   31MOL    H3012690   6.093   1.594   3.869 -0.3578  0.5540  1.9445
   31MOL    H3112691   6.106   1.417   3.852  0.9183  0.4064 -1.1516
   31MOL    H3212692   6.167   1.604   4.086 -0.5606  0.0597  0.9500
   31MOL    H3312693   6.241   1.427   4.213  0.2181 -0.9447  0.0008
   31MOL    H3412694   6.357   1.434   4.083  0.2651  0.3597 -0.3096
   31MOL    H3512695   6.311   1.237   3.988  1.7742  0.0585  1.8719
   31MOL    H3612696   6.146   1.229   4.060  0.4170 -2.5115  3.2197
   31MOL    H3712697   6.297   1.071   4.168  0.0796 -1.2625  1.4943
   31MOL    H3812698   6.214   1.185   4.275 -2.7721 -2.3786 -2.3219
   31MOL    H3912699   6.437   1.188   4.359  3.7810  2.7501  0.6399
   31MOL    H4012700   6.437   1.330   4.275 -1.4468 -0.1094 -0.5564
   31MOL    H4112701   6.517   1.227   4.068  0.9983  1.1045 -0.0829
   31MOL    H4212702   6.635   1.217   4.189  0.4535  0.1644 -1.4848
   31MOL    H4312703   6.548   1.072   4.130  0.1522 -0.0585  0.9740
   31MOL    C4412704   6.003   1.476   4.105  0.2108  0.1973  0.5259
   31MOL    C4512705   5.897   1.585   4.072  0.6998 -0.3050 -0.2982
   31MOL    C4612706   5.766   1.521   4.081 -0.3030  0.1934  0.2960
   31MOL    C4712707   5.641   1.598   4.038 -0.0036 -0.8123 -0.5430
   31MOL    C4812708   5.644   1.675   3.911 -0.4674 -0.1612 -0.4128
   31MOL    C4912709   5.527   1.761   3.882  0.6135  0.2138  0.6290
   31MOL    C5012710   5.538   1.833   3.749 -0.5396 -0.2819  0.1202
   31MOL    H5112711   6.001   1.456   4.212 -0.3108  0.1801  0.5120
   31MOL    H5212712   5.981   1.381   4.056 -2.9357 -0.1825  2.5774
   31MOL    H5312713   5.912   1.609   3.967 -1.1175  1.0767 -0.2671
   31MOL    H5412714   5.748   1.489   4.183 -0.6281  1.3315  0.6006
   31MOL    H5512715   5.770   1.435   4.014  0.6573 -0.0988  0.7170
   31MOL    H5612716   5.563   1.522   4.035  0.4096 -1.2976  0.6893
   31MOL    H5712717   5.615   1.666   4.119  0.4020  0.4677 -1.4789
   31MOL    H5812718   5.660   1.599   3.834 -0.1093  0.0570 -0.5593
   31MOL    H5912719   5.735   1.736   3.908  0.8590 -2.1428 -1.7435
   31MOL    H6012720   5.500   1.834   3.958  0.3265  1.8547 -1.0182
   31MOL    H6112721   5.444   1.690   3.880 -0.0574  0.9596  1.3219
   31MOL    H6212722   5.448   1.893   3.735  0.4360  1.4853  1.1561
   31MOL    H6312723   5.536   1.772   3.659 -0.5752 -0.3753  0.1847
   31MOL    H6412724   5.625   1.899   3.751 -1.0673  0.4336 -0.3273
   31MOL    C6512725   5.911   1.713   4.161 -0.2859  0.3045 -0.3287
   31MOL    C6612726   6.007   1.826   4.122  0.1808  0.0890 -0.4920
   31MOL    C6712727   6.111   1.842   4.237 -0.6156  0.9387  0.7662
   31MOL    C6812728   6.212   1.953   4.209  0.1848 -0.2550 -0.1915
   31MOL    C6912729   6.323   1.945   4.318  0.4035  0.0511 -0.0752
   31MOL    C7012730   6.432   2.051   4.299  0.1911  0.0183  0.5014
   31MOL    C7112731   6.521   2.030   4.180 -0.4670  0.0862  0.3368
   31MOL    H7212732   5.815   1.762   4.174 -1.2016 -1.5556  0.0428
   31MOL    H7312733   5.937   1.676   4.261 -0.1877  2.2634  0.4005
   31MOL    H7412734   6.057   1.800   4.029 -1.5631 -1.2653 -1.0625
   31MOL    H7512735   6.060   1.864   4.330  0.3447  1.7983  1.0951
   31MOL    H7612736   6.153   1.745   4.268  0.2314  1.6534  1.8924
   31MOL    H7712737   6.242   1.947   4.104 -3.2379 -0.7016 -1.2242
   31MOL    H7812738   6.157   2.047   4.224 -0.7265 -0.8626  0.3343
   31MOL    H7912739   6.270   1.957   4.412 -0.4903  2.1995 -0.8101
   31MOL    H8012740   6.369   1.847   4.315  0.3132  0.0288 -0.9456
   31MOL    H8112741   6.496   2.044   4.388 -0.5391  1.8866  1.1909
   31MOL    H8212742   6.397   2.154   4.308  0.9114  0.2815  0.3330
   31MOL    H8312743   6.547   1.924   4.176  2.3534  0.7429  0.3909
   31MOL    H8412744   6.474   2.054   4.085 -2.2587 -0.5252  1.0425
   31MOL    H8512745   6.615   2.084   4.186 -1.1334  1.3733 -0.5501
   31MOL    C8612746   5.931   1.966   4.089 -0.3159  0.3490 -0.3223
   31MOL    C8712747   5.992   2.038   3.966 -0.5680  0.5104  0.5577
   31MOL    C8812748   5.957   1.970   3.826  0.4294 -0.1212 -0.1683
   31MOL    C8912749   6.077   1.959   3.723 -0.1429 -0.1477  0.3222
   31MOL    C9012750   6.051   1.853   3.623 -0.3476  0.2904  0.6832
   31MOL    C9112751   6.148   1.861   3.504  0.0904 -0.4336  0.2263
   31MOL    C9212752   6.107   1.778   3.384  0.1117  0.4217 -0.2303
   31MOL    H9312753   5.825   1.951   4.070 -0.1077 -1.2887 -0.3018
   31MOL    H9412754   5.940   2.017   4.185  3.2133  0.2984 -0.5668
   31MOL    H9512755   6.100   2.038   3.973 -0.3175 -0.1366 -2.4907
   31MOL    H9612756   5.919   1.872   3.856  1.2242 -1.0104 -1.9940
   31MOL    H9712757   5.870   2.003   3.769 -1.1414  0.8291  2.6814
   31MOL    H9812758   6.100   2.056   3.677  2.1241  0.0803  1.8341
   31MOL    H9912759   6.160   1.937   3.790  0.8774 -0.5690 -1.0820
   31MOL   H10012760   5.950   1.857   3.582  0.0130  0.8898 -0.1530
   31MOL   H10112761   6.064   1.766   3.688 -1.2999  0.4884  1.1530
   31MOL   H10212762   6.153   1.962   3.463 -0.4167  0.4479  2.3016
   31MOL   H10312763   6.245   1.837   3.547  0.2964  0.4788  0.2853
   31MOL   H10412764   6.088   1.675   3.414  2.2421  0.2593  0.6511
   31MOL   H10512765   6.193   1.781   3.318  1.4453 -0.5895  1.4174
   31MOL   H10612766   6.020   1.819   3.331 -1.4274  1.3290  2.8804
   31MOL   C10712767   5.930   2.180   3.970  0.5871  0.5888  0.4938
   31MOL   C10812768   6.003   2.279   3.883 -0.0245  0.0935 -0.3133
   31MOL   C10912769   5.920   2.400   3.846  0.1669 -1.1464 -0.8152
   31MOL   C11012770   5.823   2.364   3.730 -0.1802  0.0712  0.5104
   31MOL   C11112771   5.893   2.378   3.593  0.0849  0.2797  0.5840
   31MOL   C11212772   5.812   2.337   3.469 -0.9740 -0.6850  0.2258
   31MOL   C11312773   5.820   2.188   3.436 -0.3756  0.1440 -0.3360
   31MOL   H11412774   5.932   2.217   4.072 -0.3182  0.3970  0.5831
   31MOL   H11512775   5.823   2.168   3.954  0.4134  0.0379  2.0399
   31MOL   H11612776   6.033   2.231   3.790  2.4151 -1.3048  1.1445
   31MOL   H11712777   5.975   2.493   3.831  2.9437 -2.5808  0.1235
   31MOL   H11812778   5.857   2.425   3.932 -0.5365  0.8313 -1.8523
   31MOL   H11912779   5.751   2.283   3.744 -1.3757  0.9815 -0.2738
   31MOL   H12012780   5.755   2.449   3.738  0.2025  0.2703  1.7051
   31MOL   H12112781   5.979   2.311   3.582  0.8734  1.6192 -1.5701
   31MOL   H12212782   5.936   2.476   3.574 -1.3818  0.1012 -4.4598
   31MOL   H12312783   5.711   2.378   3.474 -0.4445  0.4684  2.1431
   31MOL   H12412784   5.849   2.395   3.385 -2.2856  2.3023  1.6283
   31MOL   H12512785   5.782   2.183   3.334 -2.7090 -1.2830  0.5468
   31MOL   H12612786   5.922   2.152   3.448 -0.4037 -0.1268 -0.8829
   31MOL   H12712787   5.759   2.127   3.503  1.7866 -0.9473  0.6651
   31MOL   C12812788   6.128   2.318   3.959  0.2068  0.0980  0.4935
   31MOL   C12912789   6.239   2.394   3.874  0.5731  0.1128  0.4050
   31MOL   C13012790   6.305   2.293   3.773 -0.3329  0.7695 -0.2534
   31MOL   C13112791   6.388   2.171   3.822 -0.1999 -0.2215  0.4706
   31MOL   C13212792   6.455   2.088   3.720  0.0251  1.0471 -0.0581
   31MOL   C13312793   6.513   1.948   3.771  0.5725  0.0071  0.3028
   31MOL   C13412794   6.584   1.873   3.660 -0.2327 -0.2845  0.3219
   31MOL   H13512795   6.095   2.384   4.038 -2.2240  0.0205 -0.4095
   31MOL   H13612796   6.171   2.228   4.004  0.9463 -0.7063 -1.7560
   31MOL   H13712797   6.182   2.468   3.817  1.9840 -0.8517 -2.3089
   31MOL   H13812798   6.373   2.350   3.710  0.0914 -0.9839 -1.4105
   31MOL   H13912799   6.235   2.251   3.701  0.3691 -0.9957  0.0579
   31MOL   H14012800   6.310   2.114   3.873  0.9542 -1.8098  0.4975
   31MOL   H14112801   6.458   2.202   3.900 -0.6598 -2.0572  1.6569
   31MOL   H14212802   6.530   2.150   3.670 -1.2582  2.2861 -0.4819
   31MOL   H14312803   6.390   2.066   3.635  0.4958  1.2431 -0.4743
   31MOL   H14412804   6.421   1.901   3.805  0.3034  0.6978  0.5340
   31MOL   H14512805   6.581   1.969   3.854  2.5718 -2.3330 -0.6787
   31MOL   H14612806   6.516   1.822   3.592  1.0165  0.5283 -1.5956
   31MOL   H14712807   6.652   1.798   3.701 -0.1076  1.0565  2.6653
   31MOL   H14812808   6.648   1.941   3.604  1.5849 -2.9166 -0.8681
   31MOL   C14912809   6.336   2.480   3.966  0.1740 -0.2699  0.5364
   31MOL   C15012810   6.418   2.590   3.892  0.0912 -0.7774  0.2817
   31MOL   C15112811   6.578   2.592   3.907 -0.4302 -0.0622  0.1253
   31MOL   C15212812   6.653   2.461   3.876  0.0188 -0.1634 -0.3734
   31MOL   C15312813   6.810   2.479   3.905 -0.6858  0.2052  0.5496
   31MOL   C15412814   6.900   2.355   3.904  0.3531  0.5957 -1.0349
   31MOL   C15512815   6.843   2.236   3.995  0.5399 -0.4157  0.3065
   31MOL   H15612816   6.276   2.524   4.046  1.0450  1.9454  0.0028
   31MOL   H15712817   6.399   2.408   4.019 -2.4272 -3.8104 -0.9058
   31MOL   H15812818   6.408   2.573   3.784 -0.0764  1.3768 -0.0645
   31MOL   H15912819   6.615   2.680   3.854 -2.7447  1.6826  1.2847
   31MOL   H16012820   6.592   2.613   4.013 -0.7870  1.6709 -0.1544
   31MOL   H16112821   6.622   2.437   3.774  2.0485 -2.1596 -0.5386
   31MOL   H16212822   6.607   2.383   3.937  1.6011 -0.2115  0.7808
   31MOL   H16312823   6.838   2.522   4.001  0.1616  3.6767 -1.1658
   31MOL   H16412824   6.851   2.544   3.828 -3.4457  0.9669 -0.3275
   31MOL   H16512825   7.003   2.381   3.926  0.4674  1.4585 -2.4783
   31MOL   H16612826   6.899   2.323   3.799  0.7486 -2.3970 -0.1619
   31MOL   H16712827   6.776   2.272   4.073  0.4954  2.7221 -1.1210
   31MOL   H16812828   6.926   2.175   4.032 -0.1038 -1.2984  0.3254
   31MOL   H16912829   6.782   2.173   3.929 -0.8929  0.5004  0.7289
   31MOL   C17012830   6.364   2.727   3.935  0.0406  0.6326 -0.5004
   31MOL   C17112831   6.223   2.768   3.872 -0.5891 -0.0569 -0.0172
   31MOL   C17212832   6.168   2.893   3.935 -0.0296 -0.6182  0.5253
   31MOL   C17312833   6.166   2.891   4.088  0.2499 -0.6235  0.3866
   31MOL   C17412834   6.093   3.017   4.148  0.4769  0.0902  0.0390
   31MOL   C17512835   5.940   3.037   4.113 -0.5058 -0.3119  0.5418
   31MOL   C17612836   5.831   2.937   4.171  0.2291 -0.2585 -0.3473
   31MOL   H17712837   6.436   2.806   3.915  1.6063 -0.6081  0.1764
   31MOL   H17812838   6.359   2.723   4.044  0.7195 -1.4639 -0.5340
   31MOL   H17912839   6.152   2.686   3.885 -0.3367 -0.5423 -1.5996
   31MOL   H18012840   6.065   2.902   3.900  0.5683 -0.1764 -1.2144
   31MOL   H18112841   6.219   2.984   3.903 -1.8516  0.2829  0.0710
   31MOL   H18212842   6.270   2.886   4.121  0.3494 -1.0726  0.0183
   31MOL   H18312843   6.113   2.803   4.123 -0.2967  0.3948  2.2260
   31MOL   H18412844   6.156   3.100   4.116  1.7797 -0.9644 -0.1941
   31MOL   H18512845   6.091   3.006   4.257  0.2705 -0.4768 -0.0232
   31MOL   H18612846   5.925   3.052   4.006  2.2255 -1.0673  0.0212
   31MOL   H18712847   5.915   3.135   4.154 -0.1273  0.8657 -1.9541
   31MOL   H18812848   5.869   2.845   4.125  1.9378 -0.3222  1.1714
   31MOL   H18912849   5.733   2.971   4.137 -0.0790 -0.3399  0.4452
   31MOL   H19012850   5.839   2.919   4.278  0.2458  0.3611 -0.2442
   31MOL   C19112851   6.237   2.786   3.718  1.4545 -0.6935  0.9739
   31MOL   C19212852   6.139   2.876   3.630  0.4051  0.3429  0.0879
   31MOL   C19312853   6.209   2.903   3.493  0.0732 -0.0785  0.7222
   31MOL   C19412854   6.258   2.777   3.411  0.0847 -0.6040  0.0058
   31MOL   C19512855   6.312   2.812   3.274 -0.1942  0.0069 -0.5892
   31MOL   C19612856   6.382   2.699   3.202 -0.2548 -0.5385 -0.0806
   31MOL   C19712857   6.277   2.596   3.163 -1.1432  0.3576  0.6976
   31MOL   H19812858   6.242   2.691   3.666 -0.0199 -0.3488  0.1671
   31MOL   H19912859   6.332   2.838   3.710 -0.0592  1.8227 -2.0930
   31MOL   H20012860   6.125   2.974   3.677  1.0520  0.7607 -0.5779
   31MOL   H20112861   6.301   2.961   3.501  1.4138 -1.9831 -0.4766
   31MOL   H20212862   6.141   2.955   3.425  1.0192  1.1350  0.6724
   31MOL   H20312863   6.183   2.699   3.395 -0.0011  0.0509 -2.9655
   31MOL   H20412864   6.332   2.727   3.473 -0.2264 -1.1710 -0.0736
   31MOL   H20512865   6.232   2.854   3.212 -2.9049 -0.4221  2.4840
   31MOL   H20612866   6.387   2.890   3.284  0.2499  0.1384 -4.1607
   31MOL   H20712867   6.456   2.653   3.266  0.2532  0.9302  0.3968
   31MOL   H20812868   6.431   2.738   3.113 -2.7264 -2.8528 -2.5766
   31MOL   H20912869   6.320   2.508   3.115 -1.0855 -0.0973  1.5786
   31MOL   H21012870   6.205   2.645   3.097  0.4019  0.9622 -0.5894
   31MOL   H21112871   6.227   2.563   3.253  0.6078  3.7477  3.0441
   31MOL   C21212872   6.003   2.804   3.618 -0.9795 -0.0979  0.5454
   31MOL   C21312873   5.879   2.894   3.654  0.0335  0.2999  0.0492
   31MOL   C21412874   5.883   3.035   3.583  0.2870  0.4063  0.5515
   31MOL   C21512875   5.868   3.017   3.425  0.4466  0.6233 -0.5330
   31MOL   C21612876   5.909   3.146   3.352 -0.1428  0.0191 -0.3914
   31MOL   C21712877   5.873   3.137   3.200  0.6069 -0.0450  0.4489
   31MOL   C21812878   5.721   3.158   3.169 -0.4191  0.2806  0.1661
   31MOL   H21912879   5.988   2.727   3.694  1.1908  0.5979  1.6848
   31MOL   H22012880   5.985   2.760   3.520 -0.9237  2.3482 -0.5972
   31MOL   H22112881   5.887   2.919   3.760  0.5826 -1.5731  0.4691
   31MOL   H22212882   5.789   3.080   3.615 -1.2110 -2.7183  0.7308
   31MOL   H22312883   5.959   3.111   3.601  0.5039  0.8373 -1.9484
   31MOL   H22412884   5.770   2.975   3.402  0.9793 -1.0300  0.2125
   31MOL   H22512885   5.936   2.939   3.393 -0.3154  0.2468 -1.2588
   31MOL   H22612886   5.864   3.228   3.407  0.3796  0.6671 -0.9290
   31MOL   H22712887   6.017   3.156   3.362 -0.0922  1.6414 -2.2509
   31MOL   H22812888   5.943   3.213   3.165 -1.0702  0.4520 -1.9451
   31MOL   H22912889   5.901   3.039   3.161 -0.9843 -0.2050 -0.3502
   31MOL   H23012890   5.687   3.245   3.224  3.5395  1.7852  0.4029
   31MOL   H23112891   5.668   3.065   3.192 -0.6583 -0.0273 -1.5793
   31MOL   H23212892   5.717   3.170   3.061 -2.1658 -1.2286  0.0280
   31MOL   C23312893   5.742   2.810   3.636  0.1503 -0.2359  0.1892
   31MOL   C23412894   5.648   2.804   3.760  0.7785 -0.0601  0.3445
   31MOL   C23512895   5.711   2.762   3.892 -0.0110  0.5939 -0.2432
   31MOL   C23612896   5.635   2.654   3.967  0.0504  0.2217 -0.5317
   31MOL   C23712897   5.694   2.598   4.099 -0.5381  0.2910 -0.3626
   31MOL   C23812898   5.631   2.464   4.146  0.6940 -0.2494  0.4185
   31MOL   C23912899   5.481   2.482   4.189  0.6633  0.1978 -0.6595
   31MOL   H24012900   5.755   2.706   3.605  3.1687  0.4026 -0.8998
   31MOL   H24112901   5.692   2.860   3.553  1.7689  0.5947 -0.3114
   31MOL   H24212902   5.569   2.734   3.734  1.6055 -0.4336 -1.2335
   31MOL   H24312903   5.709   2.847   3.961 -0.0677  2.0795 -2.0409
   31MOL   H24412904   5.816   2.737   3.879  0.1004  1.4318 -1.0237
   31MOL   H24512905   5.630   2.569   3.899 -1.4519 -0.2914  0.2047
   31MOL   H24612906   5.533   2.687   3.986 -0.1896 -1.7593  1.8694
   31MOL   H24712907   5.665   2.670   4.175 -0.5301 -0.1029  0.0089
   31MOL   H24812908   5.803   2.607   4.089 -0.4277 -1.1544 -0.4623
   31MOL   H24912909   5.628   2.394   4.063  1.1702 -1.0544  1.0589
   31MOL   H25012910   5.687   2.430   4.234 -0.0156  2.3533  1.9334
   31MOL   H25112911   5.479   2.544   4.279  1.0426 -0.4645 -0.1854
   31MOL   H25212912   5.427   2.524   4.105  0.0640  2.3152  0.7422
   31MOL   H25312913   5.429   2.390   4.214 -1.6181  1.3370 -1.1431
   31MOL   C25412914   5.573   2.946   3.770 -0.7895  0.3677 -0.6536
   31MOL   C25512915   5.472   2.974   3.887 -0.3509  0.6746  0.4424
   31MOL   C25612916   5.351   2.886   3.871  0.7579  0.0840  0.1552
   31MOL   C25712917   5.283   2.849   4.009 -0.1259 -0.2204  0.2703
   31MOL   C25812918   5.151   2.776   3.982  0.2263  0.5155 -0.0952
   31MOL   C25912919   5.170   2.627   3.947  0.1731 -0.0940 -0.1554
   31MOL   C26012920   5.041   2.560   3.900 -0.6815  0.3568  0.0548
   31MOL   H26112921   5.523   2.953   3.674  0.1731 -0.4376 -1.2263
   31MOL   H26212922   5.647   3.025   3.782 -2.5514  1.8016  1.0788
   31MOL   H26312923   5.524   2.941   3.977 -2.3412 -0.3901  1.2405
   31MOL   H26412924   5.373   2.794   3.816  1.9616  0.6061 -0.2406
   31MOL   H26512925   5.283   2.930   3.797  1.3493  0.1421 -0.3577
   31MOL   H26612926   5.352   2.792   4.072  1.0274  1.0999  0.2178
   31MOL   H26712927   5.263   2.946   4.054  0.6255  0.2509 -0.3865
   31MOL   H26812928   5.091   2.811   3.897 -0.7787 -0.2567  0.2888
   31MOL   H26912929   5.093   2.787   4.073 -1.9448  1.6422 -1.5582
   31MOL   H27012930   5.256   2.608   3.883  0.9284  0.1936  0.7767
   31MOL   H27112931   5.195   2.588   4.046 -0.4503  2.6919  1.1252
   31MOL   H27212932   4.953   2.597   3.953 -0.6957  3.0248 -1.7325
   31MOL   H27312933   5.032   2.569   3.792 -1.0508  0.3025  0.0801
   31MOL   H27412934   5.043   2.455   3.928 -0.4235 -0.3487 -2.4509
   31MOL   C27512935   5.442   3.125   3.887  0.6258  0.2910 -0.5877
   31MOL   C27612936   5.542   3.215   3.973 -0.5752  0.2258  0.0956
   31MOL   C27712937   5.537   3.184   4.129 -0.1217 -0.3433  0.0007
   31MOL   C27812938   5.409   3.222   4.202  0.3208 -0.2926 -0.0925
   31MOL   C27912939   5.412   3.168   4.343  0.0484 -0.4032 -0.5057
   31MOL   C28012940   5.297   3.216   4.434  0.5333 -0.5597  0.9293
   31MOL   C28112941   5.153   3.199   4.371  0.9229  0.0785 -1.1663
   31MOL   H28212942   5.339   3.147   3.916  2.0146  2.7972  2.8911
   31MOL   H28312943   5.438   3.167   3.787 -0.5947 -0.7129 -0.9757
   31MOL   H28412944   5.638   3.181   3.935 -1.1099 -1.4430  0.1952
   31MOL   H28512945   5.554   3.077   4.146  0.5866  0.0334  1.8461
   31MOL   H28612946   5.618   3.236   4.180 -0.1660 -0.0473 -0.2337
   31MOL   H28712947   5.328   3.170   4.150  0.8694 -1.2690  0.0278
   31MOL   H28812948   5.388   3.329   4.206  1.4628  0.0449 -2.6005
   31MOL   H28912949   5.504   3.200   4.390 -0.3204 -1.9476  1.3610
   31MOL   H29012950   5.406   3.059   4.340 -2.7826 -0.3162  0.0247
   31MOL   H29112951   5.301   3.148   4.519 -2.7271 -0.4400  1.2257
   31MOL   H29212952   5.298   3.323   4.457  1.2975 -0.2979 -0.2175
   31MOL   H29312953   5.134   3.094   4.350  0.6150 -0.0637 -0.1806
   31MOL   H29412954   5.143   3.252   4.276  1.3266 -1.7393 -2.2657
   31MOL   H29512955   5.079   3.245   4.436  1.7135  1.3635 -1.1641
   31MOL   C29612956   5.530   3.365   3.950  0.1061  0.6050 -0.2569
   31MOL   C29712957   5.665   3.439   3.965 -0.2063 -0.2164 -0.0879
   31MOL   C29812958   5.655   3.599   3.991 -0.2861  0.4301  0.0272
   31MOL   C29912959   5.579   3.638   4.117  0.9153 -0.5519 -0.1031
   31MOL   C30012960   5.614   3.571   4.254 -0.8961  0.3196 -0.0186
   31MOL   C30112961   5.522   3.611   4.371  0.2332  0.5179 -0.5822
   31MOL   C30212962   5.562   3.533   4.496 -0.3339  0.5009 -0.7784
   31MOL   H30312963   5.486   3.389   3.853 -1.3343  0.4035  0.3450
   31MOL   H30412964   5.459   3.407   4.021  0.0526  3.1759 -1.7710
   31MOL   H30512965   5.714   3.399   4.054 -0.0305 -0.7151 -0.4076
   31MOL   H30612966   5.757   3.637   3.995  0.0101 -0.4249  0.6881
   31MOL   H30712967   5.612   3.652   3.906 -2.0108 -1.7718 -0.5058
   31MOL   H30812968   5.471   3.638   4.102  0.3814  2.4440  2.8684
   31MOL   H30912969   5.580   3.746   4.135  1.6976 -0.6840  0.7269
   31MOL   H31012970   5.715   3.587   4.291 -0.9535  0.6237  0.0087
   31MOL   H31112971   5.606   3.463   4.250 -2.4186  0.2909  2.4696
   31MOL   H31212972   5.539   3.718   4.380 -3.0036  0.9414  1.5237
   31MOL   H31312973   5.417   3.594   4.346  0.7562  1.0607 -3.3279
   31MOL   H31412974   5.664   3.551   4.530 -0.2552  1.3497 -1.4455
   31MOL   H31512975   5.496   3.542   4.582  1.1840 -1.4850  0.6370
   31MOL   H31612976   5.565   3.426   4.474  2.5899  0.0146  1.6458
   31MOL   C31712977   5.768   3.417   3.846  0.9277  0.3244  0.1002
   31MOL   C31812978   5.921   3.450   3.846 -0.0290 -0.1837  0.0395
   31MOL   C31912979   5.997   3.381   3.966  0.4304  0.5028 -0.2685
   31MOL   C32012980   6.079   3.485   4.045  0.7090  0.7447  0.9625
   31MOL   C32112981   6.179   3.416   4.138 -0.2238 -0.5863  0.3154
   31MOL   C32212982   6.246   3.530   4.229 -0.4823 -0.0284 -0.2646
   31MOL   C32312983   6.329   3.627   4.148  0.5883 -0.6106 -0.2847
   31MOL   H32412984   5.735   3.481   3.764 -0.3042  0.2960  0.5771
   31MOL   H32512985   5.747   3.313   3.820 -2.7688  1.2325 -0.8152
   31MOL   H32612986   5.925   3.557   3.866  1.0303 -0.3686  0.8872
   31MOL   H32712987   6.054   3.298   3.927  0.3418  1.1929 -1.8811
   31MOL   H32812988   5.927   3.330   4.032  0.6932  1.1518  0.5205
   31MOL   H32912989   6.005   3.537   4.106 -0.1396 -0.3437  0.8889
   31MOL   H33012990   6.122   3.557   3.976  1.1720  0.2333  0.7142
   31MOL   H33112991   6.258   3.364   4.082  0.4492  0.9889 -0.2180
   31MOL   H33212992   6.132   3.345   4.206  1.5991  0.8571  3.1762
   31MOL   H33312993   6.313   3.471   4.291 -0.2345  2.6737  2.1498
   31MOL   H33412994   6.179   3.587   4.294  0.0449  0.4568 -0.1460
   31MOL   H33512995   6.384   3.691   4.217  1.2251 -0.0349 -1.2965
   31MOL   H33612996   6.274   3.703   4.092 -1.5063 -1.1301  1.0194
   31MOL   H33712997   6.404   3.585   4.081  1.7354  1.1926 -0.1843
   31MOL   C33812998   5.982   3.425   3.704  0.2946 -0.1319 -0.8126
   31MOL   C33912999   6.116   3.509   3.683  0.2114  0.5224  0.1139
   31MOL   C34013000   6.074   3.652   3.639 -0.2378 -0.0197  0.6141
   31MOL   C34113001   6.188   3.756   3.626  0.4084 -0.1341 -0.4041
   31MOL   C34213002   6.258   3.773   3.763  0.0676  0.2193  0.5685
   31MOL   C34313003   6.348   3.900   3.763 -0.3373  0.4516  0.2708
   31MOL   C34413004   6.413   3.929   3.898 -0.0053  0.3007  0.0608
   31MOL   H34513005   5.908   3.465   3.634 -0.7584 -0.0673  0.3250
   31MOL   H34613006   5.991   3.318   3.688  1.3160 -0.2401  0.4472
   31MOL   H34713007   6.167   3.507   3.780  1.4768  2.4740 -0.4947
   31MOL   H34813008   6.023   3.644   3.543 -0.8331 -0.4176  0.9580
   31MOL   H34913009   5.997   3.686   3.708  0.4148 -1.4506  2.0921
   31MOL   H35013010   6.137   3.844   3.589 -2.0506 -1.4318 -0.2146
   31MOL   H35113011   6.248   3.718   3.542 -1.5174 -1.5236 -1.1988
   31MOL   H35213012   6.181   3.787   3.839 -1.4371  0.0624 -0.9021
   31MOL   H35313013   6.305   3.684   3.805 -0.7433  0.4438  2.0098
   31MOL   H35413014   6.411   3.889   3.675 -0.8506  0.3321 -0.0913
   31MOL   H35513015   6.283   3.984   3.737 -1.7429 -0.0616  2.0150
   31MOL   H35613016   6.334   3.922   3.973  1.1197  0.0080  1.2357
   31MOL   H35713017   6.449   4.032   3.898  1.3621 -0.1580  1.1392
   31MOL   H35813018   6.491   3.857   3.923 -0.4590 -0.9145 -1.9180
   31MOL   C35913019   6.208   3.428   3.582  0.3724  0.3834  0.2466
   31MOL   C36013020   6.349   3.411   3.636  0.0107  0.4836 -0.0532
   31MOL   C36113021   6.346   3.296   3.745 -0.6939 -0.4633  0.0781
   31MOL   C36213022   6.462   3.295   3.847  0.0521 -0.0415  0.0721
   31MOL   C36313023   6.453   3.168   3.937  1.2021  0.0590  0.3953
   31MOL   C36413024   6.556   3.174   4.061 -0.1497 -0.7528  0.6509
   31MOL   C36513025   6.553   3.050   4.147 -0.2134 -0.6254 -0.4070
   31MOL   H36613026   6.217   3.487   3.491  3.7373  0.7102  0.7021
   31MOL   H36713027   6.177   3.330   3.548 -1.4829  0.7413  0.8754
   31MOL   H36813028   6.368   3.508   3.683 -0.2897 -0.3347  1.8043
   31MOL   H36913029   6.257   3.307   3.806 -0.3502 -0.6274  0.6120
   31MOL   H37013030   6.328   3.199   3.699  1.0975 -1.1238  0.6988
   31MOL   H37113031   6.565   3.310   3.815  0.7713 -0.8535  1.8996
   31MOL   H37213032   6.448   3.374   3.921  1.1957 -1.9463  2.4307
   31MOL   H37313033   6.353   3.171   3.980  0.3470  1.5765 -1.6288
   31MOL   H37413034   6.463   3.081   3.872 -2.2634 -1.1493  1.3601
   31MOL   H37513035   6.657   3.187   4.021 -1.8108  1.9359 -2.9490
   31MOL   H37613036   6.531   3.262   4.120 -0.5212 -1.1105  1.0220
   31MOL   H37713037   6.551   2.952   4.099 -1.4865 -0.4006 -0.8277
   31MOL   H37813038   6.646   3.047   4.204 -0.4264  1.1254  0.0420
   31MOL   H37913039   6.469   3.058   4.216 -1.0093 -1.5328 -1.2531
   31MOL   C38013040   6.453   3.378   3.522 -0.1813  0.1668 -0.5384
   31MOL   C38113041   6.489   3.500   3.439 -0.1377  0.5784  0.4463
   31MOL   C38213042   6.593   3.586   3.516  0.7095  0.4249 -0.3279
   31MOL   C38313043   6.651   3.705   3.447  0.3886  0.1239 -0.4057
   31MOL   C38413044   6.762   3.779   3.519 -0.2769 -0.0391  0.7016
   31MOL   C38513045   6.714   3.855   3.635 -0.2109 -0.5763  0.0768
   31MOL   C38613046   6.817   3.930   3.714  0.8860 -0.5692 -0.0626
   31MOL   H38713047   6.546   3.334   3.557 -0.7477 -0.7309 -0.1418
   31MOL   H38813048   6.402   3.301   3.465 -1.4071  1.5404 -1.3333
   31MOL   H38913049   6.401   3.561   3.419  0.2151  0.6092 -1.0791
   31MOL   H39013050   6.678   3.521   3.538  2.9810  3.2402 -0.5320
   31MOL   H39113051   6.557   3.615   3.615  0.1690  2.8047 -1.1797
   31MOL   H39213052   6.687   3.688   3.345  0.6262 -0.2877 -0.2527
   31MOL   H39313053   6.564   3.769   3.430  1.4176  1.5308 -0.4018
   31MOL   H39413054   6.834   3.706   3.556 -0.7856 -1.4156 -0.9184
   31MOL   H39513055   6.806   3.849   3.448  0.1831  1.5388  2.4966
   31MOL   H39613056   6.661   3.793   3.708  0.8191 -3.3147 -1.4447
   31MOL   H39713057   6.640   3.926   3.597  0.9086 -0.4939 -2.0040
   31MOL   H39813058   6.915   3.884   3.721  1.1068  0.1238  1.5443
   31MOL   H39913059   6.778   3.976   3.804 -0.3941  2.0151 -1.8709
   31MOL   H40013060   6.843   4.018   3.655 -1.4937 -1.1028 -1.9858
   31MOL   C40113061   6.556   3.448   3.304  1.0921  0.3836 -0.7492
   31MOL   C40213062   6.455   3.386   3.213  0.1359  0.5410 -0.0175
   31MOL   C40313063   6.518   3.379   3.076 -0.0607 -0.5559 -0.2162
   31MOL   C40413064   6.442   3.280   2.979  0.5426 -0.3702 -0.5281
   31MOL   C40513065   6.294   3.294   2.963  0.1912  0.2004  0.0091
   31MOL   C40613066   6.236   3.199   2.852 -0.2983  0.2832 -0.4725
   31MOL   C40713067   6.088   3.222   2.831 -0.1440 -0.0621  0.1381
   31MOL   H40813068   6.640   3.380   3.313  0.3675 -0.2951  0.9823
   31MOL   H40913069   6.596   3.528   3.241  2.2228 -0.0743 -0.6270
   31MOL   H41013070   6.366   3.450   3.217 -0.2044  0.2488 -2.0127
   31MOL   H41113071   6.623   3.356   3.091  0.3088  1.4925  0.3893
   31MOL   H41213072   6.519   3.475   3.024 -0.5731 -1.0919 -1.2308
   31MOL   H41313073   6.472   3.175   2.985 -0.9713 -0.8883 -1.7242
   31MOL   H41413074   6.478   3.312   2.881  2.5459 -0.1151  0.2570
   31MOL   H41513075   6.244   3.265   3.055  0.1427  3.5408  1.0909
   31MOL   H41613076   6.266   3.395   2.934  2.2460  0.9694  0.5938
   31MOL   H41713077   6.291   3.207   2.758 -0.2504  0.5221 -0.4243
   31MOL   H41813078   6.241   3.093   2.877  0.4037  0.0074 -1.7700
   31MOL   H41913079   6.072   3.143   2.759  0.6324 -0.0171 -0.0880
   31MOL   H42013080   6.077   3.315   2.775 -0.5199 -0.6522 -0.7664
   31MOL   H42113081   6.029   3.207   2.922 -2.1019  0.2876 -1.0423
   31MOL   H42213082   6.429   3.285   3.245 -0.7344  0.0685 -2.0753
   32MOL     C113083   7.480   3.426   3.446 -0.0835 -0.0660 -0.6913
   32MOL     C213084   7.552   3.289   3.432 -0.1312 -0.1020 -0.0515
   32MOL     C313085   7.453   3.169   3.396  0.5914  0.5024  0.0736
   32MOL     C413086   7.370   3.180   3.266 -0.2753 -0.1044 -0.4267
   32MOL     C513087   7.254   3.086   3.273  0.2780 -0.0566 -0.2255
   32MOL     C613088   7.169   3.065   3.142  0.5387  0.0690 -0.1093
   32MOL     C713089   7.061   3.172   3.120 -0.4733 -0.3706  0.2863
   32MOL     H813090   7.539   3.507   3.488 -0.7538 -0.0099  0.1812
   32MOL     H913091   7.391   3.413   3.508  1.0495 -3.5037  0.3767
   32MOL    H1013092   7.627   3.297   3.353  1.2089 -0.3401  1.1726
   32MOL    H1113093   7.507   3.075   3.406 -0.4170 -0.2441 -1.2985
   32MOL    H1213094   7.375   3.166   3.472 -1.2199 -1.0456 -1.7960
   32MOL    H1313095   7.332   3.280   3.248  0.9523  0.2771 -0.9917
   32MOL    H1413096   7.442   3.157   3.187 -1.4773 -0.7362 -1.3579
   32MOL    H1513097   7.179   3.113   3.348 -1.1573  0.4708 -1.8142
   32MOL    H1613098   7.284   2.985   3.301 -0.1856  0.5714  2.7796
   32MOL    H1713099   7.113   2.972   3.147  0.5517  0.0963  0.6421
   32MOL    H1813100   7.237   3.054   3.057 -2.4932 -0.5996 -2.5358
   32MOL    H1913101   6.978   3.135   3.060 -0.2212 -0.9651  0.2935
   32MOL    H2013102   7.110   3.260   3.079  0.2906 -1.2511 -0.7333
   32MOL    H2113103   7.032   3.205   3.220  0.9853 -1.1480  0.9889
   32MOL    H2213104   7.454   3.463   3.347 -0.5127 -0.6447 -0.8044
   32MOL    C2313105   7.622   3.267   3.574 -0.4619 -0.4616  0.4230
   32MOL    C2413106   0.015   3.159   3.576 -0.1923 -0.3540  0.0675
   32MOL    C2513107   0.050   3.110   3.721  0.2058 -0.1664  0.3899
   32MOL    C2613108   0.084   3.222   3.820 -0.1317 -0.0448  0.5767
   32MOL    C2713109   0.133   3.179   3.958 -0.7834  0.1787 -0.3124
   32MOL    C2813110   0.244   3.074   3.961 -0.0094 -0.0465  0.0050
   32MOL    C2913111   0.290   3.040   4.106  0.0855 -0.7140  0.4124
   32MOL    H3013112   7.668   3.358   3.614  1.3420 -1.5350  0.8392
   32MOL    H3113113   7.545   3.238   3.646 -1.0945 -0.0814 -0.0866
   32MOL    H3213114   7.699   3.069   3.522  1.0865 -1.9568  1.9728
   32MOL    H3313115   0.135   3.042   3.714  1.6864  1.6337  0.5046
   32MOL    H3413116   7.681   3.051   3.760  0.8703  1.6503  4.7596
   32MOL    H3513117   7.700   3.270   3.828  0.3155  0.8230  0.8291
   32MOL    H3613118   0.164   3.279   3.774 -1.3880 -0.3568 -2.0546
   32MOL    H3713119   0.044   3.134   4.003 -0.3775 -0.0189  0.2927
   32MOL    H3813120   0.162   3.263   4.022 -1.2018 -0.9921  1.4583
   32MOL    H3913121   0.330   3.114   3.908 -0.6730 -0.4941 -1.4350
   32MOL    H4013122   0.212   2.984   3.909  1.2727 -0.8409  0.5768
   32MOL    H4113123   0.206   3.011   4.170 -0.7175 -1.1044 -0.7930
   32MOL    H4213124   0.356   2.953   4.103  1.6657  0.4785  0.2826
   32MOL    H4313125   0.349   3.119   4.151  3.3010 -1.7653 -1.7826
   32MOL    C4413126   0.148   3.203   3.507  0.0401 -0.1828  0.3566
   32MOL    C4513127   0.261   3.091   3.496 -0.3431  0.1041  0.1389
   32MOL    C4613128   0.218   2.950   3.453 -0.4939  0.3985  0.5497
   32MOL    C4713129   0.172   2.946   3.308 -0.1693  0.2323 -0.9253
   32MOL    C4813130   0.093   2.816   3.280 -0.0118 -0.5281 -0.5685
   32MOL    C4913131   0.032   2.808   3.143 -0.7419  1.0142  0.4027
   32MOL    C5013132   7.627   2.904   3.111 -0.4694 -0.3128 -0.2238
   32MOL    H5113133   0.181   3.299   3.548  2.0819 -1.7504  2.5909
   32MOL    H5213134   0.121   3.227   3.405 -0.3850 -3.7753 -0.4274
   32MOL    H5313135   0.302   3.083   3.597 -0.5240  0.7216  0.2664
   32MOL    H5413136   0.146   2.914   3.527 -0.3114  0.3639  0.7118
   32MOL    H5513137   0.305   2.884   3.463 -0.2837  0.6430  0.3461
   32MOL    H5613138   0.098   3.025   3.297 -0.4183  0.2085  0.4710
   32MOL    H5713139   0.256   2.955   3.238  0.0003  1.0135 -0.6320
   32MOL    H5813140   0.018   2.801   3.359 -0.4583 -3.2205 -1.4590
   32MOL    H5913141   0.156   2.729   3.299  0.0473 -0.6810 -1.4659
   32MOL    H6013142   7.710   2.707   3.124  0.4138  1.0224 -1.9665
   32MOL    H6113143   0.104   2.820   3.062 -1.8013  1.0315 -0.5452
   32MOL    H6213144   7.555   2.920   3.190 -0.8276  0.5601 -0.7184
   32MOL    H6313145   7.575   2.877   3.019  1.9732 -0.4123 -1.6287
   32MOL    H6413146   7.665   3.001   3.080  0.8619 -1.3944 -2.1472
   32MOL    C6513147   0.372   3.144   3.404 -0.7535 -0.4095  0.3270
   32MOL    C6613148   0.483   3.224   3.484 -0.3195  0.2784  0.8105
   32MOL    C6713149   0.547   3.336   3.385  0.2405  1.0478 -0.5211
   32MOL    C6813150   0.653   3.282   3.286  0.0498 -0.7556  1.1375
   32MOL    C6913151   0.685   3.384   3.170 -0.0707  0.1397  0.0586
   32MOL    C7013152   0.762   3.324   3.048  0.2265  0.4066  0.2647
   32MOL    C7113153   0.694   3.218   2.966  0.3369  0.3470 -0.1671
   32MOL    H7213154   0.419   3.056   3.360  0.9473  0.3276  0.6443
   32MOL    H7313155   0.333   3.204   3.321 -1.6608 -0.3781  0.7752
   32MOL    H7413156   0.431   3.288   3.555 -0.8944 -0.2493  0.8699
   32MOL    H7513157   0.473   3.392   3.328  0.6993 -0.2291 -2.4240
   32MOL    H7613158   0.578   3.416   3.451  2.4059  0.2145 -0.4839
   32MOL    H7713159   0.750   3.261   3.332  0.4127 -0.2304  0.6169
   32MOL    H7813160   0.627   3.185   3.243  1.6105 -0.4552 -0.5269
   32MOL    H7913161   0.588   3.430   3.148  0.5561  2.8035  2.4622
   32MOL    H8013162   0.741   3.463   3.220 -1.3659  0.2088  1.4609
   32MOL    H8113163   0.863   3.290   3.071  0.2435  0.1897 -0.1286
   32MOL    H8213164   0.784   3.407   2.980 -2.1660 -0.2077 -1.3405
   32MOL    H8313165   0.608   3.256   2.911 -0.6680 -2.0936 -0.3577
   32MOL    H8413166   0.765   3.191   2.888  1.6446  2.1933  0.3532
   32MOL    H8513167   0.652   3.132   3.017 -2.5896  0.4802 -2.2520
   32MOL    C8613168   0.583   3.122   3.550 -0.9185  0.0109 -0.6379
   32MOL    C8713169   0.660   3.190   3.670  0.4097 -0.2148  0.4466
   32MOL    C8813170   0.585   3.211   3.799 -0.4179 -0.4725 -0.0015
   32MOL    C8913171   0.655   3.297   3.900 -0.1596 -0.1120 -0.7711
   32MOL    C9013172   0.560   3.330   4.024  0.0201 -0.1073  0.3219
   32MOL    C9113173   0.636   3.377   4.153  0.2118  0.3864 -0.0046
   32MOL    C9213174   0.540   3.396   4.274  0.5216  0.6733  0.5991
   32MOL    H9313175   0.532   3.036   3.595  2.2319 -1.0069  1.1032
   32MOL    H9413176   0.666   3.088   3.488 -1.3936 -1.2965 -0.5804
   32MOL    H9513177   0.694   3.291   3.648  2.1861 -1.3620 -2.4457
   32MOL    H9613178   0.487   3.252   3.774 -1.6014 -3.3230 -0.2505
   32MOL    H9713179   0.549   3.115   3.836 -1.1825 -1.2791 -2.7176
   32MOL    H9813180   0.745   3.245   3.934 -0.4014 -1.1182 -1.6752
   32MOL    H9913181   0.698   3.387   3.857 -3.6202  1.5300 -0.9914
   32MOL   H10013182   0.521   3.235   4.059  0.6071 -1.2120 -1.9407
   32MOL   H10113183   0.487   3.408   4.001  2.2293  1.5541 -1.2702
   32MOL   H10213184   0.716   3.308   4.181  0.2841 -0.2098 -1.6216
   32MOL   H10313185   0.688   3.469   4.128  0.7193  0.2479  0.5272
   32MOL   H10413186   0.473   3.477   4.248  1.0615  1.2018  0.8270
   32MOL   H10513187   0.592   3.440   4.359  1.2344 -1.3411  1.2503
   32MOL   H10613188   0.480   3.307   4.293  1.2490  0.4396  1.8604
   32MOL   C10713189   0.788   3.102   3.699  0.2968  0.4575  0.2601
   32MOL   C10813190   0.909   3.147   3.614  0.4335  0.2923  0.7175
   32MOL   C10913191   0.972   3.277   3.671  0.0485  0.1603 -0.0766
   32MOL   C11013192   1.033   3.367   3.569  0.0316 -0.6774 -0.3287
   32MOL   C11113193   1.072   3.512   3.608  0.8501 -0.0970 -0.4066
   32MOL   C11213194   1.162   3.580   3.505 -0.1649 -0.2022 -0.5795
   32MOL   C11313195   1.079   3.634   3.388 -0.6975  0.3741 -0.1151
   32MOL   H11413196   0.754   3.002   3.673  0.6803  0.4701 -0.2849
   32MOL   H11513197   0.819   3.097   3.804  1.4277 -2.8407 -0.1795
   32MOL   H11613198   0.874   3.166   3.512  1.5930  0.4696  0.3396
   32MOL   H11713199   1.036   3.250   3.755 -1.7896 -0.4691  1.1548
   32MOL   H11813200   0.896   3.339   3.718  0.3675 -0.5186  1.3714
   32MOL   H11913201   1.121   3.320   3.524 -0.8344 -0.8486 -1.8822
   32MOL   H12013202   0.961   3.368   3.487 -0.8374  1.4297  0.4432
   32MOL   H12113203   1.137   3.493   3.693  0.6265 -0.6389 -0.3593
   32MOL   H12213204   0.979   3.565   3.629  0.9987 -0.1637  0.4120
   32MOL   H12313205   1.209   3.667   3.550 -0.6242  1.1865 -2.6675
   32MOL   H12413206   1.240   3.515   3.465 -0.9918 -0.7402 -1.3381
   32MOL   H12513207   1.064   3.548   3.323  0.9948 -2.1520  2.6940
   32MOL   H12613208   0.979   3.666   3.418 -0.7173 -0.3882  0.6713
   32MOL   H12713209   1.129   3.722   3.349  1.9616 -1.4179 -0.9007
   32MOL   C12813210   1.019   3.041   3.601 -0.1324  0.4395 -0.3052
   32MOL   C12913211   1.035   2.948   3.476 -0.8199 -0.5868 -0.1074
   32MOL   C13013212   1.040   3.029   3.344  0.2194 -0.4053 -0.3136
   32MOL   C13113213   1.064   2.952   3.213  0.0795  0.4560  0.3496
   32MOL   C13213214   1.032   3.038   3.091  0.3862  0.1600  0.2361
   32MOL   C13313215   1.076   2.975   2.952  0.3553 -0.4461  0.5408
   32MOL   C13413216   1.060   3.073   2.842 -0.7039  0.3005 -0.1542
   32MOL   H13513217   1.119   3.085   3.608  0.5174 -1.2525  1.3183
   32MOL   H13613218   1.020   2.987   3.695  1.8243 -0.6734 -0.9472
   32MOL   H13713219   1.129   2.894   3.477  1.0799  2.5699 -1.8946
   32MOL   H13813220   1.127   3.092   3.360  0.5973 -0.9337 -0.2527
   32MOL   H13913221   0.957   3.098   3.338 -0.4854 -1.0412  1.7071
   32MOL   H14013222   1.014   2.856   3.206 -0.7387  0.7085  2.2250
   32MOL   H14113223   1.168   2.918   3.209 -0.0084  0.2553 -0.2885
   32MOL   H14213224   1.088   3.130   3.108  2.7765 -1.2533  0.1708
   32MOL   H14313225   0.929   3.075   3.086 -0.0093 -1.1312 -1.4977
   32MOL   H14413226   1.026   2.880   2.936  0.3005 -0.7898  2.5981
   32MOL   H14513227   1.180   2.941   2.952 -0.2771 -2.4226 -0.0219
   32MOL   H14613228   0.966   3.049   2.793 -1.4642 -0.8230  1.8040
   32MOL   H14713229   1.134   3.067   2.762  0.4555  1.5036  0.7956
   32MOL   H14813230   1.048   3.178   2.870 -1.2454  0.3942 -0.7313
   32MOL   C14913231   0.920   2.840   3.474 -0.3716 -0.3374 -0.8673
   32MOL   C15013232   0.898   2.749   3.601 -0.1375 -0.0879  0.0805
   32MOL   C15113233   1.026   2.665   3.628 -0.1215 -0.6558  0.0171
   32MOL   C15213234   1.037   2.593   3.761 -0.5781  0.2823 -0.0010
   32MOL   C15313235   1.185   2.543   3.776 -0.2381  0.1572 -0.4529
   32MOL   C15413236   1.217   2.470   3.903 -0.6533  0.4011  0.5027
   32MOL   C15513237   1.366   2.480   3.949 -0.2194 -0.9440  0.0902
   32MOL   H15613238   0.834   2.900   3.446 -1.6213 -0.8140  1.7844
   32MOL   H15713239   0.934   2.780   3.384 -0.1318 -0.4645 -0.7450
   32MOL   H15813240   0.870   2.812   3.685 -0.3811  1.5006 -1.1688
   32MOL   H15913241   1.052   2.592   3.552  2.3207  0.7109 -0.5149
   32MOL   H16013242   1.107   2.737   3.629  0.2593 -1.0842  1.2003
   32MOL   H16113243   0.975   2.504   3.765  2.3582 -1.8529  0.0454
   32MOL   H16213244   1.014   2.650   3.850  0.2429 -1.2021  1.1932
   32MOL   H16313245   1.255   2.622   3.750 -0.5720 -0.0749 -2.1020
   32MOL   H16413246   1.219   2.478   3.695 -1.9969 -1.1794 -0.1652
   32MOL   H16513247   1.201   2.363   3.889  3.0929  0.1190 -2.4795
   32MOL   H16613248   1.154   2.495   3.989  1.3503  1.4061  1.7135
   32MOL   H16713249   1.383   2.587   3.946  0.3022 -1.0057  0.7208
   32MOL   H16813250   1.435   2.426   3.883  0.1173 -0.0644 -0.2875
   32MOL   H16913251   1.382   2.439   4.049 -0.2640 -2.2794 -0.4282
   32MOL   C17013252   0.786   2.652   3.570  0.1118  0.0305 -0.9445
   32MOL   C17113253   0.644   2.708   3.585  0.1710 -0.0177  0.0487
   32MOL   C17213254   0.559   2.690   3.454 -0.3431  0.0640 -0.6345
   32MOL   C17313255   0.604   2.765   3.328 -0.3266  0.1445  0.7311
   32MOL   C17413256   0.504   2.726   3.213 -0.4970 -0.3733  0.0499
   32MOL   C17513257   0.511   2.830   3.099 -0.0536  0.5024 -1.1700
   32MOL   C17613258   0.651   2.845   3.044  0.1316  0.2810  0.0531
   32MOL   H17713259   0.800   2.552   3.613 -0.3212 -0.2052 -1.3456
   32MOL   H17813260   0.786   2.628   3.464  0.0135  1.4955 -1.2859
   32MOL   H17913261   0.644   2.815   3.606 -1.9468  0.2243 -1.0303
   32MOL   H18013262   0.453   2.711   3.471 -0.1926  1.0114 -0.8642
   32MOL   H18113263   0.557   2.585   3.425 -1.9412  0.6704 -2.8156
   32MOL   H18213264   0.701   2.736   3.288 -1.2270  0.9786 -2.1665
   32MOL   H18313265   0.620   2.870   3.351 -1.1470  0.5579 -0.5706
   32MOL   H18413266   0.401   2.721   3.248 -1.0151 -1.8848 -1.6547
   32MOL   H18513267   0.533   2.627   3.178  3.9608  1.2290 -1.2241
   32MOL   H18613268   0.477   2.926   3.137  0.3701  0.8021 -1.5589
   32MOL   H18713269   0.449   2.798   3.015 -2.1947 -0.2516  0.6524
   32MOL   H18813270   0.700   2.751   3.018  2.5862  1.2459  0.9789
   32MOL   H18913271   0.716   2.890   3.119 -0.6113  0.2468  0.7196
   32MOL   H19013272   0.658   2.907   2.955  1.0642 -0.3519 -0.3281
   32MOL   C19113273   0.562   2.642   3.699  0.9321 -0.0073  0.0597
   32MOL   C19213274   0.631   2.645   3.838 -0.7711  0.2163 -0.7926
   32MOL   C19313275   0.592   2.768   3.920 -0.0361 -0.2437 -0.6595
   32MOL   C19413276   0.708   2.807   4.018 -0.4893 -0.1009 -0.0999
   32MOL   C19513277   0.694   2.948   4.066  0.3254  0.2713 -0.3160
   32MOL   C19613278   0.805   2.989   4.167  0.0707  0.6921 -0.9923
   32MOL   C19713279   0.941   3.030   4.104  0.7611 -0.1818 -0.1658
   32MOL   H19813280   0.536   2.540   3.672 -1.5083  0.8679 -1.0467
   32MOL   H19913281   0.463   2.687   3.707  0.5328 -0.8178 -0.3558
   32MOL   H20013282   0.740   2.643   3.825 -0.5978 -2.0215  0.6931
   32MOL   H20113283   0.507   2.753   3.986  1.1262  2.1067  1.4722
   32MOL   H20213284   0.565   2.851   3.854 -4.0059 -1.7473 -1.0392
   32MOL   H20313285   0.809   2.791   3.979 -1.0086 -1.9704 -0.7552
   32MOL   H20413286   0.697   2.740   4.103  0.5537 -1.4980 -1.0193
   32MOL   H20513287   0.674   3.025   3.991 -1.0518  1.8647  1.6557
   32MOL   H20613288   0.594   2.953   4.110 -0.7739 -1.1987 -2.5339
   32MOL   H20713289   0.814   2.903   4.233 -0.0974 -2.1214 -4.4610
   32MOL   H20813290   0.769   3.066   4.236 -1.4479 -1.1044  0.2747
   32MOL   H20913291   0.981   2.942   4.053  1.3101  1.2051 -2.1978
   32MOL   H21013292   1.015   3.064   4.176  0.2418 -0.3942  0.4765
   32MOL   H21113293   0.932   3.114   4.036  1.1777 -0.5795 -0.7212
   32MOL   C21213294   0.600   2.517   3.921  0.2776  0.3067 -0.3592
   32MOL   C21313295   0.712   2.415   3.918 -0.7560 -0.9310  0.1782
   32MOL   C21413296   0.840   2.456   4.002 -0.2649 -0.0403 -0.1522
   32MOL   C21513297   0.834   2.464   4.150 -0.1243  0.6515 -0.1514
   32MOL   C21613298   0.968   2.514   4.197  0.2859 -0.1556  0.1326
   32MOL   C21713299   0.994   2.502   4.349  0.2796 -0.5547 -0.8456
   32MOL   C21813300   0.875   2.556   4.428  0.4793 -0.3348  0.0798
   32MOL   H21913301   0.507   2.495   3.868  0.1149  0.1895 -0.0219
   32MOL   H22013302   0.574   2.530   4.026 -0.2847 -0.8622 -0.3503
   32MOL   H22113303   0.740   2.406   3.813 -0.5827 -1.6413  0.2837
   32MOL   H22213304   0.929   2.403   3.967 -0.2863 -1.1544  1.4497
   32MOL   H22313305   0.863   2.556   3.965  0.5739  0.1230  0.8183
   32MOL   H22413306   0.818   2.369   4.201 -0.9359  1.1149  0.4783
   32MOL   H22513307   0.753   2.523   4.192 -0.9064 -1.5958  1.5852
   32MOL   H22613308   1.046   2.452   4.152  0.6732  0.3837  0.0638
   32MOL   H22713309   0.978   2.617   4.163 -1.7660  0.5826  1.7001
   32MOL   H22813310   1.018   2.399   4.377 -0.4294 -0.4188  0.2785
   32MOL   H22913311   1.090   2.548   4.372 -0.5000  1.0920 -0.8589
   32MOL   H23013312   0.789   2.490   4.439 -1.1853  1.3697 -2.3415
   32MOL   H23113313   0.835   2.649   4.390  1.3641 -0.1101 -0.3073
   32MOL   H23213314   0.910   2.572   4.530 -0.4255  0.6118  0.2457
   32MOL   C23313315   0.667   2.273   3.958 -0.4089  0.2023  0.5515
   32MOL   C23413316   0.753   2.146   3.931  0.8810 -0.1522  0.8428
   32MOL   C23513317   0.698   2.018   4.002 -0.9778 -0.1286 -0.0216
   32MOL   C23613318   0.566   1.966   3.944  0.5903  0.2547 -0.0035
   32MOL   C23713319   0.546   1.818   3.962  0.4847  0.6636 -0.4949
   32MOL   C23813320   0.499   1.773   4.097 -0.4360  0.1717 -0.3024
   32MOL   C23913321   0.432   1.635   4.088 -0.1562  0.3131  0.4307
   32MOL   H24013322   0.569   2.255   3.914  0.7272 -1.7289 -1.2544
   32MOL   H24113323   0.638   2.275   4.064 -1.1298 -0.4399  0.3741
   32MOL   H24213324   0.842   2.170   3.990  1.0711  1.8023 -0.1804
   32MOL   H24313325   0.689   2.039   4.109 -1.1820  1.6329 -0.3752
   32MOL   H24413326   0.770   1.936   4.001 -0.3913  0.3207  2.4074
   32MOL   H24513327   0.566   1.986   3.836 -0.1884  1.6893  0.2463
   32MOL   H24613328   0.487   2.023   3.993 -1.4424 -1.4965 -1.0803
   32MOL   H24713329   0.624   1.757   3.916  1.2804  1.5452 -0.3219
   32MOL   H24813330   0.460   1.797   3.899 -0.0069  1.6382 -0.1598
   32MOL   H24913331   0.581   1.764   4.168  0.2590 -0.4862 -1.1760
   32MOL   H25013332   0.425   1.847   4.127 -0.2485  0.1261  0.2620
   32MOL   H25113333   0.349   1.638   4.017 -0.4142  1.0317  0.7593
   32MOL   H25213334   0.499   1.563   4.039 -0.9080 -0.1225  0.0282
   32MOL   H25313335   0.402   1.592   4.183  1.2682  0.0955  0.7933
   32MOL   C25413336   0.807   2.136   3.786  0.5613 -0.2841  0.1746
   32MOL   C25513337   0.893   2.014   3.752 -0.1374  0.1527 -0.0403
   32MOL   C25613338   1.028   2.006   3.825  0.3341 -0.2895 -0.2257
   32MOL   C25713339   1.097   1.865   3.834  0.6346 -0.0037 -0.1228
   32MOL   C25813340   1.243   1.884   3.873  0.0832 -0.3442 -0.8578
   32MOL   C25913341   1.319   1.753   3.893 -0.0029  0.2227 -0.4679
   32MOL   C26013342   1.400   1.702   3.776 -0.2875 -0.4994 -0.3121
   32MOL   H26113343   0.871   2.221   3.760 -0.2051 -1.0017 -4.3881
   32MOL   H26213344   0.717   2.128   3.724 -0.5215  2.1997  1.3205
   32MOL   H26313345   0.834   1.927   3.778 -2.0291  1.3680 -0.1439
   32MOL   H26413346   1.010   2.039   3.928  0.6745 -0.6391 -0.0532
   32MOL   H26513347   1.094   2.081   3.781  1.3073 -0.7449  0.4455
   32MOL   H26613348   1.039   1.796   3.896 -0.0104  2.1341  1.7125
   32MOL   H26713349   1.093   1.820   3.735  0.0643  1.1960 -0.6500
   32MOL   H26813350   1.245   1.939   3.966 -0.2382  2.0955 -2.2515
   32MOL   H26913351   1.303   1.942   3.802  0.0841 -0.2383 -0.7704
   32MOL   H27013352   1.387   1.762   3.978  1.6160 -0.2828 -1.6813
   32MOL   H27113353   1.247   1.680   3.931 -0.0299  1.2103  1.4607
   32MOL   H27213354   1.451   1.785   3.727  2.7954 -1.0823  1.8035
   32MOL   H27313355   1.480   1.635   3.807  0.4759  0.4912 -0.1248
   32MOL   H27413356   1.337   1.651   3.703  0.8238 -2.5040  0.0844
   32MOL   C27513357   0.904   2.006   3.603  0.0742  0.1677  0.0645
   32MOL   C27613358   0.778   1.984   3.506  0.5493 -0.5205 -0.5342
   32MOL   C27713359   0.709   1.848   3.546  0.3389  0.2642 -0.0644
   32MOL   C27813360   0.561   1.841   3.502  0.3484 -1.0007  0.0144
   32MOL   C27913361   0.500   1.705   3.521 -0.1715  0.5651 -0.4232
   32MOL   C28013362   0.541   1.597   3.410  0.8904  0.2766  0.4077
   32MOL   C28113363   0.487   1.457   3.454  0.4523  0.1643  0.0383
   32MOL   H28213364   0.982   1.935   3.574  0.7289  0.3998  1.2366
   32MOL   H28313365   0.948   2.100   3.571 -1.0407  1.0017  0.9712
   32MOL   H28413366   0.702   2.060   3.527  0.0191 -0.9014 -1.0583
   32MOL   H28513367   0.763   1.763   3.504  1.7703  0.4724  1.3411
   32MOL   H28613368   0.713   1.836   3.654  0.7457 -1.0030 -0.2088
   32MOL   H28713369   0.543   1.879   3.401 -1.6532  0.1966  0.8104
   32MOL   H28813370   0.505   1.911   3.564  2.2111  0.2924  0.2766
   32MOL   H28913371   0.393   1.723   3.513 -0.5028 -1.4748 -0.6812
   32MOL   H29013372   0.517   1.663   3.620 -2.8538 -0.1933 -0.2437
   32MOL   H29113373   0.485   1.616   3.318  2.4986  0.1602 -0.6165
   32MOL   H29213374   0.645   1.602   3.377  0.9338  1.1229  0.6539
   32MOL   H29313375   0.472   1.400   3.363 -0.7154 -1.0473  0.9637
   32MOL   H29413376   0.388   1.469   3.500  0.9008 -1.3450  1.4716
   32MOL   H29513377   0.561   1.403   3.512 -1.6765 -2.1203  0.7598
   32MOL   C29613378   0.816   1.980   3.356  0.1968  0.6414  0.2562
   32MOL   C29713379   0.858   2.110   3.284 -0.3366 -0.5259 -0.1193
   32MOL   C29813380   0.761   2.228   3.315  0.1393  0.2641 -0.2898
   32MOL   C29913381   0.616   2.214   3.285  0.3321 -0.1615 -0.3375
   32MOL   C30013382   0.519   2.322   3.348  0.3939 -0.3490 -0.6307
   32MOL   C30113383   0.383   2.269   3.404  0.1441  0.3409 -0.0705
   32MOL   C30213384   0.395   2.208   3.543  0.5794  1.2632 -0.4636
   32MOL   H30313385   0.888   1.900   3.340  0.6238  1.2331 -0.8481
   32MOL   H30413386   0.728   1.941   3.306  0.4350  0.4233  0.0063
   32MOL   H30513387   0.954   2.146   3.322  0.2769 -0.3905 -1.7567
   32MOL   H30613388   0.765   2.248   3.422 -0.7757 -0.7282 -0.0620
   32MOL   H30713389   0.790   2.322   3.267  1.9068  0.9249  1.9551
   32MOL   H30813390   0.580   2.127   3.339 -0.7337 -0.0755 -0.8786
   32MOL   H30913391   0.583   2.189   3.184  0.4533  1.1815 -0.7140
   32MOL   H31013392   0.490   2.401   3.279  1.4501  0.3849 -0.2623
   32MOL   H31113393   0.561   2.363   3.440 -1.0172 -3.2506  1.3976
   32MOL   H31213394   0.311   2.350   3.392 -1.2722 -0.9953 -0.8344
   32MOL   H31313395   0.346   2.189   3.339 -3.0050  1.7823 -0.1218
   32MOL   H31413396   0.300   2.192   3.593  1.0092 -1.4155 -0.4637
   32MOL   H31513397   0.449   2.114   3.541  0.7088  1.3209  0.4505
   32MOL   H31613398   0.448   2.279   3.606  1.3481 -1.5530  2.1185
   32MOL   C31713399   0.869   2.079   3.127  0.7278  0.2507 -0.2416
   32MOL   C31813400   0.915   2.197   3.033 -0.4736 -0.3189 -0.0800
   32MOL   C31913401   1.068   2.220   3.040  0.2958  0.0630 -0.0031
   32MOL   C32013402   1.127   2.353   2.979  0.5846  0.3212 -0.1050
   32MOL   C32113403   1.068   2.475   3.044  0.2462 -0.3217 -0.8132
   32MOL   C32213404   1.119   2.603   2.966 -0.2484  0.1298 -1.1490
   32MOL   C32313405   1.043   2.622   2.839  0.5008  0.1323 -0.3230
   32MOL   H32413406   0.777   2.037   3.084 -0.6715  1.6852  1.2864
   32MOL   H32513407   0.945   2.001   3.132  0.1407 -0.2304  1.7691
   32MOL   H32613408   0.865   2.287   3.068 -1.5902 -1.1239  0.4252
   32MOL   H32713409   1.120   2.136   2.994 -2.4359 -1.1182 -1.0484
   32MOL   H32813410   1.092   2.212   3.146  1.6619  0.6386 -0.2613
   32MOL   H32913411   1.091   2.356   2.877 -0.6493  0.8972  0.3341
   32MOL   H33013412   1.236   2.349   2.975  0.5739 -3.4629  0.7226
   32MOL   H33113413   1.087   2.480   3.152 -0.8337 -1.7311 -0.5442
   32MOL   H33213414   0.960   2.488   3.040  0.6394  3.9495  0.1467
   32MOL   H33313415   1.224   2.584   2.940  0.4116  0.6770  1.0456
   32MOL   H33413416   1.121   2.699   3.018  0.8420 -0.3262 -0.3302
   32MOL   H33513417   1.072   2.699   2.769  1.1291  1.0083  0.8759
   32MOL   H33613418   0.940   2.652   2.860  0.7880  0.8994 -0.0078
   32MOL   H33713419   1.026   2.527   2.788 -1.4846 -1.2407  2.7432
   32MOL   C33813420   0.869   2.177   2.889 -0.6865  0.0722  0.2738
   32MOL   C33913421   0.729   2.221   2.855 -0.3548  0.1719  0.2099
   32MOL   C34013422   0.678   2.124   2.744  0.1446 -0.3172  0.3303
   32MOL   C34113423   0.639   1.974   2.783  0.5077 -0.0837  0.5298
   32MOL   C34213424   0.525   1.969   2.879  0.4329  0.0796 -0.3433
   32MOL   C34313425   0.516   1.834   2.944  1.2387  0.5841  0.1751
   32MOL   C34413426   0.393   1.800   3.013  0.2383 -0.0779 -0.0834
   32MOL   H34513427   0.893   2.073   2.869 -2.9600 -0.5913  0.8244
   32MOL   H34613428   0.925   2.234   2.814  0.8453 -2.0016 -0.1871
   32MOL   H34713429   0.675   2.192   2.945  0.7219 -0.7814  0.5703
   32MOL   H34813430   0.585   2.168   2.709  1.5336  0.7343 -2.2098
   32MOL   H34913431   0.748   2.125   2.660  0.2510  0.4076  0.4221
   32MOL   H35013432   0.728   1.915   2.809 -0.5060 -1.4199  1.0349
   32MOL   H35113433   0.598   1.926   2.694 -1.4040  1.4971  0.5433
   32MOL   H35213434   0.539   2.039   2.962 -1.5905  1.2035 -0.9053
   32MOL   H35313435   0.424   1.987   2.842  1.2981  1.5300 -2.0853
   32MOL   H35413436   0.525   1.768   2.858  1.4379  0.3013  0.4125
   32MOL   H35513437   0.612   1.820   2.994  0.7939  2.8771  1.7440
   32MOL   H35613438   0.306   1.818   2.950 -0.0198 -1.4950 -0.1414
   32MOL   H35713439   0.368   1.871   3.092 -1.0581  0.9709 -1.4079
   32MOL   H35813440   0.383   1.700   3.055 -0.0904  0.3662  0.9304
   32MOL   C35913441   0.718   2.375   2.822  0.2736 -0.4774 -0.7098
   32MOL   C36013442   0.572   2.429   2.807 -0.2337 -0.3596  0.5933
   32MOL   C36113443   0.477   2.398   2.931  0.7436  0.1272 -1.1612
   32MOL   C36213444   0.333   2.451   2.924 -0.7431  0.0067  0.6258
   32MOL   C36313445   0.239   2.405   3.031  0.7803  0.2464 -0.4061
   32MOL   C36413446   0.208   2.253   3.025  0.2009 -0.3866  0.2110
   32MOL   C36513447   0.096   2.221   3.130  0.0359  0.0933  0.1012
   32MOL   H36613448   0.768   2.403   2.729 -0.7965  1.8074 -0.6292
   32MOL   H36713449   0.766   2.433   2.900  1.5623  1.2204 -2.7105
   32MOL   H36813450   0.533   2.389   2.713 -2.9236  1.6981  0.7907
   32MOL   H36913451   0.466   2.290   2.944 -1.5707  0.4904  0.1736
   32MOL   H37013452   0.517   2.431   3.027  0.9082  0.0470 -1.2016
   32MOL   H37113453   0.347   2.559   2.933  1.7204 -0.1476 -0.7137
   32MOL   H37213454   0.294   2.436   2.823 -3.6612  0.8427  1.5840
   32MOL   H37313455   0.276   2.424   3.132 -1.1564  2.8520 -0.1116
   32MOL   H37413456   0.143   2.456   3.017  1.0015  0.7129 -0.2276
   32MOL   H37513457   0.187   2.225   2.921  0.7556 -2.2636  0.5815
   32MOL   H37613458   0.300   2.200   3.048 -1.5496 -3.8978 -0.5820
   32MOL   H37713459   0.015   2.294   3.131  0.1677  0.2288  0.8860
   32MOL   H37813460   0.041   2.130   3.105 -0.9964 -0.5437  4.2779
   32MOL   H37913461   0.143   2.208   3.227 -2.7541 -0.3910  1.4202
   32MOL   C38013462   0.580   2.585   2.795  0.0426 -0.4797  0.5039
   32MOL   C38113463   0.608   2.650   2.656 -0.3591  0.2524  0.1994
   32MOL   C38213464   0.481   2.645   2.567 -0.2870  0.0348 -0.2396
   32MOL   C38313465   0.375   2.745   2.609 -0.1466 -0.1754  0.2883
   32MOL   C38413466   0.254   2.731   2.514 -0.4301 -0.2163 -0.3300
   32MOL   C38513467   0.129   2.815   2.547  0.1821  0.8394 -1.0975
   32MOL   C38613468   0.079   2.787   2.688  0.1632 -0.0802 -0.3734
   32MOL   H38713469   0.496   2.642   2.835 -0.7040 -1.5545  0.4855
   32MOL   H38813470   0.654   2.607   2.872 -0.1010  2.5099 -0.1644
   32MOL   H38913471   0.681   2.583   2.609 -0.7056  0.3607 -0.4966
   32MOL   H39013472   0.438   2.545   2.570  1.5309 -0.7620 -0.5354
   32MOL   H39113473   0.504   2.653   2.461  0.4353  0.9461 -0.0180
   32MOL   H39213474   0.355   2.715   2.711 -0.6072 -0.8850 -0.0129
   32MOL   H39313475   0.395   2.852   2.620  0.4663 -0.4860  2.3308
   32MOL   H39413476   0.286   2.756   2.413  0.2789  0.9602  0.1798
   32MOL   H39513477   0.223   2.627   2.499 -1.9479  0.0943  0.4664
   32MOL   H39613478   0.053   2.783   2.475  1.2979 -1.4288 -1.3127
   32MOL   H39713479   0.148   2.922   2.549  0.8909  0.7088 -0.8792
   32MOL   H39813480   7.703   2.844   2.712  0.8912  1.7809 -1.9737
   32MOL   H39913481   0.149   2.831   2.760  1.9391 -1.7584 -1.0333
   32MOL   H40013482   0.059   2.682   2.709  0.4301 -0.0020  0.2896
   32MOL   C40113483   0.672   2.785   2.668  0.5313  0.3325  0.0945
   32MOL   C40213484   0.719   2.848   2.529 -0.5446  0.1287  0.5020
   32MOL   C40313485   0.769   2.997   2.537  0.1431 -0.4640  0.5857
   32MOL   C40413486   0.666   3.100   2.576  0.0908  0.2894  0.5476
   32MOL   C40513487   0.722   3.242   2.575  0.3619  0.8774 -0.5069
   32MOL   C40613488   0.617   3.357   2.601  0.0785  1.0649  0.2868
   32MOL   C40713489   0.688   3.488   2.635  0.0918 -0.2942 -0.2721
   32MOL   H40813490   0.754   2.792   2.739  1.2794  3.2870 -1.0030
   32MOL   H40913491   0.597   2.856   2.704 -0.7728 -0.8264 -0.2840
   32MOL   H41013492   0.638   2.832   2.458  0.6556 -0.6256 -0.7291
   32MOL   H41113493   0.823   3.024   2.446  1.6536  0.3319  1.7025
   32MOL   H41213494   0.854   3.006   2.605  2.0005  1.2672 -1.8601
   32MOL   H41313495   0.619   3.087   2.673  0.7567  0.7604  0.9350
   32MOL   H41413496   0.589   3.093   2.499  0.3760  0.1426  0.2760
   32MOL   H41513497   0.800   3.249   2.651 -1.1586  2.4328  0.9569
   32MOL   H41613498   0.783   3.259   2.487  1.3970  1.8092  0.3913
   32MOL   H41713499   0.574   3.365   2.502 -1.6265 -1.7578  0.7250
   32MOL   H41813500   0.544   3.325   2.676  0.9615  2.8375  1.9641
   32MOL   H41913501   0.732   3.487   2.735 -1.2129 -1.3873  0.2985
   32MOL   H42013502   0.609   3.562   2.638 -1.2771 -1.7126 -0.3725
   32MOL   H42113503   0.766   3.514   2.564  0.7798  1.4649  1.0944
   32MOL   H42213504   0.808   2.795   2.494  0.5852  2.4204 -0.1573
   33MOL     C113505   1.111   3.204   5.658  0.1417  0.6930 -0.1418
   33MOL     C213506   1.246   3.162   5.595 -0.4947  0.0653  0.3721
   33MOL     C313507   1.298   3.263   5.491 -0.3120 -0.0814  0.1824
   33MOL     C413508   1.227   3.264   5.350 -0.6971 -0.1430  0.5210
   33MOL     C513509   1.290   3.373   5.262  0.0576 -0.2046  0.3041
   33MOL     C613510   1.184   3.414   5.155  0.4028 -0.8615  0.1303
   33MOL     C713511   1.242   3.529   5.065  0.4131  0.2659  0.2195
   33MOL     H813512   1.111   3.308   5.691 -0.2465  0.6884 -0.1332
   33MOL     H913513   1.068   3.137   5.733 -0.1084  1.0660  0.0550
   33MOL    H1013514   1.329   3.170   5.666  1.2335  0.8060 -1.6662
   33MOL    H1113515   1.294   3.359   5.543 -0.3039  0.0949 -0.1406
   33MOL    H1213516   1.405   3.242   5.481 -0.2835 -0.4117  1.1275
   33MOL    H1313517   1.221   3.168   5.299  1.2514 -1.5151  2.7806
   33MOL    H1413518   1.125   3.294   5.372 -0.7426  2.1233 -2.4794
   33MOL    H1513519   1.384   3.340   5.218  0.4839  0.0222  1.0476
   33MOL    H1613520   1.313   3.460   5.324 -3.3301  0.9697  0.0452
   33MOL    H1713521   1.107   3.463   5.214  0.6288 -1.6807  1.1219
   33MOL    H1813522   1.139   3.333   5.098 -0.4735  0.8135 -1.5941
   33MOL    H1913523   1.285   3.614   5.117  0.9189 -0.6677  1.3553
   33MOL    H2013524   1.169   3.567   4.993 -1.3429 -4.0844 -0.4664
   33MOL    H2113525   1.330   3.501   5.006  1.4091  0.1708  1.7117
   33MOL    H2213526   1.033   3.211   5.583 -0.7925 -1.3826  0.6064
   33MOL    C2313527   1.247   3.014   5.535  0.5509 -0.0304  0.0228
   33MOL    C2413528   1.231   2.901   5.639  0.1824  0.0868 -0.0897
   33MOL    C2513529   1.325   2.912   5.757 -0.0741 -0.1537  0.7996
   33MOL    C2613530   1.475   2.924   5.711 -0.1139 -0.1594  0.0738
   33MOL    C2713531   1.567   2.932   5.830  0.0944  0.4603  0.2506
   33MOL    C2813532   1.716   2.960   5.798 -0.8891  0.6133 -0.9967
   33MOL    C2913533   1.794   2.987   5.928  0.1898 -0.3676  0.1397
   33MOL    H3013534   1.161   3.011   5.468  1.6312 -0.4720 -1.3547
   33MOL    H3113535   1.336   3.007   5.473 -0.4609 -0.6527 -1.3887
   33MOL    H3213536   1.135   2.909   5.691  1.2493  1.5548  1.7130
   33MOL    H3313537   1.304   2.840   5.837 -1.5346 -0.9523 -0.2835
   33MOL    H3413538   1.298   3.004   5.809  0.4028 -0.2314  1.1881
   33MOL    H3513539   1.494   3.009   5.646 -1.2326  0.6600  0.7992
   33MOL    H3613540   1.504   2.846   5.641  0.7740 -1.4828  1.8684
   33MOL    H3713541   1.565   2.840   5.889  0.9905  0.6389  0.5672
   33MOL    H3813542   1.539   3.013   5.897  1.2693  1.4664 -0.4609
   33MOL    H3913543   1.729   3.041   5.726 -1.5963  1.2563 -0.4186
   33MOL    H4013544   1.751   2.876   5.739  2.1206 -0.8881  2.7193
   33MOL    H4113545   1.808   3.095   5.937  1.3249 -0.3570 -1.5968
   33MOL    H4213546   1.753   2.945   6.020 -3.0686 -0.6290 -1.3896
   33MOL    H4313547   1.891   2.943   5.902  0.6076  1.7652 -2.0364
   33MOL    C4413548   1.243   2.761   5.567  0.2034 -0.3601 -0.6203
   33MOL    C4513549   1.233   2.634   5.653 -0.7561 -0.3615 -0.0872
   33MOL    C4613550   1.090   2.612   5.704 -0.3917 -0.1369  0.1573
   33MOL    C4713551   1.065   2.493   5.798 -0.4764 -0.0725 -0.3180
   33MOL    C4813552   0.925   2.486   5.870 -0.0048  0.0271 -0.0425
   33MOL    C4913553   0.806   2.434   5.794 -0.0711  1.2762 -0.0621
   33MOL    C5013554   0.691   2.401   5.889  0.0782 -0.2396 -0.3196
   33MOL    H5113555   1.339   2.760   5.514  1.2387  1.7650  1.1565
   33MOL    H5213556   1.159   2.767   5.498 -0.9291  2.2357  0.9155
   33MOL    H5313557   1.307   2.645   5.732  0.4976  0.5647 -1.3751
   33MOL    H5413558   1.028   2.596   5.616 -1.8798  1.1666  0.9465
   33MOL    H5513559   1.045   2.700   5.750  2.5789  1.5208  0.0113
   33MOL    H5613560   1.079   2.407   5.733  0.0909  0.6469 -1.1609
   33MOL    H5713561   1.145   2.487   5.871 -2.2886  1.7073  1.8773
   33MOL    H5813562   0.895   2.582   5.913  0.0491 -0.0673  0.2111
   33MOL    H5913563   0.942   2.421   5.956 -0.2252 -0.8241 -0.6387
   33MOL    H6013564   0.831   2.340   5.744 -0.7316  1.7767 -1.3539
   33MOL    H6113565   0.784   2.505   5.715 -0.2521  1.1672 -0.1095
   33MOL    H6213566   0.617   2.330   5.853  1.1651 -1.6085  0.1173
   33MOL    H6313567   0.651   2.492   5.934  2.0895  0.7384 -0.4654
   33MOL    H6413568   0.735   2.354   5.977  1.4238  2.3947  0.4787
   33MOL    C6513569   1.273   2.511   5.576 -0.3992  0.3770 -0.3322
   33MOL    C6613570   1.358   2.407   5.658 -0.1152  0.6919  0.3478
   33MOL    C6713571   1.490   2.460   5.717  0.5876 -0.6686 -0.4050
   33MOL    C6813572   1.586   2.534   5.612 -0.5009  0.7266  0.3619
   33MOL    C6913573   1.714   2.566   5.687 -0.1335 -0.1880 -0.3306
   33MOL    C7013574   1.824   2.624   5.591  0.2943  0.0827 -0.4582
   33MOL    C7113575   1.955   2.672   5.659  0.2643  0.4874  0.9201
   33MOL    H7213576   1.184   2.453   5.550 -1.4792  0.8921  2.0863
   33MOL    H7313577   1.329   2.536   5.486  0.7312 -0.6605  0.0631
   33MOL    H7413578   1.297   2.377   5.743  0.6150 -0.0201  0.6303
   33MOL    H7513579   1.463   2.520   5.804 -0.1620 -2.1450  0.3847
   33MOL    H7613580   1.540   2.372   5.756 -0.5957 -0.8346  0.7678
   33MOL    H7713581   1.624   2.478   5.526  0.7764  3.0399 -0.6366
   33MOL    H7813582   1.542   2.627   5.578  0.6408  0.8173 -0.9440
   33MOL    H7913583   1.689   2.628   5.773 -1.3063 -0.8516 -0.1955
   33MOL    H8013584   1.755   2.472   5.724  0.2958 -0.6014 -1.8121
   33MOL    H8113585   1.779   2.712   5.546 -0.6129  0.2918  0.8142
   33MOL    H8213586   1.842   2.560   5.505  2.1372 -0.1557  0.0688
   33MOL    H8313587   2.007   2.743   5.595  0.5616 -0.5932 -0.0703
   33MOL    H8413588   1.947   2.726   5.753  1.6682  1.4694  0.4819
   33MOL    H8513589   2.023   2.586   5.657 -0.3710 -0.0224  1.0423
   33MOL    C8613590   1.388   2.285   5.561  0.1774  0.1557 -0.4416
   33MOL    C8713591   1.437   2.149   5.630  0.5832  0.2005  0.1902
   33MOL    C8813592   1.310   2.078   5.680 -0.2794 -0.2001  0.1184
   33MOL    C8913593   1.336   1.972   5.787  0.5446  0.0816 -0.3743
   33MOL    C9013594   1.201   1.935   5.836  0.0028 -0.0506 -0.0439
   33MOL    C9113595   1.204   1.805   5.919  0.4659 -0.4745  0.5397
   33MOL    C9213596   1.209   1.677   5.842 -0.8042  0.7134  0.6764
   33MOL    H9313597   1.305   2.255   5.496 -0.6184 -0.3875  0.8105
   33MOL    H9413598   1.467   2.317   5.493  0.4745 -1.3733 -0.8502
   33MOL    H9513599   1.497   2.169   5.719 -0.1683  2.8728  0.1321
   33MOL    H9613600   1.261   2.160   5.733  1.8195  0.7846  0.6070
   33MOL    H9713601   1.244   2.028   5.610 -2.1087  0.3275  1.4259
   33MOL    H9813602   1.394   1.886   5.755 -1.5453 -0.9418 -1.4961
   33MOL    H9913603   1.395   2.015   5.868  0.8797 -0.3011 -0.4171
   33MOL   H10013604   1.135   1.906   5.755 -1.2531  1.2565  0.4928
   33MOL   H10113605   1.155   2.023   5.880  0.4940 -0.2522  0.8813
   33MOL   H10213606   1.284   1.799   5.992 -0.0309  0.4944  1.1781
   33MOL   H10313607   1.119   1.801   5.987  0.2755 -0.1672  0.3220
   33MOL   H10413608   1.244   1.682   5.739 -0.5163  2.2611  0.8354
   33MOL   H10513609   1.107   1.641   5.826 -0.4433 -0.2481  0.4690
   33MOL   H10613610   1.263   1.599   5.896  0.9004  1.8182  0.5922
   33MOL   C10713611   1.503   2.053   5.528 -0.0719 -0.3287 -0.1169
   33MOL   C10813612   1.652   2.086   5.492  0.0513 -0.3680  0.2498
   33MOL   C10913613   1.757   2.002   5.569 -0.1884  0.4998 -0.5938
   33MOL   C11013614   1.744   1.847   5.547  0.6858  0.2970  0.0707
   33MOL   C11113615   1.857   1.776   5.624  0.2853 -0.2702  0.0559
   33MOL   C11213616   1.835   1.780   5.776  0.3099 -0.7640  0.5151
   33MOL   C11313617   1.923   1.684   5.855  0.1796 -0.6091 -0.2120
   33MOL   H11413618   1.449   2.047   5.434  0.9559  1.9062 -0.8909
   33MOL   H11513619   1.504   1.953   5.573  1.0822 -0.5440 -0.5858
   33MOL   H11613620   1.666   2.191   5.518 -2.3710  0.0051  0.1608
   33MOL   H11713621   1.753   2.028   5.675  0.0359  0.3736 -0.5530
   33MOL   H11813622   1.856   2.035   5.537  1.9670 -4.8029 -0.0931
   33MOL   H11913623   1.651   1.802   5.582  0.7941 -0.4293 -0.5771
   33MOL   H12013624   1.752   1.815   5.444 -2.2130 -0.3376  0.0060
   33MOL   H12113625   1.959   1.803   5.597 -0.8327 -0.1789 -4.4191
   33MOL   H12213626   1.873   1.672   5.595  0.6886  0.0405 -0.8567
   33MOL   H12313627   1.856   1.881   5.809  1.3577 -0.8568  0.1428
   33MOL   H12413628   1.729   1.760   5.795 -0.1134  0.7237 -0.2746
   33MOL   H12513629   1.910   1.708   5.961  1.1382  0.7306 -0.3803
   33MOL   H12613630   1.898   1.580   5.838 -1.8124  0.0794 -1.6745
   33MOL   H12713631   2.028   1.713   5.848  0.2753 -0.7761  0.4496
   33MOL   C12813632   1.680   2.068   5.343  0.5140  0.0490  0.1435
   33MOL   C12913633   1.623   2.176   5.245  0.6353 -0.0050  0.1899
   33MOL   C13013634   1.529   2.121   5.139 -1.3455  0.7187 -0.5977
   33MOL   C13113635   1.435   2.219   5.062 -0.8820 -0.6231 -0.2869
   33MOL   C13213636   1.310   2.270   5.137 -0.1762  1.1704 -0.2315
   33MOL   C13313637   1.206   2.366   5.074  0.6424 -0.5120  0.2763
   33MOL   C13413638   1.264   2.508   5.089  0.5468  0.1512  0.1442
   33MOL   H13513639   1.787   2.051   5.329  0.5844 -0.2683  1.0144
   33MOL   H13613640   1.645   1.967   5.323  0.0107 -0.1090  1.7145
   33MOL   H13713641   1.572   2.255   5.300 -0.0755 -1.3391  1.4981
   33MOL   H13813642   1.466   2.046   5.187 -1.1326  0.5177 -0.6303
   33MOL   H13913643   1.589   2.065   5.067  0.8885 -1.0401  2.5168
   33MOL   H14013644   1.406   2.170   4.970 -0.4137  1.5332 -1.6181
   33MOL   H14113645   1.495   2.302   5.026  0.9793 -1.6292  0.4229
   33MOL   H14213646   1.342   2.306   5.235  1.0661  1.8346 -0.8821
   33MOL   H14313647   1.250   2.183   5.165 -0.1461  1.3348  0.3578
   33MOL   H14413648   1.114   2.368   5.133  0.7394 -2.1895  0.4952
   33MOL   H14513649   1.178   2.353   4.969 -0.0525  1.0971  0.2349
   33MOL   H14613650   1.361   2.486   5.044  0.5889  0.1719  0.2231
   33MOL   H14713651   1.274   2.538   5.194 -0.5400  0.9645  0.0240
   33MOL   H14813652   1.211   2.590   5.041  0.5069 -0.2469 -0.4831
   33MOL   C14913653   1.735   2.243   5.164  0.6658  0.0767 -0.0686
   33MOL   C15013654   1.838   2.336   5.238  0.0684  0.0534 -0.0881
   33MOL   C15113655   1.797   2.478   5.238 -0.4338 -0.3431 -0.6544
   33MOL   C15213656   1.812   2.558   5.109  0.2578  0.3686 -0.2811
   33MOL   C15313657   1.759   2.700   5.118  0.2210  0.2976 -0.3657
   33MOL   C15413658   1.763   2.764   4.985  0.7023 -0.3027  0.7231
   33MOL   C15513659   1.894   2.790   4.906 -0.5229  0.3646 -0.0326
   33MOL   H15613660   1.791   2.160   5.121  2.2067  1.0104  0.0862
   33MOL   H15713661   1.689   2.296   5.081 -0.4452  1.3258  1.3112
   33MOL   H15813662   1.828   2.306   5.342 -1.7747 -1.4501 -0.6602
   33MOL   H15913663   1.698   2.493   5.282  0.1071  0.0763  0.4384
   33MOL   H16013664   1.857   2.540   5.304  0.0012  1.7802 -2.9551
   33MOL   H16113665   1.762   2.499   5.032  0.5638  0.7791 -0.8064
   33MOL   H16213666   1.918   2.548   5.083  0.4788  0.5924  0.5449
   33MOL   H16313667   1.815   2.749   5.198 -0.0726 -0.7541  0.5007
   33MOL   H16413668   1.653   2.702   5.142  0.1147 -1.1402 -0.6488
   33MOL   H16513669   1.712   2.859   4.999  0.4693 -0.2088 -0.6855
   33MOL   H16613670   1.701   2.706   4.916  3.0095 -1.5449 -0.3691
   33MOL   H16713671   1.879   2.855   4.820  1.1669  1.9390  0.8227
   33MOL   H16813672   1.928   2.697   4.860 -0.0793  1.7783 -2.6590
   33MOL   H16913673   1.969   2.836   4.971 -2.1443  0.6142  1.6851
   33MOL   C17013674   1.985   2.296   5.193 -0.0404 -0.5437  0.1630
   33MOL   C17113675   2.091   2.349   5.292  0.3065 -0.4745  0.2780
   33MOL   C17213676   2.098   2.249   5.415  0.2059 -0.0522  0.2511
   33MOL   C17313677   2.175   2.114   5.398 -0.4549 -0.3225 -0.2236
   33MOL   C17413678   2.174   2.023   5.527  0.5931 -0.2714 -0.3075
   33MOL   C17513679   2.238   1.885   5.513  0.0447  0.7997 -0.6922
   33MOL   C17613680   2.255   1.816   5.654  0.7283  0.0727 -0.2131
   33MOL   H17713681   2.003   2.338   5.094  0.0852  0.5040  0.6265
   33MOL   H17813682   1.990   2.190   5.169  0.1560 -0.5842  0.3735
   33MOL   H17913683   2.049   2.442   5.330 -2.3747 -1.6508  0.3087
   33MOL   H18013684   1.997   2.219   5.442  0.4470 -0.9118  0.2018
   33MOL   H18113685   2.129   2.300   5.506 -1.2393 -0.0321  0.7401
   33MOL   H18213686   2.277   2.126   5.363 -1.0996  0.2671 -1.9635
   33MOL   H18313687   2.122   2.063   5.318  1.0425 -0.8026 -0.9192
   33MOL   H18413688   2.067   2.013   5.544  0.7950  0.0098  1.2077
   33MOL   H18513689   2.209   2.082   5.612  0.5784  0.3726 -0.7448
   33MOL   H18613690   2.339   1.903   5.476  0.1334 -0.0553 -0.8744
   33MOL   H18713691   2.185   1.823   5.442 -1.8701  0.2744  1.1308
   33MOL   H18813692   2.152   1.815   5.690  0.8593 -1.1567  0.1470
   33MOL   H18913693   2.319   1.872   5.722  1.1844 -0.7076  0.0042
   33MOL   H19013694   2.290   1.713   5.646  1.1311 -0.1072  3.0916
   33MOL   C19113695   2.228   2.376   5.227 -0.2507 -0.1348 -0.6441
   33MOL   C19213696   2.224   2.497   5.129 -0.4366 -0.1814  0.6657
   33MOL   C19313697   2.229   2.623   5.216  0.3313  0.1443 -0.3285
   33MOL   C19413698   2.368   2.665   5.273 -0.1381 -0.2626  0.2533
   33MOL   C19513699   2.372   2.782   5.364  0.1625  0.1190  0.3196
   33MOL   C19613700   2.274   2.784   5.475 -0.2412 -0.4250 -0.9759
   33MOL   C19713701   2.290   2.908   5.569  0.0406  0.0153 -0.0625
   33MOL   H19813702   2.274   2.285   5.188  1.0709  0.9975 -1.7769
   33MOL   H19913703   2.299   2.402   5.305 -0.4280 -0.8525 -0.2455
   33MOL   H20013704   2.132   2.496   5.070  0.2912  1.1891 -0.5054
   33MOL   H20113705   2.169   2.611   5.306  1.0442 -3.1215 -0.2181
   33MOL   H20213706   2.182   2.711   5.172 -0.9998  0.4820  1.6965
   33MOL   H20313707   2.436   2.700   5.195  1.3497 -1.5317  0.9801
   33MOL   H20413708   2.415   2.578   5.318 -1.0824 -0.8287  0.1740
   33MOL   H20513709   2.467   2.785   5.416  0.1900 -1.4086  0.3549
   33MOL   H20613710   2.355   2.873   5.305  1.3799 -1.6608 -2.8691
   33MOL   H20713711   2.282   2.699   5.542 -0.7344  0.3667  0.1035
   33MOL   H20813712   2.176   2.775   5.427 -1.0263 -0.2598  0.5420
   33MOL   H20913713   2.219   2.900   5.652  0.4596 -2.9644  0.0753
   33MOL   H21013714   2.304   2.998   5.510  0.4698 -0.1626 -0.2274
   33MOL   H21113715   2.383   2.882   5.619  0.7590  1.4762 -0.6357
   33MOL   C21213716   2.338   2.498   5.024  0.3299 -0.4558  0.1625
   33MOL   C21313717   2.325   2.387   4.912 -0.5241  0.3372  0.0541
   33MOL   C21413718   2.204   2.416   4.812  0.4099 -0.1885 -0.6595
   33MOL   C21513719   2.106   2.298   4.784 -0.2265  0.5175 -0.0826
   33MOL   C21613720   1.967   2.338   4.736  0.3391  0.1396 -0.0384
   33MOL   C21713721   1.877   2.212   4.696 -0.3356  0.4141  0.5093
   33MOL   C21813722   1.930   2.140   4.568 -0.2535  0.1077 -0.3895
   33MOL   H21913723   2.434   2.490   5.075  1.4047  1.7083 -1.4405
   33MOL   H22013724   2.339   2.593   4.970  2.1059 -1.2002 -1.1426
   33MOL   H22113725   2.308   2.298   4.973  5.7735 -1.1367 -0.0298
   33MOL   H22213726   2.147   2.497   4.858 -0.2067 -1.6621  1.2438
   33MOL   H22313727   2.242   2.458   4.719 -1.3025  2.4858 -0.2260
   33MOL   H22413728   2.109   2.235   4.872  0.8563 -0.4657 -0.8134
   33MOL   H22513729   2.149   2.236   4.705  0.2126 -0.0338  0.5956
   33MOL   H22613730   1.919   2.393   4.816 -0.3921  0.5847 -0.7683
   33MOL   H22713731   1.958   2.399   4.646  1.2556 -2.9363 -2.3003
   33MOL   H22813732   1.875   2.145   4.783 -0.0974 -0.9113 -0.4869
   33MOL   H22913733   1.776   2.251   4.684 -0.5786  0.0539  1.2942
   33MOL   H23013734   1.858   2.062   4.543 -0.7327  0.4692 -0.1721
   33MOL   H23113735   2.034   2.108   4.574  0.6761  2.3126 -3.6395
   33MOL   H23213736   1.937   2.211   4.485  0.1141 -0.5313 -0.9054
   33MOL   C23313737   2.455   2.357   4.831  0.4851  0.1475 -0.5724
   33MOL   C23413738   2.573   2.288   4.903 -0.0633 -0.1522  0.6013
   33MOL   C23513739   2.671   2.376   4.983 -0.0523 -0.1489  0.3069
   33MOL   C23613740   2.737   2.492   4.902 -0.3286 -0.0343 -0.8493
   33MOL   C23713741   2.878   2.531   4.947 -0.0226 -1.1597  0.1021
   33MOL   C23813742   2.923   2.654   4.860  0.6716  0.1619  0.6536
   33MOL   C23913743   2.938   2.628   4.711  0.0006  0.3014  0.1044
   33MOL   H24013744   2.494   2.455   4.801  1.3440 -0.3796 -1.2231
   33MOL   H24113745   2.430   2.294   4.746  0.1342 -2.2543  1.2853
   33MOL   H24213746   2.632   2.251   4.819 -2.3456  0.3757 -1.3065
   33MOL   H24313747   2.764   2.321   5.000  1.1248  1.1426 -1.8862
   33MOL   H24413748   2.631   2.408   5.079  3.8556 -0.2627  2.0917
   33MOL   H24513749   2.670   2.578   4.904  2.4866  2.2805 -2.6184
   33MOL   H24613750   2.736   2.463   4.796 -1.0280 -1.5558 -0.4471
   33MOL   H24713751   2.952   2.451   4.943  1.5525  0.2618  0.1203
   33MOL   H24813752   2.865   2.562   5.050  1.0547 -1.7970  0.4447
   33MOL   H24913753   2.846   2.730   4.866 -2.9037 -3.2696  0.6445
   33MOL   H25013754   3.018   2.698   4.892  0.1491  0.7927  1.3438
   33MOL   H25113755   3.012   2.551   4.690 -0.8854 -0.5463  0.0299
   33MOL   H25213756   2.854   2.603   4.647  0.9938 -0.0768 -1.0614
   33MOL   H25313757   2.980   2.717   4.665  2.8131 -0.7217  0.6031
   33MOL   C25413758   2.534   2.163   4.991 -0.2547  0.4274  0.4932
   33MOL   C25513759   2.441   2.050   4.933  0.2951  0.0821  1.0427
   33MOL   C25613760   2.380   1.955   5.036  0.3716 -0.0458 -0.2098
   33MOL   C25713761   2.488   1.882   5.112 -0.1748 -0.1949 -0.1181
   33MOL   C25813762   2.429   1.782   5.207  0.5385  0.3468 -0.3055
   33MOL   C25913763   2.546   1.722   5.289  0.2299 -0.3130 -0.6643
   33MOL   C26013764   2.513   1.663   5.423  0.8617 -0.4425  0.3770
   33MOL   H26113765   2.505   2.204   5.088 -0.3063  0.1869  0.5806
   33MOL   H26213766   2.625   2.104   5.001 -0.2555  0.4640  0.7100
   33MOL   H26313767   2.354   2.102   4.892  1.0324 -0.1181 -0.8530
   33MOL   H26413768   2.304   1.889   4.994 -0.7360  1.3384 -0.4525
   33MOL   H26513769   2.326   2.014   5.110  1.2336 -0.0824  0.4466
   33MOL   H26613770   2.557   1.827   5.048  2.7931  1.9423  1.1190
   33MOL   H26713771   2.548   1.959   5.161 -0.4414  0.1431 -0.3239
   33MOL   H26813772   2.375   1.699   5.161  0.8308 -1.3565  2.3669
   33MOL   H26913773   2.354   1.836   5.265  0.6659  1.7180 -1.3770
   33MOL   H27013774   2.588   1.635   5.239  1.0001 -0.5351  0.3560
   33MOL   H27113775   2.624   1.796   5.303 -1.3756  1.3963 -0.5417
   33MOL   H27213776   2.441   1.581   5.429  2.0520 -1.5424 -0.1008
   33MOL   H27313777   2.602   1.630   5.476  0.0291  1.9878  3.4131
   33MOL   H27413778   2.481   1.738   5.495  1.0852 -0.8170  0.8752
   33MOL   C27513779   2.487   1.964   4.809  0.0333 -0.1643  0.1978
   33MOL   C27613780   2.534   2.025   4.670  0.0582 -0.3534 -0.1355
   33MOL   C27713781   2.414   2.067   4.588 -0.3512 -0.1494  1.6519
   33MOL   C27813782   2.444   2.158   4.467  0.3075 -0.7027 -0.7206
   33MOL   C27913783   2.316   2.218   4.409 -0.3469 -0.0365 -0.1436
   33MOL   C28013784   2.352   2.317   4.295 -0.2382 -0.5070 -0.7679
   33MOL   C28113785   2.226   2.363   4.224  0.4065  0.4112  0.6237
   33MOL   H28213786   2.409   1.888   4.795 -0.8355  0.1594  2.8936
   33MOL   H28313787   2.560   1.891   4.844  1.0580  0.3291 -0.8722
   33MOL   H28413788   2.596   2.114   4.679 -0.1244 -0.4146  1.8780
   33MOL   H28513789   2.360   1.979   4.553 -2.3100  2.3493 -1.8230
   33MOL   H28613790   2.340   2.118   4.649  0.0461  1.4280  0.8558
   33MOL   H28713791   2.509   2.111   4.393  0.6016  1.2923 -1.7586
   33MOL   H28813792   2.501   2.244   4.503 -0.6839 -0.1088 -0.5663
   33MOL   H28913793   2.268   2.257   4.499 -1.4158 -1.6388 -0.0162
   33MOL   H29013794   2.258   2.139   4.363  0.6037 -0.0947 -1.2675
   33MOL   H29113795   2.411   2.404   4.325  1.0574 -0.3982 -3.4043
   33MOL   H29213796   2.413   2.265   4.221  0.8359  0.1938 -0.4005
   33MOL   H29313797   2.243   2.423   4.134  0.1859 -1.5354 -0.7719
   33MOL   H29413798   2.157   2.421   4.284  0.6098 -0.1647  1.4142
   33MOL   H29513799   2.182   2.267   4.195  0.0698  0.1294  2.0515
   33MOL   C29613800   2.628   1.931   4.590  0.1362  0.0065  0.0053
   33MOL   C29713801   2.777   1.924   4.640  0.1986 -0.2132 -0.0448
   33MOL   C29813802   2.860   2.047   4.596 -0.3625  0.1590 -1.3084
   33MOL   C29913803   2.988   2.073   4.682 -0.1451 -0.4049 -0.1793
   33MOL   C30013804   3.091   2.162   4.611 -0.2483 -0.1121 -0.4931
   33MOL   C30113805   3.160   2.257   4.712 -0.0965 -0.2375 -0.3393
   33MOL   C30213806   3.285   2.315   4.651  0.6203  0.3505  0.3508
   33MOL   H30313807   2.569   1.839   4.594 -0.1852  0.2388  0.7272
   33MOL   H30413808   2.617   1.961   4.485 -1.3095 -0.9736 -0.1419
   33MOL   H30513809   2.785   1.922   4.749  0.6465 -0.8143 -0.0864
   33MOL   H30613810   2.892   2.028   4.494  1.2665  2.5446 -1.2886
   33MOL   H30713811   2.801   2.139   4.596 -2.3500 -1.0960 -1.1653
   33MOL   H30813812   3.035   1.989   4.733  1.1378  0.4531  0.0613
   33MOL   H30913813   2.947   2.114   4.774 -0.6642 -1.5337  0.1114
   33MOL   H31013814   3.036   2.229   4.545  0.7186  0.4747 -0.7090
   33MOL   H31113815   3.149   2.085   4.561 -2.0707 -0.6102 -1.8765
   33MOL   H31213816   3.086   2.324   4.754 -0.1409  1.0392 -2.3999
   33MOL   H31313817   3.200   2.192   4.790  0.6372  0.9417  0.2765
   33MOL   H31413818   3.355   2.353   4.725  1.5342 -2.0348  0.7543
   33MOL   H31513819   3.340   2.246   4.588 -0.8290  0.3730 -0.9801
   33MOL   H31613820   3.266   2.399   4.584 -0.3350  0.4277  0.7139
   33MOL   C31713821   2.855   1.800   4.595  0.4839 -0.4839 -0.0570
   33MOL   C31813822   2.804   1.663   4.642 -0.9887 -0.4742 -0.0504
   33MOL   C31913823   2.866   1.549   4.566 -0.0547 -0.1897 -1.0798
   33MOL   C32013824   3.026   1.522   4.568  0.2327 -1.1096 -0.1978
   33MOL   C32113825   3.060   1.387   4.507  0.7828 -0.1942  0.0991
   33MOL   C32213826   3.213   1.363   4.495 -0.1854  0.0045 -0.0126
   33MOL   C32313827   3.290   1.467   4.408 -0.0757  0.0196 -0.8954
   33MOL   H32413828   2.961   1.816   4.617  0.3453 -0.7759  0.8403
   33MOL   H32513829   2.843   1.795   4.487 -0.7197 -1.6401  0.1293
   33MOL   H32613830   2.699   1.659   4.613 -0.7115 -0.9983 -1.0023
   33MOL   H32713831   2.838   1.575   4.464  1.7629  1.5457 -1.1594
   33MOL   H32813832   2.821   1.454   4.596 -1.7120  1.1923  0.9718
   33MOL   H32913833   3.056   1.509   4.672 -1.0140  1.6571  0.5560
   33MOL   H33013834   3.081   1.602   4.519  0.3192  0.2988  2.1276
   33MOL   H33113835   3.008   1.371   4.413 -0.8696 -2.6119  1.3747
   33MOL   H33213836   3.018   1.313   4.575 -0.7827 -0.4100 -1.0841
   33MOL   H33313837   3.220   1.263   4.453  1.8984 -0.7297  1.9792
   33MOL   H33413838   3.257   1.361   4.595 -0.7902 -0.7463  0.2458
   33MOL   H33513839   3.239   1.507   4.320  0.5566 -0.1648 -1.3495
   33MOL   H33613840   3.373   1.409   4.367 -0.2735 -0.0936 -1.1389
   33MOL   H33713841   3.319   1.563   4.451 -1.8976  0.3026 -0.2782
   33MOL   C33813842   2.800   1.649   4.798 -0.6136 -0.6498  0.2202
   33MOL   C33913843   2.777   1.512   4.861  0.0778  0.3544  0.0364
   33MOL   C34013844   2.637   1.459   4.813  0.8291  0.7063 -0.7820
   33MOL   C34113845   2.522   1.543   4.872  0.4669  0.4935  0.0970
   33MOL   C34213846   2.390   1.480   4.849 -0.0823 -0.0441  0.1338
   33MOL   C34313847   2.275   1.543   4.928  0.0066 -0.4134  0.0919
   33MOL   C34413848   2.144   1.474   4.921 -0.2738 -0.5828  0.0857
   33MOL   H34513849   2.725   1.711   4.848  0.7265  0.7243  0.5765
   33MOL   H34613850   2.900   1.690   4.817 -0.9636  2.5256 -3.8522
   33MOL   H34713851   2.853   1.440   4.831 -1.0969 -0.9476  0.0968
   33MOL   H34813852   2.619   1.445   4.706 -1.0892 -0.6410 -0.2959
   33MOL   H34913853   2.622   1.358   4.851 -3.0143  1.5685  0.1822
   33MOL   H35013854   2.524   1.641   4.824  0.4839 -0.1276 -1.2014
   33MOL   H35113855   2.537   1.556   4.979  0.2932 -0.3307  0.2278
   33MOL   H35213856   2.368   1.466   4.743  1.1999  0.2054 -0.1792
   33MOL   H35313857   2.406   1.380   4.888  2.9141 -0.4667 -2.0295
   33MOL   H35413858   2.304   1.539   5.033 -0.9851  0.1561  0.3960
   33MOL   H35513859   2.271   1.650   4.907 -0.5072 -0.3876  0.3038
   33MOL   H35613860   2.155   1.367   4.937 -0.5927 -0.6154  0.0754
   33MOL   H35713861   2.092   1.484   4.825  0.9612  0.6341 -0.4780
   33MOL   H35813862   2.081   1.520   4.996 -0.4086 -0.1996 -0.2586
   33MOL   C35913863   2.796   1.511   5.016 -0.1907 -0.2871 -0.4886
   33MOL   C36013864   2.937   1.468   5.068 -0.7254 -0.0310 -0.5576
   33MOL   C36113865   2.965   1.320   5.033  0.3641  0.3700 -0.3369
   33MOL   C36213866   3.059   1.251   5.137  0.5229  0.0705 -0.7456
   33MOL   C36313867   3.071   1.099   5.123  0.3161  0.4096  0.1050
   33MOL   C36413868   3.194   1.041   5.194  0.1608  0.3850 -0.1256
   33MOL   C36513869   3.189   0.889   5.180 -0.0182  0.8017  0.2194
   33MOL   H36613870   2.727   1.437   5.057 -0.4125 -0.2523 -0.8020
   33MOL   H36713871   2.774   1.610   5.055  2.0358  0.5836 -1.3620
   33MOL   H36813872   2.918   1.463   5.176  1.6847  0.6764 -0.0706
   33MOL   H36913873   2.867   1.273   5.034  0.4348  0.2495  0.7188
   33MOL   H37013874   3.003   1.316   4.930  0.1238  2.3298 -0.5168
   33MOL   H37113875   3.157   1.297   5.132  0.2543  0.6223 -0.8797
   33MOL   H37213876   3.010   1.263   5.234 -2.4718  2.1607 -2.4549
   33MOL   H37313877   2.981   1.055   5.165 -0.3720  0.8246 -0.8972
   33MOL   H37413878   3.074   1.074   5.017  0.9163 -1.6450  0.5810
   33MOL   H37513879   3.284   1.079   5.146  0.9651 -1.0792  0.1946
   33MOL   H37613880   3.201   1.073   5.298 -0.5748  2.0385 -0.5648
   33MOL   H37713881   3.236   0.846   5.269 -2.6338 -1.8977  0.3818
   33MOL   H37813882   3.085   0.856   5.186 -0.2709  1.4493 -0.6629
   33MOL   H37913883   3.227   0.840   5.091  0.2570  1.6826 -0.1453
   33MOL   C38013884   3.049   1.557   5.019 -0.0895  0.1835  0.4869
   33MOL   C38113885   3.040   1.708   5.067 -0.1634  0.6423 -0.1045
   33MOL   C38213886   3.073   1.726   5.224  0.0875 -0.1259 -0.9847
   33MOL   C38313887   2.941   1.722   5.309  0.7180 -0.1802 -0.0634
   33MOL   C38413888   2.969   1.753   5.456  0.5747 -0.4029  0.2481
   33MOL   C38513889   2.844   1.736   5.550  0.0582  0.0623  0.0996
   33MOL   C38613890   2.847   1.801   5.687 -1.0376 -0.2673 -0.3140
   33MOL   H38713891   3.142   1.530   5.069  0.6848 -1.9251 -1.9932
   33MOL   H38813892   3.067   1.551   4.912 -0.7547  2.1899  0.2365
   33MOL   H38913893   2.940   1.748   5.052 -0.3707 -0.5499 -2.1030
   33MOL   H39013894   3.133   1.814   5.246 -1.6282  0.3862  1.7893
   33MOL   H39113895   3.130   1.645   5.270 -1.2773  0.6967  2.2480
   33MOL   H39213896   2.867   1.794   5.272 -0.4330 -1.2518  0.1326
   33MOL   H39313897   2.894   1.628   5.282  1.3567 -0.7900  0.9429
   33MOL   H39413898   3.049   1.689   5.494  1.4057  2.2700  3.2405
   33MOL   H39513899   2.996   1.858   5.470 -1.4785  0.4664 -1.9347
   33MOL   H39613900   2.816   1.631   5.558 -1.0413  0.4032  0.8253
   33MOL   H39713901   2.755   1.779   5.504  1.3716  0.1510 -2.4465
   33MOL   H39813902   2.836   1.906   5.660 -1.1436 -0.2304 -0.1287
   33MOL   H39913903   2.937   1.777   5.743 -0.8456 -0.5569 -0.7461
   33MOL   H40013904   2.758   1.780   5.746  0.0254 -2.3279  0.5930
   33MOL   C40113905   3.135   1.795   4.983 -0.6847 -0.1297 -0.4412
   33MOL   C40213906   3.283   1.750   4.989 -0.5083  0.6139 -0.3141
   33MOL   C40313907   3.380   1.829   4.912 -0.0724  0.7635  0.0040
   33MOL   C40413908   3.377   1.806   4.758 -0.4824 -0.6210  0.1376
   33MOL   C40513909   3.480   1.893   4.677 -0.2726 -0.1975 -0.3757
   33MOL   C40613910   3.478   1.861   4.523  0.5259  0.3018 -0.2713
   33MOL   C40713911   3.358   1.921   4.449  0.1505 -0.5356 -0.1389
   33MOL   H40813912   3.127   1.902   5.000  2.3706  0.1668 -0.5694
   33MOL   H40913913   3.107   1.781   4.879  1.4514 -0.0014 -1.0619
   33MOL   H41013914   3.291   1.645   4.962 -1.3609  0.0922  1.4238
   33MOL   H41113915   3.477   1.800   4.952  0.3381  1.1988 -0.6628
   33MOL   H41213916   3.354   1.934   4.930 -1.5623  0.1926  1.2641
   33MOL   H41313917   3.277   1.838   4.732 -1.0160 -0.6369  2.1178
   33MOL   H41413918   3.385   1.700   4.732  2.6824 -0.4390  0.0981
   33MOL   H41513919   3.472   1.998   4.705  1.3373 -0.6586  1.9934
   33MOL   H41613920   3.569   1.855   4.727  0.4594  0.4789 -1.1638
   33MOL   H41713921   3.563   1.903   4.469 -0.8146  1.7618 -1.2884
   33MOL   H41813922   3.487   1.753   4.510 -1.4120 -0.1123  1.5240
   33MOL   H41913923   3.340   2.027   4.465  0.0500 -0.8827  2.2322
   33MOL   H42013924   3.263   1.878   4.481  0.2571 -0.3466  0.4272
   33MOL   H42113925   3.359   1.894   4.343 -0.8253  2.6961 -1.0443
   33MOL   H42213926   3.316   1.748   5.092 -0.3620 -1.3380 -0.3860
   34MOL     C113927   1.279   4.270   7.260 -0.5008  0.4681  0.0424
   34MOL     C213928   1.342   4.273   7.397 -0.5250  0.0667  0.1702
   34MOL     C313929   1.319   4.412   7.459  0.3763  0.4635  0.3911
   34MOL     C413930   1.176   4.431   7.502 -0.9517  0.3697  0.1554
   34MOL     C513931   1.138   4.573   7.538  0.4042 -0.0465 -0.5134
   34MOL     C613932   1.137   4.670   7.416  0.1847 -0.1026  0.2964
   34MOL     C713933   1.110   4.809   7.479  0.0677  0.4954  0.5936
   34MOL     H813934   1.278   4.171   7.213 -1.8802  1.6722 -2.5532
   34MOL     H913935   1.320   4.342   7.189 -0.2571  0.4541  0.1678
   34MOL    H1013936   1.291   4.196   7.454  1.3796 -0.7564  0.7775
   34MOL    H1113937   1.394   4.435   7.535 -0.6515  0.2496  1.4883
   34MOL    H1213938   1.339   4.480   7.375  2.0298  0.6165  0.8922
   34MOL    H1313939   1.106   4.401   7.424  0.0354  1.0638 -1.0149
   34MOL    H1413940   1.155   4.359   7.582 -3.1983  0.0942 -0.6471
   34MOL    H1513941   1.189   4.601   7.630 -1.4827 -0.0520  0.5574
   34MOL    H1613942   1.037   4.564   7.576  0.9251 -0.3107  0.8196
   34MOL    H1713943   1.063   4.650   7.339 -0.6478  1.4760  0.6597
   34MOL    H1813944   1.236   4.674   7.370  0.5948 -1.4654  1.0158
   34MOL    H1913945   1.105   4.881   7.397 -0.3762 -0.1988  0.0063
   34MOL    H2013946   1.184   4.844   7.551 -1.0606  2.7191  0.6904
   34MOL    H2113947   1.016   4.801   7.533  0.5938  1.1662  1.6066
   34MOL    H2213948   1.175   4.301   7.261 -0.8711 -0.7182 -0.5346
   34MOL    C2313949   1.493   4.245   7.379  0.0385  0.3074 -0.0968
   34MOL    C2413950   1.544   4.107   7.342 -0.0428  0.4760  0.6172
   34MOL    C2513951   1.511   4.001   7.451  0.0030 -0.3723 -0.3346
   34MOL    C2613952   1.520   3.852   7.410 -0.0730 -0.3917  0.1382
   34MOL    C2713953   1.525   3.760   7.526  0.4463  0.1899 -0.1308
   34MOL    C2813954   1.523   3.613   7.476 -0.1031  0.6130  0.2589
   34MOL    C2913955   1.383   3.567   7.425 -0.4272 -0.2768 -0.1107
   34MOL    H3013956   1.529   4.317   7.305  0.8439 -0.6928 -0.6909
   34MOL    H3113957   1.543   4.281   7.468 -1.3932  1.8848  0.1025
   34MOL    H3213958   1.496   4.081   7.248  0.0886 -4.1937  1.6967
   34MOL    H3313959   1.408   4.016   7.484  0.5758 -2.7097  2.7637
   34MOL    H3413960   1.577   4.006   7.537 -0.8588  0.6215  0.2881
   34MOL    H3513961   1.607   3.822   7.352  0.0146 -1.9102  0.9981
   34MOL    H3613962   1.436   3.822   7.348  0.1593  0.8423 -0.7739
   34MOL    H3713963   1.444   3.779   7.596  0.2546  1.9512 -0.7970
   34MOL    H3813964   1.617   3.762   7.585 -0.3548  0.3352  1.1277
   34MOL    H3913965   1.556   3.537   7.547  0.6794 -0.7388 -1.5154
   34MOL    H4013966   1.589   3.612   7.389  0.5002 -1.9470  0.6979
   34MOL    H4113967   1.379   3.464   7.388 -0.0865 -0.0228 -0.8607
   34MOL    H4213968   1.313   3.579   7.507  0.0531 -0.8677  0.3870
   34MOL    H4313969   1.355   3.628   7.339  0.5132  0.6923  0.2577
   34MOL    C4413970   1.701   4.098   7.324 -0.0889  0.5496  0.6624
   34MOL    C4513971   1.755   4.163   7.202  0.6449  0.9128 -0.1074
   34MOL    C4613972   1.911   4.173   7.209 -1.2991 -0.3392  1.0032
   34MOL    C4713973   1.952   4.308   7.273  0.2266 -0.4325  0.5065
   34MOL    C4813974   2.106   4.296   7.307 -0.1207 -0.4089 -0.3228
   34MOL    C4913975   2.181   4.427   7.348  0.1162  0.5492 -0.0683
   34MOL    C5013976   2.187   4.527   7.233 -0.8641  0.5583 -0.3802
   34MOL    H5113977   1.743   3.998   7.320 -0.8413  0.2981 -1.8691
   34MOL    H5213978   1.756   4.144   7.407  1.2492  1.5600 -0.7547
   34MOL    H5313979   1.715   4.264   7.193 -0.9889  0.3215  0.3681
   34MOL    H5413980   1.961   4.161   7.113  0.2910 -1.0565  1.8981
   34MOL    H5513981   1.948   4.092   7.271 -0.7025  0.4601  1.7065
   34MOL    H5613982   1.932   4.385   7.199 -2.4194 -1.3522  0.1873
   34MOL    H5713983   1.893   4.333   7.361  0.1417  3.8524 -0.6806
   34MOL    H5813984   2.155   4.256   7.218 -0.3484 -0.0538 -0.6053
   34MOL    H5913985   2.134   4.214   7.374 -0.6472  1.2670  2.0199
   34MOL    H6013986   2.282   4.412   7.386 -0.7921 -1.2656  1.7311
   34MOL    H6113987   2.143   4.480   7.436  1.9537  0.3672  0.8629
   34MOL    H6213988   2.159   4.476   7.140 -1.6644 -0.3279  0.3359
   34MOL    H6313989   2.280   4.584   7.226 -0.9489  0.4710 -2.6105
   34MOL    H6413990   2.121   4.613   7.246 -1.4172 -0.2560  2.5837
   34MOL    C6513991   1.702   4.086   7.078 -0.1779  1.0511 -0.1417
   34MOL    C6613992   1.745   4.144   6.943  0.6181  0.7189 -0.4008
   34MOL    C6713993   1.696   4.287   6.927  0.1260 -0.3471 -0.4703
   34MOL    C6813994   1.713   4.357   6.791  0.1049 -0.5193  0.3564
   34MOL    C6913995   1.687   4.505   6.807  0.1535 -0.9494  0.2321
   34MOL    C7013996   1.709   4.583   6.684 -0.7982 -0.7815 -0.1772
   34MOL    C7113997   1.716   4.737   6.709 -0.4876 -0.5448  0.0603
   34MOL    H7213998   1.737   3.982   7.084 -0.6620  0.7735 -1.7378
   34MOL    H7313999   1.593   4.079   7.077 -0.1232 -0.2315  0.9301
   34MOL    H7414000   1.852   4.161   6.928  1.1365 -1.2454  0.8959
   34MOL    H7514001   1.595   4.310   6.961 -0.4134 -2.4445 -0.5838
   34MOL    H7614002   1.755   4.348   6.995 -1.5741 -0.7750  1.4467
   34MOL    H7714003   1.815   4.342   6.755 -0.6157 -1.5746 -1.2940
   34MOL    H7814004   1.653   4.323   6.707 -2.4642  0.7975  1.6002
   34MOL    H7914005   1.585   4.525   6.839  0.2589  1.2425 -0.6769
   34MOL    H8014006   1.754   4.544   6.883  1.3908  1.0155 -1.7892
   34MOL    H8114007   1.635   4.571   6.605 -0.5999  4.8739 -1.4026
   34MOL    H8214008   1.804   4.546   6.645  0.0978 -0.3595  1.5374
   34MOL    H8314009   1.781   4.763   6.792 -0.6880 -1.6770  0.5744
   34MOL    H8414010   1.732   4.788   6.614 -1.1810 -0.2997  0.0715
   34MOL    H8514011   1.617   4.762   6.747  0.3714 -0.5671  2.3850
   34MOL    C8614012   1.688   4.043   6.833 -0.8237 -0.0755  0.5856
   34MOL    C8714013   1.769   3.915   6.807  0.2639  0.2299 -0.2924
   34MOL    C8814014   1.673   3.810   6.746  0.0033  0.5545  0.7278
   34MOL    C8914015   1.727   3.666   6.742  0.5314  0.1007  0.6050
   34MOL    C9014016   1.657   3.552   6.667  0.2680  0.7168 -0.5457
   34MOL    C9114017   1.754   3.428   6.651  0.6815 -0.1159 -0.3692
   34MOL    C9214018   1.704   3.332   6.542 -0.7496 -0.2791 -0.5143
   34MOL    H9314019   1.585   4.021   6.859 -0.6873 -0.4378  0.8261
   34MOL    H9414020   1.685   4.105   6.744  1.3800  0.7545  1.0601
   34MOL    H9514021   1.793   3.879   6.907 -2.7068  0.1424  0.4148
   34MOL    H9614022   1.579   3.803   6.802 -0.1893 -1.7677  0.1967
   34MOL    H9714023   1.649   3.843   6.646  1.4354 -1.0100 -0.1535
   34MOL    H9814024   1.827   3.661   6.699  0.9433  1.0169  1.4294
   34MOL    H9914025   1.736   3.632   6.845 -2.2749 -2.4110  0.0812
   34MOL   H10014026   1.626   3.588   6.569 -2.3955  1.0350  0.3788
   34MOL   H10114027   1.560   3.522   6.707  0.1559 -0.9982 -2.0274
   34MOL   H10214028   1.845   3.470   6.609 -0.4684  2.0112 -0.8112
   34MOL   H10314029   1.771   3.375   6.745 -1.4649  1.0395  0.7267
   34MOL   H10414030   1.620   3.275   6.582 -0.7142 -0.9210 -1.3347
   34MOL   H10514031   1.775   3.251   6.524 -0.2802 -0.0391  0.2624
   34MOL   H10614032   1.683   3.382   6.448  1.3120 -1.9828 -1.9289
   34MOL   C10714033   1.902   3.938   6.717  0.6879 -0.1148 -0.1182
   34MOL   C10814034   2.038   3.876   6.766  0.0069  0.6618 -0.4115
   34MOL   C10914035   2.142   3.866   6.651 -0.5018 -0.2335  0.0281
   34MOL   C11014036   2.157   3.723   6.598  0.5270  0.7478  0.2576
   34MOL   C11114037   2.273   3.680   6.499  1.1396  0.0311 -0.2212
   34MOL   C11214038   2.415   3.726   6.526  0.2287 -0.5308 -0.9016
   34MOL   C11314039   2.509   3.661   6.427 -0.4245  0.1450 -0.3880
   34MOL   H11414040   1.936   4.041   6.722 -3.1210  1.2206 -0.5342
   34MOL   H11514041   1.885   3.915   6.612  0.5727 -0.1540 -0.0905
   34MOL   H11614042   2.013   3.775   6.797 -2.3445  1.5295  0.6229
   34MOL   H11714043   2.238   3.898   6.690  0.3618 -1.3629 -1.1289
   34MOL   H11814044   2.117   3.938   6.573  0.5259 -1.4179 -1.4188
   34MOL   H11914045   2.162   3.655   6.683  1.4087  0.6103  0.1028
   34MOL   H12014046   2.062   3.698   6.551  0.5371 -1.2914  1.2640
   34MOL   H12114047   2.236   3.727   6.408 -0.7591  1.1789  1.0934
   34MOL   H12214048   2.275   3.572   6.486  1.0121  0.3070 -2.6432
   34MOL   H12314049   2.419   3.834   6.522  0.1806 -0.4623  0.5072
   34MOL   H12414050   2.445   3.686   6.623  2.1290 -0.6476 -1.5305
   34MOL   H12514051   2.605   3.683   6.474 -0.4712 -0.6317  0.0689
   34MOL   H12614052   2.496   3.554   6.415  1.3636 -0.4284  2.5573
   34MOL   H12714053   2.503   3.706   6.327  0.5400  4.2491  1.2801
   34MOL   C12814054   2.097   3.951   6.887  0.0790  0.0894 -0.3107
   34MOL   C12914055   2.201   3.878   6.964 -0.7037 -0.2519 -0.0962
   34MOL   C13014056   2.147   3.770   7.049  0.0713 -0.2558  0.3706
   34MOL   C13114057   2.057   3.806   7.171 -0.3360 -0.0847 -0.7701
   34MOL   C13214058   2.045   3.700   7.282  0.0912  0.2259 -0.2616
   34MOL   C13314059   1.919   3.720   7.372 -0.2232 -0.5509  0.0443
   34MOL   C13414060   1.917   3.619   7.494  0.2524  0.9172 -0.2485
   34MOL   H13514061   2.125   4.050   6.851 -2.0569  0.2096 -1.7298
   34MOL   H13614062   2.018   3.973   6.959  1.4062  0.6407  0.9954
   34MOL   H13714063   2.261   3.819   6.895 -1.9658 -1.5187 -0.1332
   34MOL   H13814064   2.234   3.723   7.096  0.8784  1.1957  0.3570
   34MOL   H13914065   2.088   3.698   6.992 -2.2228 -0.0864  2.4624
   34MOL   H14014066   1.960   3.828   7.126 -0.0578  1.1872 -0.7852
   34MOL   H14114067   2.083   3.898   7.224 -1.7887 -0.7379  1.1491
   34MOL   H14214068   2.133   3.710   7.345 -1.0056 -0.7481  1.4759
   34MOL   H14314069   2.034   3.599   7.243 -0.4069  0.1986 -0.0601
   34MOL   H14414070   1.824   3.724   7.318 -1.3824  0.6931  2.0848
   34MOL   H14514071   1.929   3.816   7.423  3.5284  0.1275 -1.8630
   34MOL   H14614072   1.897   3.517   7.462  0.2007 -0.8070  4.8477
   34MOL   H14714073   1.848   3.647   7.573 -1.0802 -0.5977 -0.8590
   34MOL   H14814074   2.013   3.623   7.546  0.5282  1.5359 -0.7927
   34MOL   C14914075   2.284   3.976   7.058  0.1704 -0.3279 -0.9683
   34MOL   C15014076   2.383   4.069   6.985  0.1035 -1.0263  0.6553
   34MOL   C15114077   2.499   3.986   6.910 -0.2821 -0.2959 -0.2205
   34MOL   C15214078   2.569   4.070   6.806  0.0439 -0.5708  0.1996
   34MOL   C15314079   2.652   3.987   6.708 -0.2036  0.5850 -0.1615
   34MOL   C15414080   2.706   4.070   6.586  0.5264  0.0298  0.4110
   34MOL   C15514081   2.828   4.015   6.514  0.3125  0.6912  0.0378
   34MOL   H15614082   2.209   4.028   7.117 -0.9162 -0.1618 -2.4741
   34MOL   H15714083   2.337   3.903   7.119 -2.3289 -1.6753 -0.3107
   34MOL   H15814084   2.325   4.111   6.903  2.9735 -0.6865 -1.2867
   34MOL   H15914085   2.575   3.963   6.984 -0.9472 -0.5662  0.3857
   34MOL   H16014086   2.463   3.893   6.866 -0.3141  0.1115 -1.0744
   34MOL   H16114087   2.639   4.139   6.852  0.6031 -1.0453  0.0676
   34MOL   H16214088   2.496   4.129   6.751 -1.0890 -0.3321  1.9194
   34MOL   H16314089   2.597   3.903   6.665  0.2114 -0.7645  1.8364
   34MOL   H16414090   2.738   3.941   6.758 -0.6666 -1.3493 -1.0833
   34MOL   H16514091   2.738   4.165   6.627  3.4447 -0.4693 -0.5778
   34MOL   H16614092   2.625   4.086   6.515  0.9138 -0.0044 -0.0407
   34MOL   H16714093   2.845   4.093   6.440  1.3768 -1.1015 -1.6594
   34MOL   H16814094   2.811   3.921   6.462  1.4272  0.0773  0.7533
   34MOL   H16914095   2.919   4.010   6.575  0.3213 -0.3036 -0.0400
   34MOL   C17014096   2.438   4.184   7.065  0.2606  0.2601 -0.6686
   34MOL   C17114097   2.516   4.148   7.189 -1.4239  0.2611 -0.6919
   34MOL   C17214098   2.616   4.272   7.212  0.0385  0.1016  0.0360
   34MOL   C17314099   2.739   4.273   7.120 -0.1191 -0.3928  0.7864
   34MOL   C17414100   2.852   4.369   7.165  0.1157  0.3469 -0.2121
   34MOL   C17514101   2.977   4.387   7.073  0.1613 -0.4036  0.2199
   34MOL   C17614102   2.944   4.415   6.925 -0.7042  0.0770  1.1454
   34MOL   H17714103   2.369   4.261   7.097  1.4449  2.4423 -3.2301
   34MOL   H17814104   2.507   4.237   6.999  1.0399  1.3356  0.9577
   34MOL   H17914105   2.574   4.059   7.165  1.6266  1.9729 -0.0602
   34MOL   H18014106   2.666   4.246   7.305  2.0559 -1.6085 -1.4796
   34MOL   H18114107   2.579   4.370   7.241  2.1213  1.0023 -0.2982
   34MOL   H18214108   2.724   4.300   7.016  3.3924 -0.8560  0.0762
   34MOL   H18314109   2.763   4.166   7.114 -0.4859 -0.4579  0.5279
   34MOL   H18414110   2.875   4.336   7.267 -0.4118  2.0037  0.4542
   34MOL   H18514111   2.805   4.465   7.186 -0.0229 -0.2021  2.1346
   34MOL   H18614112   3.026   4.290   7.081 -0.5147 -0.7157  0.6596
   34MOL   H18714113   3.045   4.458   7.121  1.0971  0.6105 -2.5492
   34MOL   H18814114   3.032   4.447   6.869 -2.6104  2.4001 -0.6253
   34MOL   H18914115   2.880   4.503   6.916 -0.5131  0.0216 -1.1828
   34MOL   H19014116   2.900   4.328   6.878  2.9695 -2.2214  1.7324
   34MOL   C19114117   2.434   4.125   7.325  0.1606  0.0190  0.2628
   34MOL   C19214118   2.504   4.030   7.424 -0.0047  0.4663 -0.1246
   34MOL   C19314119   2.440   4.046   7.566 -0.1522 -0.8431 -0.1488
   34MOL   C19414120   2.485   4.182   7.633 -0.6010  0.2218  0.3148
   34MOL   C19514121   2.395   4.220   0.038  0.1534  0.8643  0.2016
   34MOL   C19614122   2.448   4.341   0.112 -0.2768 -0.1113  0.0938
   34MOL   C19714123   2.351   4.380   0.227 -0.0867  0.4070  0.4836
   34MOL   H19814124   2.337   4.078   7.307 -0.9931  1.5074  2.3767
   34MOL   H19914125   2.404   4.222   7.364  0.3773  0.8181 -1.4862
   34MOL   H20014126   2.610   4.054   7.427  0.2614 -0.7639  0.5861
   34MOL   H20114127   2.465   3.968   7.638  0.5356  1.5849  2.3272
   34MOL   H20214128   2.332   4.037   7.558 -0.7430  3.0980  1.8450
   34MOL   H20314129   2.480   4.270   7.569  2.1360  0.3621  0.2414
   34MOL   H20414130   2.587   4.161   7.667 -0.7426 -2.0522 -0.5583
   34MOL   H20514131   2.294   4.229   7.712 -0.3565  0.8547  1.5021
   34MOL   H20614132   2.383   4.130   0.099 -1.9113  0.3604 -0.9246
   34MOL   H20714133   2.456   4.420   0.037 -2.9163 -2.1617 -2.4762
   34MOL   H20814134   2.544   4.308   0.152 -1.4803 -2.8288  0.7969
   34MOL   H20914135   2.333   4.295   0.293 -0.2732  0.0847  0.0289
   34MOL   H21014136   2.251   4.406   0.191  0.3287  1.4042  0.0624
   34MOL   H21114137   2.393   4.461   0.285  1.1339 -1.4602  2.2607
   34MOL   C21214138   2.499   3.882   7.376 -0.4630 -1.1601 -0.0707
   34MOL   C21314139   2.611   3.800   7.440 -0.5385 -0.7137 -0.7124
   34MOL   C21414140   2.554   3.668   7.498  0.4471 -0.1107  0.6055
   34MOL   C21514141   2.532   3.557   7.390  0.5361  0.0137 -0.5222
   34MOL   C21614142   2.398   3.475   7.412  0.0047  1.2154  0.2922
   34MOL   C21714143   2.400   3.396   7.544 -0.2767 -0.3222 -0.5765
   34MOL   C21814144   2.267   3.311   7.547 -1.0149 -0.2182 -0.8839
   34MOL   H21914145   2.513   3.878   7.268  2.2287  1.3261  0.1074
   34MOL   H22014146   2.403   3.838   7.403 -2.7279  2.2109 -2.2541
   34MOL   H22114147   2.639   3.836   7.539  1.1328 -0.6402 -1.2012
   34MOL   H22214148   2.623   3.631   7.574  2.7556  1.4408 -0.6896
   34MOL   H22314149   2.464   3.681   7.558 -0.3105  0.2390 -0.5874
   34MOL   H22414150   2.629   3.509   7.377 -0.1668 -1.0499 -1.9799
   34MOL   H22514151   2.512   3.612   7.298 -0.7505  1.1013  0.3935
   34MOL   H22614152   2.309   3.538   7.406  0.3906  1.7489  0.1006
   34MOL   H22714153   2.391   3.412   7.323  1.0430  1.5985 -0.0817
   34MOL   H22814154   2.490   3.336   7.549  0.4144  0.7763  0.3297
   34MOL   H22914155   2.395   3.468   7.625 -0.1935  1.2348 -1.9355
   34MOL   H23014156   2.249   3.262   7.642  1.0277  0.2688 -0.2187
   34MOL   H23114157   2.274   3.223   7.483  1.8712  1.8197 -3.4886
   34MOL   H23214158   2.184   3.376   7.516  0.3606  1.8302 -0.3922
   34MOL   C23314159   2.739   3.782   7.354  0.1566  0.3076  0.5481
   34MOL   C23414160   2.823   3.910   7.333 -0.0949 -0.2425  0.3148
   34MOL   C23514161   2.875   3.974   7.468  0.7681  0.1386 -0.0470
   34MOL   C23614162   2.898   4.124   7.473 -0.4337 -0.1701  0.3545
   34MOL   C23714163   2.995   4.162   7.588 -0.4901  0.1738 -1.1491
   34MOL   C23814164   3.047   4.307   7.592  0.3800 -0.3312 -0.1198
   34MOL   C23914165   2.943   4.407   7.659  0.6031  0.3710  0.6638
   34MOL   H24014166   2.710   3.738   7.259  0.8332 -1.9483  1.3674
   34MOL   H24114167   2.800   3.705   7.401 -2.0479 -0.2502  2.5668
   34MOL   H24214168   2.761   3.986   7.284 -1.0685 -0.3896  1.3050
   34MOL   H24314169   2.955   3.918   7.515  0.6986  0.2681  0.2248
   34MOL   H24414170   2.793   3.962   7.539  1.4124 -0.9190  0.5277
   34MOL   H24514171   2.806   4.182   7.470 -1.4966 -1.7050  2.0207
   34MOL   H24614172   2.951   4.150   7.382 -2.3150 -0.0738 -0.7464
   34MOL   H24714173   3.088   4.104   7.592 -1.7977 -1.8988  0.4445
   34MOL   H24814174   2.948   4.154   7.686 -0.1179  0.5554 -0.9383
   34MOL   H24914175   3.139   4.313   7.650 -0.2917 -2.1969  1.1808
   34MOL   H25014176   3.060   4.330   7.486 -3.8661  0.0705 -0.6141
   34MOL   H25114177   2.984   4.503   7.692 -0.1990  0.4380  1.4745
   34MOL   H25214178   2.860   4.433   7.593  0.4962  1.0074  1.0505
   34MOL   H25314179   2.891   4.352   0.024 -0.3225  1.0755  0.5482
   34MOL   C25414180   2.939   3.891   7.233 -0.2497 -0.2168 -0.1867
   34MOL   C25514181   3.055   3.802   7.287 -0.1988 -0.2832  0.2267
   34MOL   C25614182   3.172   3.888   7.338  0.5138 -0.7529  0.3852
   34MOL   C25714183   3.277   3.819   7.421  0.2580 -0.3212 -0.7037
   34MOL   C25814184   3.371   3.920   7.479 -0.0331  0.1667  0.4786
   34MOL   C25914185   3.484   3.860   7.560 -0.1672  0.0205 -0.6036
   34MOL   C26014186   3.581   3.967   7.614 -1.0184 -0.1497 -0.2132
   34MOL   H26114187   2.981   3.990   7.212  0.5329 -0.1565  1.5409
   34MOL   H26214188   2.896   3.859   7.139  1.1094 -1.1303 -0.5173
   34MOL   H26314189   3.023   3.749   7.376 -0.0020 -0.3872  0.2346
   34MOL   H26414190   3.140   3.971   7.401 -0.6581  0.7939 -2.1825
   34MOL   H26514191   3.213   3.948   7.257  0.4680 -0.6708  0.4226
   34MOL   H26614192   3.237   3.758   7.502  0.8497  0.3473  0.0900
   34MOL   H26714193   3.330   3.748   7.357  1.4538  0.9108 -1.0953
   34MOL   H26814194   3.308   3.985   7.540 -0.6727  0.7037 -0.7344
   34MOL   H26914195   3.419   3.985   7.407  0.2303 -1.8899 -1.2417
   34MOL   H27014196   3.447   3.808   7.648 -0.2176  1.4023  0.2036
   34MOL   H27114197   3.527   3.782   7.497  0.3786  0.8505 -1.2670
   34MOL   H27214198   3.674   3.920   7.649 -1.0957  0.3304  0.6702
   34MOL   H27314199   3.612   4.034   7.534 -0.6648  1.4109  1.1804
   34MOL   H27414200   3.549   4.033   7.695 -1.6732 -0.3918 -0.2750
   34MOL   C27514201   3.098   3.701   7.185 -0.5391  0.4804 -0.2683
   34MOL   C27614202   2.991   3.598   7.138  0.0033 -0.0024  0.0881
   34MOL   C27714203   3.000   3.491   7.249 -0.0006  0.3156 -0.0274
   34MOL   C27814204   2.889   3.390   7.250 -0.7081  0.0083  0.6088
   34MOL   C27914205   2.881   3.302   7.368 -0.1083  0.3533 -0.8110
   34MOL   C28014206   2.750   3.213   7.373  0.0784  0.0858  0.0560
   34MOL   C28114207   2.745   3.142   7.510 -0.2933  0.2720  0.2368
   34MOL   H28214208   3.193   3.655   7.216 -0.1332  1.1568 -0.4997
   34MOL   H28314209   3.128   3.750   7.092 -1.0377  0.5438 -0.3962
   34MOL   H28414210   2.890   3.640   7.140 -0.3097 -0.7834  0.6643
   34MOL   H28514211   3.097   3.444   7.236  0.5361  1.5003 -0.3935
   34MOL   H28614212   3.020   3.538   7.346  0.1136  1.6092 -0.6648
   34MOL   H28714213   2.894   3.331   7.159  1.8716 -0.3126  0.9419
   34MOL   H28814214   2.795   3.446   7.252 -0.5194  0.3511 -0.0977
   34MOL   H28914215   2.879   3.360   7.460  0.8614  0.0221 -0.5754
   34MOL   H29014216   2.966   3.233   7.362 -0.7883 -0.3960 -1.9105
   34MOL   H29114217   2.665   3.278   7.355  1.3861  1.7848 -0.1774
   34MOL   H29214218   2.752   3.138   7.293  1.2285 -0.2850  0.4158
   34MOL   H29314219   2.845   3.112   7.540 -0.9751 -0.7080  1.5745
   34MOL   H29414220   2.678   3.056   7.498 -0.4501  0.4315 -0.0593
   34MOL   H29514221   2.713   3.209   7.589 -0.9993  1.8078 -1.3123
   34MOL   C29614222   3.020   3.536   7.003 -0.2739 -0.1366  0.9159
   34MOL   C29714223   2.977   3.624   6.887 -0.0936 -0.0621  0.8314
   34MOL   C29814224   2.851   3.564   6.812  0.3893  0.2434 -0.0621
   34MOL   C29914225   2.733   3.565   6.903  0.1270  0.2290  0.3583
   34MOL   C30014226   2.604   3.507   6.844 -0.1821  0.7584 -0.0478
   34MOL   C30114227   2.479   3.555   6.915 -0.1380 -0.2274  0.1128
   34MOL   C30214228   2.456   3.476   7.049  0.2835 -0.6938  0.4421
   34MOL   H30314229   3.124   3.508   6.987 -1.1084 -2.3807 -0.9088
   34MOL   H30414230   2.972   3.439   6.996 -0.5420  0.0771 -0.4162
   34MOL   H30514231   2.951   3.726   6.915  1.5019  1.2634 -2.2404
   34MOL   H30614232   2.827   3.623   6.724 -0.7012  0.6095  0.4783
   34MOL   H30714233   2.879   3.464   6.780 -1.2557 -0.6712  1.2956
   34MOL   H30814234   2.715   3.663   6.949 -0.6006  1.5512 -2.6207
   34MOL   H30914235   2.756   3.492   6.981 -0.0023 -2.7241 -2.2985
   34MOL   H31014236   2.609   3.399   6.830 -0.6699  0.5288  1.5264
   34MOL   H31114237   2.595   3.542   6.741 -1.7757 -2.6072 -1.1348
   34MOL   H31214238   2.473   3.663   6.924 -0.1532 -0.3313  1.4037
   34MOL   H31314239   2.395   3.534   6.849 -0.7058  0.9620  0.4598
   34MOL   H31414240   2.550   3.493   7.101  0.1982 -0.5742  0.5596
   34MOL   H31514241   2.369   3.504   7.108 -0.4662 -1.9099 -0.0732
   34MOL   H31614242   2.457   3.370   7.027  1.7617 -0.5114 -0.4270
   34MOL   C31714243   3.092   3.639   6.791 -0.6853 -0.0690  0.7249
   34MOL   C31814244   3.086   3.763   6.689 -0.3854 -1.0298  0.2499
   34MOL   C31914245   3.093   3.899   6.756 -0.6500 -1.1554 -1.2135
   34MOL   C32014246   3.213   3.920   6.847 -0.0178  0.3568 -0.8760
   34MOL   C32114247   3.222   4.059   6.920  0.2855 -0.5105  0.3478
   34MOL   C32214248   3.358   4.075   6.985 -0.0681 -0.0029  0.4526
   34MOL   C32314249   3.451   4.161   6.905  0.2138 -0.1757  0.2575
   34MOL   H32414250   3.103   3.543   6.740  1.4377  0.4232  0.2034
   34MOL   H32514251   3.186   3.642   6.845 -1.8070 -0.0633  2.7105
   34MOL   H32614252   2.988   3.763   6.641 -0.0691 -2.9703 -0.4047
   34MOL   H32714253   3.001   3.914   6.814  1.4675 -0.7196  2.1657
   34MOL   H32814254   3.100   3.980   6.683 -0.2730  0.4863  0.5854
   34MOL   H32914255   3.302   3.907   6.785  0.5926  0.9784 -0.1497
   34MOL   H33014256   3.225   3.838   6.917 -1.6689  1.4228  0.7063
   34MOL   H33114257   3.140   4.052   6.992 -0.9853  1.3137 -0.8885
   34MOL   H33214258   3.195   4.141   6.854 -0.3437  0.3344  1.6303
   34MOL   H33314259   3.404   3.980   7.012  0.2273  0.1118  0.3532
   34MOL   H33414260   3.341   4.140   7.070  0.0419  1.1379 -0.3845
   34MOL   H33514261   3.399   4.251   6.869  1.6500 -0.0182 -1.4990
   34MOL   H33614262   3.470   4.114   6.809 -1.2755 -2.6416  1.1198
   34MOL   H33714263   3.546   4.187   6.952  0.2360  0.2561 -0.0211
   34MOL   C33814264   3.189   3.737   6.573 -0.6315 -0.4967  0.5373
   34MOL   C33914265   3.161   3.816   6.448 -1.1525 -0.4025  0.4498
   34MOL   C34014266   3.048   3.754   6.365  0.5490 -0.2787 -0.4292
   34MOL   C34114267   3.006   3.853   6.261 -0.1503  0.4047  0.4632
   34MOL   C34214268   2.887   3.806   6.181 -0.0311  0.1493 -0.1161
   34MOL   C34314269   2.838   3.922   6.099 -0.4996 -0.9398 -0.3638
   34MOL   C34414270   2.743   3.865   5.986  0.2171 -0.2711 -0.1602
   34MOL   H34514271   3.199   3.635   6.537 -2.0778 -0.3297 -0.3990
   34MOL   H34614272   3.287   3.772   6.605 -0.7134  0.1888  0.0564
   34MOL   H34714273   3.120   3.912   6.478  0.4911  0.2494  0.6784
   34MOL   H34814274   3.088   3.662   6.323  1.4543 -0.0749 -0.0189
   34MOL   H34914275   2.964   3.730   6.430  1.4489  1.4281  1.4345
   34MOL   H35014276   3.082   3.873   6.185 -1.6884 -0.2603 -1.3084
   34MOL   H35114277   2.989   3.945   6.317  2.2296  0.3276  1.3731
   34MOL   H35214278   2.913   3.719   6.120 -0.1428 -0.0369  0.0980
   34MOL   H35314279   2.806   3.768   6.244  0.0154 -4.0031 -2.3681
   34MOL   H35414280   2.783   3.999   6.152  1.3391 -0.8230  1.4537
   34MOL   H35514281   2.921   3.955   6.037  0.5815 -2.2405  0.3586
   34MOL   H35614282   2.736   3.950   5.918  2.0071  0.8711  1.0306
   34MOL   H35714283   2.645   3.829   6.016 -1.1492  0.6374 -3.3502
   34MOL   H35814284   2.790   3.786   5.928 -1.0194 -0.2494 -1.1956
   34MOL   C35914285   3.291   3.864   6.373  0.2008 -0.8323 -0.1904
   34MOL   C36014286   3.369   3.992   6.428 -0.5220 -0.7898 -0.5967
   34MOL   C36114287   3.519   3.997   6.382 -0.5293  0.2621 -0.4293
   34MOL   C36214288   3.610   3.885   6.441 -0.9249 -0.2010 -0.9353
   34MOL   C36314289   3.606   3.871   6.596  0.1188  0.6213  0.0890
   34MOL   C36414290   3.734   3.820   6.662 -0.3927  0.0669  0.3583
   34MOL   C36514291   3.851   3.917   6.655  0.2404 -0.2431 -0.0727
   34MOL   H36614292   3.288   3.868   6.264 -0.6083 -0.8674 -0.1752
   34MOL   H36714293   3.358   3.779   6.385 -1.1251 -1.9082 -0.2377
   34MOL   H36814294   3.367   3.991   6.537  3.8271 -1.2085 -0.4327
   34MOL   H36914295   3.522   3.992   6.273 -0.5286 -0.9579 -0.3807
   34MOL   H37014296   3.552   4.095   6.416 -0.8071  0.2190 -0.0315
   34MOL   H37114297   3.572   3.785   6.421  0.8180 -1.2842  0.9682
   34MOL   H37214298   3.704   3.893   6.386 -0.8387  1.6108 -0.5802
   34MOL   H37314299   3.588   3.975   6.622  2.4125  0.9116  0.6317
   34MOL   H37414300   3.519   3.813   6.628  0.2849 -0.2494 -0.9783
   34MOL   H37514301   3.714   3.795   6.766  1.6106 -0.1447  0.7162
   34MOL   H37614302   3.773   3.729   6.616 -0.6544  0.8329 -1.4453
   34MOL   H37714303   3.835   4.004   6.719  1.6945  1.0445 -1.4131
   34MOL   H37814304   3.945   3.882   6.696  0.6909  0.1736 -0.7440
   34MOL   H37914305   3.856   3.956   6.553 -0.6448  0.1788  0.0355
   34MOL   C38014306   3.295   4.115   6.382 -0.5565  0.2972  0.4201
   34MOL   C38114307   3.335   4.247   6.459 -0.5596  0.6950 -0.1860
   34MOL   C38214308   3.434   4.338   6.375 -0.2988  0.1265 -0.3032
   34MOL   C38314309   3.488   4.466   6.445  0.0158 -0.1120  0.2891
   34MOL   C38414310   3.603   4.530   6.370  0.2040 -0.9662  0.3673
   34MOL   C38514311   3.620   4.686   6.363  0.1422  0.5407  0.7577
   34MOL   C38614312   3.499   4.753   6.294 -0.2678 -0.1299  0.2948
   34MOL   H38714313   3.305   4.138   6.275 -1.1882 -1.1140  0.0520
   34MOL   H38814314   3.189   4.103   6.403 -0.2303  1.3991  2.9340
   34MOL   H38914315   3.378   4.216   6.554 -0.0990 -0.9711 -0.9130
   34MOL   H39014316   3.378   4.375   6.289  0.4754  0.0781 -0.8269
   34MOL   H39114317   3.516   4.282   6.332  0.4708  0.0782  1.1989
   34MOL   H39214318   3.400   4.530   6.454 -0.7702 -1.3676  1.8904
   34MOL   H39314319   3.517   4.447   6.549 -3.1142 -1.0867  1.0738
   34MOL   H39414320   3.694   4.493   6.417  0.4733  0.4709  1.0036
   34MOL   H39514321   3.599   4.491   6.268 -3.5941  1.7389 -0.6516
   34MOL   H39614322   3.714   4.716   6.315 -0.1764 -0.7586 -0.7077
   34MOL   H39714323   3.631   4.724   6.465  1.4246  0.9639  0.4719
   34MOL   H39814324   3.496   4.758   6.185 -1.9992 -4.3357  0.0511
   34MOL   H39914325   3.513   4.857   6.326  0.8266  0.2314 -1.2893
   34MOL   H40014326   3.407   4.723   6.345  0.7730 -0.7847  1.8021
   34MOL   C40114327   3.216   4.327   6.511  0.1766  0.5820 -0.0589
   34MOL   C40214328   3.117   4.375   6.404 -0.4167 -0.0977  0.2472
   34MOL   C40314329   2.994   4.433   6.469  0.3217  0.1054 -0.1465
   34MOL   C40414330   2.894   4.487   6.372  0.2240 -0.0642 -0.3653
   34MOL   C40514331   2.821   4.389   6.284 -1.0813 -0.0728  0.3631
   34MOL   C40614332   2.745   4.462   6.177 -0.3153 -0.2210  0.8004
   34MOL   C40714333   2.640   4.376   6.104  0.0913 -0.0127  0.2761
   34MOL   H40814334   3.250   4.413   6.569 -1.6681  0.3365  1.4341
   34MOL   H40914335   3.170   4.255   6.578 -0.7316  2.4166  1.3229
   34MOL   H41014336   3.086   4.296   6.336 -1.4082  0.0799  0.4852
   34MOL   H41114337   3.016   4.516   6.537 -0.1355  0.4816 -0.4524
   34MOL   H41214338   2.939   4.357   6.524  2.7969 -2.1246 -0.6428
   34MOL   H41314339   2.954   4.551   6.307  1.8877 -0.0042  1.1677
   34MOL   H41414340   2.817   4.546   6.421  0.8263 -0.0888  0.6267
   34MOL   H41514341   2.875   4.301   6.249 -1.4300 -0.0868 -0.1573
   34MOL   H41614342   2.747   4.351   6.354 -2.9084 -0.1377 -1.5541
   34MOL   H41714343   2.683   4.543   6.215  1.2355  1.5376 -0.3579
   34MOL   H41814344   2.816   4.491   6.100  0.1674  1.2340  1.7785
   34MOL   H41914345   2.564   4.330   6.168  2.9738 -0.1021  3.7922
   34MOL   H42014346   2.689   4.295   6.051 -0.7252  0.3248 -1.0307
   34MOL   H42114347   2.596   4.441   6.028  1.5513 -1.0036 -1.4550
   34MOL   H42214348   3.164   4.452   6.343 -0.5431  0.2616  0.6075
   35MOL     C114349   7.174   3.154   7.586 -0.2250  0.2182  0.0490
   35MOL     C214350   7.029   3.162   7.536 -0.4661 -0.1410 -1.0432
   35MOL     C314351   6.982   3.315   7.539  0.4006  1.0554  0.6485
   35MOL     C414352   7.033   3.412   7.427  0.0013  0.3174  0.6528
   35MOL     C514353   6.975   3.548   7.407  0.4647 -0.1170  0.6033
   35MOL     C614354   7.022   3.635   7.288 -0.4384 -0.7376 -0.3444
   35MOL     C714355   7.162   3.695   7.311  0.1568 -0.3017 -0.5219
   35MOL     H814356   7.216   3.054   7.572  0.5862  0.7734 -1.6195
   35MOL     H914357   7.187   3.186   7.689 -0.7026  2.6412 -0.6152
   35MOL    H1014358   7.018   3.107   7.443  0.8991 -0.0383 -1.2697
   35MOL    H1114359   6.873   3.322   7.536  0.0276 -3.8058 -1.7230
   35MOL    H1214360   7.022   3.357   7.632  1.3635 -2.0114  1.6654
   35MOL    H1314361   7.140   3.429   7.439  0.5399 -1.8444 -0.6285
   35MOL    H1414362   7.030   3.369   7.326 -0.2739 -2.1634  1.6891
   35MOL    H1514363   6.999   3.604   7.497  2.0546 -1.8705  1.3243
   35MOL    H1614364   6.867   3.545   7.411  0.4666 -1.4628 -0.0176
   35MOL    H1714365   6.943   3.706   7.262  0.6112  1.0290  1.1972
   35MOL    H1814366   7.025   3.572   7.199  1.4434  0.3152 -1.0485
   35MOL    H1914367   7.230   3.621   7.353  1.6183  0.5774 -1.3077
   35MOL    H2014368   7.161   3.788   7.368  3.7435  0.8122 -2.0997
   35MOL    H2114369   7.206   3.708   7.212 -0.1305 -1.7819 -0.8480
   35MOL    H2214370   7.245   3.214   7.530 -1.6978  2.2782  0.3300
   35MOL    C2314371   6.937   3.077   7.628  0.0940  0.5726 -0.1689
   35MOL    C2414372   6.788   3.049   7.579  0.1000 -0.2754  0.4698
   35MOL    C2514373   6.690   3.098   7.685  0.0530 -0.0345 -0.1997
   35MOL    C2614374   6.691   3.233   0.031  0.2297 -0.0319 -0.1534
   35MOL    C2714375   6.571   3.259   0.134  0.1500 -0.1348  0.2902
   35MOL    C2814376   6.593   3.197   0.275 -0.4716 -0.4535 -0.1421
   35MOL    C2914377   6.705   3.254   0.357  0.0383 -0.5076  0.2159
   35MOL    H3014378   6.989   2.981   7.635 -2.9332 -1.0620  0.6672
   35MOL    H3114379   6.932   3.115   0.017  0.5454 -1.4605  0.6414
   35MOL    H3214380   6.768   3.104   7.487 -1.1497 -0.2363  0.7537
   35MOL    H3314381   6.699   3.038   0.062  0.9159 -0.3943 -0.5162
   35MOL    H3414382   6.590   3.075   7.650  0.3287 -0.7573 -0.5318
   35MOL    H3514383   6.656   3.301   7.667 -1.3212  0.6931  1.1378
   35MOL    H3614384   6.781   3.267   0.082  0.9238 -0.5490 -1.0290
   35MOL    H3714385   6.480   3.218   0.089  0.0539  1.3323 -0.9149
   35MOL    H3814386   6.551   3.366   0.138 -0.1177 -0.1552 -0.4912
   35MOL    H3914387   6.599   3.088   0.266 -0.2873 -0.4209 -0.4059
   35MOL    H4014388   6.498   3.213   0.326 -0.1042  1.5348 -0.0486
   35MOL    H4114389   6.693   3.362   0.354  0.6330 -0.3258  2.8673
   35MOL    H4214390   6.715   3.215   0.459 -0.3089  1.3359  0.9746
   35MOL    H4314391   6.801   3.239   0.307 -0.8926  1.1218 -2.1031
   35MOL    C4414392   6.755   2.898   7.548 -0.0095 -0.1383 -0.5248
   35MOL    C4514393   6.642   2.873   7.444  0.1191 -0.4784  0.4571
   35MOL    C4614394   6.673   2.924   7.305 -0.1588  0.0245  0.2090
   35MOL    C4714395   6.554   2.988   7.228  0.4205 -0.2756  0.0170
   35MOL    C4814396   6.504   3.109   7.307 -0.1365 -0.0331 -0.9728
   35MOL    C4914397   6.391   3.179   7.228  0.9685 -0.2005  0.6285
   35MOL    C5014398   6.256   3.113   7.210  0.2875 -0.3153 -0.4462
   35MOL    H5114399   6.725   2.857   7.644 -3.5338 -0.4657 -1.6671
   35MOL    H5214400   6.845   2.851   7.508  0.6014 -0.3884  1.1309
   35MOL    H5314401   6.550   2.919   7.480  1.9707  0.3291  4.4115
   35MOL    H5414402   6.716   2.841   7.250  0.9485  2.1487 -2.2346
   35MOL    H5514403   6.753   2.998   7.311 -0.6668  0.4884  1.3797
   35MOL    H5614404   6.590   3.021   7.130 -0.6351 -0.7079 -0.5264
   35MOL    H5714405   6.470   2.923   7.204  0.4068 -0.4776  0.6058
   35MOL    H5814406   6.587   3.179   7.315 -2.3027  2.5279  0.0004
   35MOL    H5914407   6.487   3.106   7.415  0.4660 -0.6600 -0.8875
   35MOL    H6014408   6.420   3.203   7.126 -0.8370  1.3411  0.4450
   35MOL    H6114409   6.372   3.266   7.291  1.8861  1.2817 -1.1005
   35MOL    H6214410   6.277   3.006   7.205 -1.2935 -0.6306 -0.5665
   35MOL    H6314411   6.209   3.139   7.115 -1.6620  0.8812  0.8022
   35MOL    H6414412   6.196   3.128   7.300 -0.3567 -0.4603 -0.8437
   35MOL    C6514413   6.611   2.721   7.460 -0.2699  0.5200 -0.7256
   35MOL    C6614414   6.495   2.657   7.378 -0.7940 -0.1446  0.2896
   35MOL    C6714415   6.367   2.665   7.465  0.1691 -0.5948 -0.2253
   35MOL    C6814416   6.233   2.657   7.379 -0.3912 -0.5336  0.0958
   35MOL    C6914417   6.106   2.725   7.448  0.1013 -0.6189 -0.4949
   35MOL    C7014418   6.105   2.880   7.439  1.1317 -0.8977 -0.0171
   35MOL    C7114419   5.984   2.950   7.503  0.2930 -0.6715  0.0360
   35MOL    H7214420   6.705   2.676   7.428 -1.0594 -0.1035 -2.2349
   35MOL    H7314421   6.595   2.695   7.565 -0.2023 -4.6134 -1.8545
   35MOL    H7414422   6.481   2.727   7.296  0.0180 -0.6800 -0.3145
   35MOL    H7514423   6.377   2.588   7.541 -2.8149 -0.4875  0.3260
   35MOL    H7614424   6.366   2.766   7.504 -2.2630 -1.9622  3.4810
   35MOL    H7714425   6.258   2.691   7.279 -1.4004  0.2918  0.1214
   35MOL    H7814426   6.202   2.553   7.367 -0.5006 -0.4288 -0.5489
   35MOL    H7914427   6.018   2.676   7.407  1.2861 -2.0924 -1.3286
   35MOL    H8014428   6.105   2.695   7.553 -1.9265  1.3108  0.0748
   35MOL    H8114429   6.106   2.906   7.334 -2.1584  1.5890  0.4834
   35MOL    H8214430   6.195   2.910   7.492 -0.6594  0.7130  2.2724
   35MOL    H8314431   5.898   2.923   7.442 -0.3760 -2.2279  1.5978
   35MOL    H8414432   5.976   2.918   7.607  0.5293 -2.6472 -0.5318
   35MOL    H8514433   5.991   3.058   7.504 -0.1177 -0.6444 -0.0185
   35MOL    C8614434   6.527   2.516   7.334 -0.0409 -0.0120 -0.0058
   35MOL    C8714435   6.551   2.501   7.178 -0.4785 -0.5243  0.2821
   35MOL    C8814436   6.642   2.379   7.154 -0.2275  0.0978 -0.3306
   35MOL    C8914437   6.792   2.400   7.138  0.3537  0.5851 -0.0245
   35MOL    C9014438   6.869   2.285   7.065 -0.0337 -0.3928  0.4108
   35MOL    C9114439   6.859   2.145   7.120  0.1530  0.3805  0.2390
   35MOL    C9214440   6.934   2.135   7.254 -0.3080  0.1896  0.5413
   35MOL    H9314441   6.606   2.472   7.395 -0.2638 -1.8208 -1.0088
   35MOL    H9414442   6.440   2.455   7.357  0.4292 -0.9220 -0.6407
   35MOL    H9514443   6.605   2.585   7.136 -0.7788 -0.8217 -0.6941
   35MOL    H9614444   6.620   2.301   7.227 -1.5344  2.1212  1.4994
   35MOL    H9714445   6.611   2.339   7.057  0.2359  0.8896 -0.8076
   35MOL    H9814446   6.818   2.495   7.090  0.2561  0.4030 -0.4369
   35MOL    H9914447   6.848   2.407   7.232 -0.0370  0.5142  0.2131
   35MOL   H10014448   6.976   2.289   7.047  0.0811 -0.6525  1.0309
   35MOL   H10114449   6.816   2.266   6.971  0.9488  0.1508 -0.2635
   35MOL   H10214450   6.753   2.118   7.123  0.1252  0.1274 -2.2340
   35MOL   H10314451   6.899   2.079   7.043  1.8809  1.6534  0.0334
   35MOL   H10414452   7.027   2.192   7.251  0.2830 -0.8050 -0.9446
   35MOL   H10514453   6.961   2.030   7.266 -1.4039 -0.1218  0.3294
   35MOL   H10614454   6.878   2.171   7.339 -0.4848 -1.7385  1.2756
   35MOL   C10714455   6.419   2.487   7.095 -0.0223 -0.2807  0.5380
   35MOL   C10814456   6.432   2.529   6.945 -0.1333  1.0350 -0.6702
   35MOL   C10914457   6.316   2.478   6.859 -0.1824  0.6318  0.6692
   35MOL   C11014458   6.311   2.325   6.848 -0.1221 -0.4333 -0.2039
   35MOL   C11114459   6.309   2.277   6.700 -1.0316  0.0576  0.2969
   35MOL   C11214460   6.171   2.249   6.641  0.1969 -0.1989  0.8982
   35MOL   C11314461   6.168   2.239   6.487  0.1692  0.2628 -0.3250
   35MOL   H11414462   6.350   2.552   7.148  1.3325 -0.1928  2.2547
   35MOL   H11514463   6.390   2.382   7.106  0.0419 -0.6623 -2.4928
   35MOL   H11614464   6.533   2.505   6.911  0.4424  0.9373  1.0253
   35MOL   H11714465   6.332   2.517   6.759  2.9164  3.3478  2.1569
   35MOL   H11814466   6.217   2.516   6.885 -0.6201  0.9664 -1.3460
   35MOL   H11914467   6.389   2.267   6.897 -0.6542 -1.0291 -0.0533
   35MOL   H12014468   6.226   2.286   6.905 -1.7476  3.3420  0.0707
   35MOL   H12114469   6.373   2.188   6.701  1.3206  1.7005  0.2432
   35MOL   H12214470   6.377   2.345   6.649 -0.7299 -0.7931 -0.4391
   35MOL   H12314471   6.116   2.168   6.688 -0.0858 -1.4354 -1.4872
   35MOL   H12414472   6.112   2.340   6.649 -0.0805 -0.2626 -0.3093
   35MOL   H12514473   6.081   2.193   6.440 -1.0847  0.5334  1.6702
   35MOL   H12614474   6.192   2.334   6.441 -4.4810  1.3478 -0.7658
   35MOL   H12714475   6.258   2.186   6.456  0.1657  0.0035  0.0916
   35MOL   C12814476   6.438   2.691   6.938  0.0201  0.7844 -0.2444
   35MOL   C12914477   6.528   2.735   6.820 -0.4122 -0.2517 -0.0118
   35MOL   C13014478   6.676   2.774   6.862  0.1548  0.2314 -0.5694
   35MOL   C13114479   6.780   2.746   6.760 -0.2573 -0.9360  0.4800
   35MOL   C13214480   6.839   2.600   6.766 -0.0498 -0.6982 -0.1332
   35MOL   C13314481   6.948   2.572   6.667 -0.6991 -0.1599  0.1601
   35MOL   C13414482   7.007   2.434   6.691 -0.2120 -0.0498  0.4218
   35MOL   H13514483   6.337   2.730   6.925 -0.6156  0.7835  3.9071
   35MOL   H13614484   6.469   2.738   7.032  1.8049  2.9383 -1.8478
   35MOL   H13714485   6.532   2.650   6.752  0.9087 -1.9024  2.0693
   35MOL   H13814486   6.699   2.735   6.961 -1.1149  0.6656 -0.0997
   35MOL   H13914487   6.673   2.880   6.886 -1.8630 -0.4199  2.2995
   35MOL   H14014488   6.865   2.813   6.774  1.5087 -3.0909  0.2853
   35MOL   H14114489   6.737   2.772   6.663  2.3008 -4.7779 -1.8083
   35MOL   H14214490   6.752   2.535   6.750  0.6125 -1.1560 -2.0164
   35MOL   H14314491   6.873   2.580   6.867  0.7508 -3.0343 -0.8300
   35MOL   H14414492   7.026   2.646   6.681 -1.2721 -0.0198  3.0342
   35MOL   H14514493   6.901   2.580   6.569 -1.4499 -0.8405  0.4616
   35MOL   H14614494   6.957   2.343   6.656  3.5771 -2.7350  1.6499
   35MOL   H14714495   7.027   2.419   6.797 -0.8398 -0.2952  0.5097
   35MOL   H14814496   7.107   2.427   6.649  0.1316  1.5613  0.9457
   35MOL   C14914497   6.441   2.833   6.740  0.1520 -0.4118  0.0893
   35MOL   C15014498   6.408   2.974   6.790  0.0733 -0.8248 -0.3661
   35MOL   C15114499   6.259   3.007   6.774  0.3644 -0.3439  0.3485
   35MOL   C15214500   6.156   2.930   6.867  0.0996 -0.3814 -0.2460
   35MOL   C15314501   6.019   3.013   6.877  0.3227  0.2122 -0.0919
   35MOL   C15414502   5.904   2.935   6.966  0.1232 -0.6034 -0.0858
   35MOL   C15514503   5.763   2.981   6.937  0.1178 -0.1221 -0.1238
   35MOL   H15614504   6.483   2.850   6.641 -1.2874  0.7812 -0.3352
   35MOL   H15714505   6.351   2.777   6.714  0.1681 -0.6033  0.4517
   35MOL   H15814506   6.430   2.988   6.896  1.1177 -0.0562 -0.6850
   35MOL   H15914507   6.240   3.115   6.777  0.4559 -0.3483  1.0825
   35MOL   H16014508   6.240   2.988   6.668  2.4158 -0.6079  0.0103
   35MOL   H16114509   6.206   2.920   6.964  1.8658  0.6143 -1.0404
   35MOL   H16214510   6.137   2.829   6.832 -0.4928 -0.4297  0.2030
   35MOL   H16314511   5.978   3.022   6.776  1.8195 -0.3542 -0.7696
   35MOL   H16414512   6.030   3.115   6.914 -0.4088  0.8403 -1.5634
   35MOL   H16514513   5.925   2.953   7.071  0.7436 -0.2060 -0.2749
   35MOL   H16614514   5.900   2.828   6.949 -0.3444 -0.5837 -0.1212
   35MOL   H16714515   5.703   2.930   7.013  1.2132  0.7794  1.3820
   35MOL   H16814516   5.727   2.944   6.841  0.1048 -0.2901 -0.0535
   35MOL   H16914517   5.759   3.090   6.943  1.5276  0.0051 -1.2494
   35MOL   C17014518   6.488   3.078   6.710 -0.6782 -0.6890  0.2011
   35MOL   C17114519   6.498   3.209   6.786 -0.2398 -0.1565  0.9906
   35MOL   C17214520   6.634   3.188   6.862  0.3419  0.3548 -0.1361
   35MOL   C17314521   6.685   3.291   6.974 -0.1744  0.5309 -0.3631
   35MOL   C17414522   6.816   3.257   7.055  0.1655 -0.3092  0.5142
   35MOL   C17514523   6.935   3.275   6.955 -0.1389  0.7120  0.2063
   35MOL   C17614524   7.072   3.280   7.020  0.8193  0.0339 -0.2726
   35MOL   H17714525   6.436   3.086   6.615 -0.1970  0.0631 -0.0049
   35MOL   H17814526   6.589   3.051   6.679 -1.0670 -1.3158 -0.5464
   35MOL   H17914527   6.411   3.217   6.851 -2.5386 -1.2527 -1.8209
   35MOL   H18014528   6.710   3.197   6.785  2.1865 -1.7534  1.3651
   35MOL   H18114529   6.645   3.090   6.908  0.6024  0.4508  0.0029
   35MOL   H18214530   6.615   3.293   7.058  1.6447 -0.8799  1.2507
   35MOL   H18314531   6.688   3.391   6.932 -0.7773  1.9840  2.8596
   35MOL   H18414532   6.814   3.162   7.108  0.0469  0.4745  1.9613
   35MOL   H18514533   6.829   3.336   7.130  0.9947  1.5911 -1.5738
   35MOL   H18614534   6.926   3.368   6.900 -1.3292  1.2863  1.3483
   35MOL   H18714535   6.949   3.193   6.885 -1.7397  0.9813 -0.4544
   35MOL   H18814536   7.145   3.309   6.944 -0.9250 -0.3448 -2.1423
   35MOL   H18914537   7.095   3.182   7.063  2.5243  1.7276  2.8629
   35MOL   H19014538   7.073   3.350   7.103  0.6280  1.6389 -1.6131
   35MOL   C19114539   6.510   3.333   6.699  0.8170  0.9804  0.3549
   35MOL   C19214540   6.385   3.377   6.625  0.5036 -0.1034  0.0709
   35MOL   C19314541   6.361   3.529   6.644  0.1250  0.5490 -0.0991
   35MOL   C19414542   6.309   3.568   6.781 -0.0049 -0.4673 -0.7183
   35MOL   C19514543   6.307   3.715   6.796 -1.0113  0.1815  0.0417
   35MOL   C19614544   6.271   3.756   6.932 -0.1102 -0.1060  0.4821
   35MOL   C19714545   6.334   3.897   6.970  0.5703  0.3011  0.1643
   35MOL   H19814546   6.599   3.325   6.637  0.9892  1.2317  0.5711
   35MOL   H19914547   6.539   3.418   6.761  2.6861  1.6560 -1.4091
   35MOL   H20014548   6.295   3.331   6.666  0.5554 -1.2491 -1.0555
   35MOL   H20114549   6.286   3.560   6.570  1.5895  1.5193 -1.2142
   35MOL   H20214550   6.455   3.578   6.619  1.2440 -1.4497  0.1424
   35MOL   H20314551   6.381   3.525   6.850  0.6246 -0.7352 -1.5267
   35MOL   H20414552   6.213   3.521   6.804 -0.2964  0.4994  0.0644
   35MOL   H20514553   6.407   3.754   6.777 -0.4862 -1.6824 -1.1420
   35MOL   H20614554   6.240   3.752   6.718 -0.0904 -0.7769 -1.2212
   35MOL   H20714555   6.307   3.689   7.010  2.0923  0.2893 -0.1665
   35MOL   H20814556   6.162   3.765   6.935 -0.2003 -1.0593  0.2891
   35MOL   H20914557   6.442   3.891   6.976  0.6161 -0.0534 -1.0205
   35MOL   H21014558   6.298   3.948   7.060  0.1385  0.7069 -0.2385
   35MOL   H21114559   6.308   3.965   6.889  1.7984 -0.9057 -1.2542
   35MOL   C21214560   6.378   3.328   6.482 -0.5070  0.4629 -0.3398
   35MOL   C21314561   6.243   3.257   6.444  0.4850  0.1411  0.3321
   35MOL   C21414562   6.120   3.356   6.454  0.6884 -0.2935  0.1959
   35MOL   C21514563   6.118   3.469   6.347  0.9389 -1.1964 -0.2304
   35MOL   C21614564   5.980   3.540   6.338  0.0464 -0.5198  0.3093
   35MOL   C21714565   5.985   3.661   6.243  0.1533 -0.5289 -0.0652
   35MOL   C21814566   5.846   3.711   6.197  0.5717  0.2286 -0.6229
   35MOL   H21914567   6.466   3.267   6.464  0.6259  2.2230 -0.9655
   35MOL   H22014568   6.394   3.417   6.420  1.5746  0.1588 -0.2699
   35MOL   H22114569   6.219   3.182   6.520 -0.4989  0.3267  0.2123
   35MOL   H22214570   6.034   3.292   6.435  0.9247 -0.5743  0.0545
   35MOL   H22314571   6.110   3.391   6.556  1.1315  1.0097 -0.1930
   35MOL   H22414572   6.152   3.441   6.247  2.0734 -1.1266  0.1210
   35MOL   H22514573   6.198   3.533   6.386  1.9092 -2.7684  0.4226
   35MOL   H22614574   5.909   3.469   6.296 -0.6258  0.4273 -0.1508
   35MOL   H22714575   5.934   3.558   6.435  0.9032  0.8845  0.4697
   35MOL   H22814576   6.028   3.747   6.295 -0.6576  1.1342 -2.0572
   35MOL   H22914577   6.052   3.639   6.160 -0.1996 -0.5223 -0.3504
   35MOL   H23014578   5.804   3.625   6.146 -1.9189  2.6440 -2.7860
   35MOL   H23114579   5.850   3.793   6.125 -1.0696 -0.8391 -1.9520
   35MOL   H23214580   5.775   3.737   6.276 -2.3019  1.4372 -3.4875
   35MOL   C23314581   6.245   3.193   6.301 -0.4265 -0.5543 -0.5400
   35MOL   C23414582   6.325   3.064   6.272  0.3835  0.0291  1.0646
   35MOL   C23514583   6.287   2.948   6.366  0.2269 -0.4926 -0.2628
   35MOL   C23614584   6.137   2.913   6.387  0.0824  0.4680  0.2563
   35MOL   C23714585   6.125   2.785   6.475  0.1288  0.5580 -0.8215
   35MOL   C23814586   5.996   2.707   6.456 -0.5988 -1.6329 -0.2629
   35MOL   C23914587   6.003   2.596   6.556  0.0248 -0.0397  0.6091
   35MOL   H24014588   6.267   3.272   6.230 -1.4970 -1.0206 -1.4113
   35MOL   H24114589   6.141   3.176   6.273 -0.2655  0.6745 -1.9453
   35MOL   H24214590   6.431   3.089   6.277  0.2372  0.3940  2.5720
   35MOL   H24314591   6.341   2.968   6.458  0.6308 -0.0775 -0.5897
   35MOL   H24414592   6.328   2.857   6.322 -1.4741 -1.2620 -0.3072
   35MOL   H24514593   6.092   2.890   6.290  1.6007 -0.3560 -0.2606
   35MOL   H24614594   6.075   2.998   6.415 -0.1147  1.3213 -2.6510
   35MOL   H24714595   6.136   2.815   6.579  1.9225  0.6827 -1.0249
   35MOL   H24814596   6.213   2.721   6.470  0.8761  1.5176 -0.1364
   35MOL   H24914597   5.911   2.775   6.468  2.0929  2.1856 -2.0232
   35MOL   H25014598   5.987   2.655   6.361  1.8410 -1.5329 -0.5657
   35MOL   H25114599   6.017   2.624   6.660 -2.0893  1.7999  0.4293
   35MOL   H25214600   5.921   2.525   6.554 -1.2423  1.4230 -0.6264
   35MOL   H25314601   6.088   2.536   6.523  0.7676  0.9200  0.7414
   35MOL   C25414602   6.296   3.033   6.126  0.0093  0.0169 -0.6046
   35MOL   C25514603   6.405   2.951   6.051 -0.1857  0.3159  0.4887
   35MOL   C25614604   6.533   3.033   6.026  1.0869  0.1143 -0.2827
   35MOL   C25714605   6.665   2.957   6.056 -0.7850  0.9480 -0.1166
   35MOL   C25814606   6.681   2.913   6.202 -0.1287 -0.2771 -0.2038
   35MOL   C25914607   6.835   2.892   6.231  0.2476 -0.1034 -0.0377
   35MOL   C26014608   6.856   2.812   6.360 -0.2664  0.0516  0.1624
   35MOL   H26114609   6.271   3.126   6.077 -1.6922  2.2122  4.1335
   35MOL   H26214610   6.199   2.985   6.114 -0.2003  0.3415 -0.2099
   35MOL   H26314611   6.426   2.873   6.125 -0.2753  0.8214  1.0472
   35MOL   H26414612   6.530   3.131   6.074 -0.4250 -0.1598  0.2257
   35MOL   H26514613   6.538   3.060   5.921 -1.1578  0.9770 -0.1983
   35MOL   H26614614   6.674   2.870   5.991 -2.0015  0.6607  0.0722
   35MOL   H26714615   6.745   3.020   6.019 -1.0958 -0.4569 -3.3360
   35MOL   H26814616   6.629   2.817   6.216 -0.5572 -0.0765 -0.4115
   35MOL   H26914617   6.640   2.981   6.277  0.2781 -1.2023  0.8879
   35MOL   H27014618   6.875   2.829   6.152  0.9658 -0.9773  0.9952
   35MOL   H27114619   6.897   2.981   6.240 -0.1806 -0.0389  2.8960
   35MOL   H27214620   6.841   2.874   6.449 -0.3261  0.4736 -0.1394
   35MOL   H27314621   6.801   2.718   6.367  1.8261 -1.1611  0.7683
   35MOL   H27414622   6.958   2.775   6.371  0.2879  1.2179 -0.9768
   35MOL   C27514623   6.353   2.892   5.913 -0.2791 -0.6132  0.5095
   35MOL   C27614624   6.259   2.765   5.917  0.4625 -0.1719  0.0228
   35MOL   C27714625   6.344   2.650   5.972  0.2325 -0.0895  0.4360
   35MOL   C27814626   6.267   2.516   6.001 -0.5232  0.4949 -0.0419
   35MOL   C27914627   6.360   2.414   6.062  0.1794  0.7731  0.2873
   35MOL   C28014628   6.304   2.269   6.068  0.1447 -0.1843  0.4894
   35MOL   C28114629   6.395   2.178   6.156 -0.4305  1.1242  0.2176
   35MOL   H28214630   6.444   2.867   5.859  0.7929  0.6162  1.6788
   35MOL   H28314631   6.316   2.981   5.862 -1.0258 -1.5053 -0.5097
   35MOL   H28414632   6.178   2.783   5.987  1.0247  4.3055 -0.3131
   35MOL   H28514633   6.415   2.634   5.891 -0.2291  1.5395 -0.3186
   35MOL   H28614634   6.397   2.674   6.064  0.5051  0.8616  0.0362
   35MOL   H28714635   6.210   2.478   5.916 -0.3693  0.5434 -0.1645
   35MOL   H28814636   6.189   2.535   6.075  1.3114 -0.3878  2.1752
   35MOL   H28914637   6.387   2.444   6.163 -0.7793 -1.9996  1.3995
   35MOL   H29014638   6.450   2.422   6.000  0.3710  1.4677  0.6543
   35MOL   H29114639   6.209   2.271   6.121 -0.5600  2.7219 -0.7633
   35MOL   H29214640   6.278   2.228   5.970 -2.5670 -0.2997  1.2255
   35MOL   H29314641   6.409   2.226   6.252  0.9598  2.3427 -0.5693
   35MOL   H29414642   6.493   2.155   6.115 -1.5445  2.1121 -3.1705
   35MOL   H29514643   6.346   2.081   6.169 -0.6354  0.8695 -2.1729
   35MOL   C29614644   6.208   2.736   5.771 -0.3750  0.2570 -0.5140
   35MOL   C29714645   6.071   2.795   5.741  0.3071 -0.6541 -0.3962
   35MOL   C29814646   5.954   2.703   5.807  0.0533  0.2453 -0.3163
   35MOL   C29914647   5.833   2.774   5.860 -0.2079 -0.2013 -0.1624
   35MOL   C30014648   5.863   2.882   5.964 -0.3831  0.0205 -0.6511
   35MOL   C30114649   5.742   2.962   6.027 -0.1534  0.2456  0.2955
   35MOL   C30214650   5.785   3.044   6.151  0.4709 -0.1555 -0.0207
   35MOL   H30314651   6.278   2.745   5.688 -2.4461  1.6965 -2.1525
   35MOL   H30414652   6.184   2.629   5.769 -2.0128  0.5993 -0.1880
   35MOL   H30514653   6.073   2.895   5.784 -1.9543 -0.5083 -0.5377
   35MOL   H30614654   5.935   2.612   5.751 -1.6098 -0.2299  0.9815
   35MOL   H30714655   5.993   2.660   5.899  1.3079  2.2685  0.1289
   35MOL   H30814656   5.768   2.702   5.908  0.4892 -0.5450  0.2697
   35MOL   H30914657   5.780   2.812   5.772  1.8212 -0.5010 -1.5657
   35MOL   H31014658   5.927   2.959   5.920 -0.4333 -0.1174 -0.9620
   35MOL   H31114659   5.929   2.828   6.032 -0.3122 -0.5683 -1.1820
   35MOL   H31214660   5.704   3.018   5.942  0.6591 -0.5992 -0.6383
   35MOL   H31314661   5.662   2.891   6.050  0.3828 -0.7830 -0.9740
   35MOL   H31414662   5.872   3.106   6.130  0.6387 -0.5669 -0.5440
   35MOL   H31514663   5.702   3.100   6.194 -0.2585 -0.2128 -1.3436
   35MOL   H31614664   5.809   2.978   6.235  0.5890  1.3504  1.1588
   35MOL   C31714665   6.042   2.807   5.588 -0.7616  0.6682 -0.1748
   35MOL   C31814666   6.132   2.906   5.507  0.3096  0.5449 -0.5803
   35MOL   C31914667   6.070   2.933   5.367 -0.6337  0.0263  0.0675
   35MOL   C32014668   6.042   2.815   5.269 -0.3731 -0.3029 -0.4855
   35MOL   C32114669   6.012   2.855   5.120 -0.0626 -0.2677  0.8045
   35MOL   C32214670   5.876   2.923   5.101 -0.5010  0.2091 -0.0511
   35MOL   C32314671   5.768   2.823   5.069 -0.3059  0.4632 -0.0067
   35MOL   H32414672   5.938   2.839   5.579  0.4955  4.6495 -1.5018
   35MOL   H32514673   6.059   2.711   5.539  0.2953  0.1668  1.1710
   35MOL   H32614674   6.235   2.871   5.496  0.0545 -1.1110  1.8219
   35MOL   H32714675   6.129   2.994   5.299 -0.1748  1.8288  2.0353
   35MOL   H32814676   5.979   2.990   5.381 -1.3992 -1.6822  2.3653
   35MOL   H32914677   5.952   2.776   5.317 -0.2505  1.1799  0.9892
   35MOL   H33014678   6.117   2.737   5.285 -0.1411 -0.1181 -0.6871
   35MOL   H33114679   6.012   2.772   5.049 -1.2657 -0.7781  1.3953
   35MOL   H33214680   6.084   2.923   5.074 -0.9654  0.2270  0.1038
   35MOL   H33314681   5.878   3.000   5.023 -1.9393  0.4286  0.1121
   35MOL   H33414682   5.845   2.977   5.190  1.6728 -1.8487  2.0084
   35MOL   H33514683   5.761   2.764   5.160  0.2530 -1.3310 -1.0996
   35MOL   H33614684   5.786   2.767   4.977 -3.6858  1.3207 -1.2534
   35MOL   H33714685   5.669   2.866   5.054  0.1539  1.8980  1.0275
   35MOL   C33814686   6.141   3.044   5.579  0.0440  0.3798 -0.4933
   35MOL   C33914687   6.221   3.154   5.504  0.0948 -0.5682 -0.0192
   35MOL   C34014688   6.357   3.108   5.458 -0.0089 -0.4371  0.1527
   35MOL   C34114689   6.444   3.051   5.569  0.4312 -0.4605  1.0811
   35MOL   C34214690   6.575   2.994   5.516 -0.0265 -0.2809  0.1084
   35MOL   C34314691   6.674   2.932   5.622 -0.7144 -0.2478 -0.6673
   35MOL   C34414692   6.793   2.862   5.552  0.1650 -0.4413 -0.3888
   35MOL   H34514693   6.194   3.040   5.674 -2.3407 -1.1319  0.8344
   35MOL   H34614694   6.039   3.079   5.594  0.1268  0.1072  0.7842
   35MOL   H34714695   6.178   3.175   5.406 -0.2908 -0.1814  0.2343
   35MOL   H34814696   6.342   3.029   5.384 -0.2963 -1.8675  1.6962
   35MOL   H34914697   6.413   3.191   5.416 -0.9507  0.3200  0.3846
   35MOL   H35014698   6.384   2.971   5.611 -0.5211 -0.6901 -0.6413
   35MOL   H35114699   6.446   3.130   5.644 -1.3238 -0.4932  1.1783
   35MOL   H35214700   6.566   2.925   5.432  0.7563  1.5711 -1.5255
   35MOL   H35314701   6.636   3.075   5.476 -0.1082 -0.6007 -0.6557
   35MOL   H35414702   6.708   3.013   5.687 -1.3745 -2.1236  2.1048
   35MOL   H35514703   6.629   2.873   5.702 -0.2080 -2.3963 -1.9177
   35MOL   H35614704   6.876   2.839   5.619 -1.2685 -1.2984  1.1540
   35MOL   H35714705   6.846   2.924   5.481  0.2104  1.7391  1.5144
   35MOL   H35814706   6.760   2.777   5.492 -1.9938 -0.7086  1.0947
   35MOL   C35914707   6.221   3.283   5.585 -0.3947  0.1807  0.7429
   35MOL   C36014708   6.229   3.418   5.500 -0.3608 -0.1763 -0.2117
   35MOL   C36114709   6.082   3.445   5.449 -0.5346  0.1640 -0.6572
   35MOL   C36214710   6.070   3.555   5.342 -0.6826  0.7890 -0.6203
   35MOL   C36314711   5.934   3.544   5.268 -0.3446  0.4405  0.3152
   35MOL   C36414712   5.823   3.584   5.360 -0.4646 -0.2379 -0.7244
   35MOL   C36514713   5.689   3.617   5.298 -0.1478  0.3174  0.2924
   35MOL   H36614714   6.297   3.262   5.660 -0.5412 -0.5475  0.6861
   35MOL   H36714715   6.125   3.291   5.637 -1.4755  3.4001 -1.5262
   35MOL   H36814716   6.295   3.411   5.414 -1.2031 -0.4166 -0.8407
   35MOL   H36914717   6.054   3.352   5.399 -0.6218  0.4632 -1.1725
   35MOL   H37014718   6.020   3.461   5.537 -1.7420  2.5354 -1.9185
   35MOL   H37114719   6.095   3.651   5.385  1.4612 -0.1004  0.1531
   35MOL   H37214720   6.154   3.537   5.275  0.1464  0.7655  0.4102
   35MOL   H37314721   5.934   3.612   5.184 -0.9025  0.5788  0.4247
   35MOL   H37414722   5.921   3.444   5.226  0.7303 -0.1393  1.3384
   35MOL   H37514723   5.824   3.499   5.427  0.8244 -0.0810 -0.5286
   35MOL   H37614724   5.856   3.666   5.424 -0.0268 -2.6589  2.2706
   35MOL   H37714725   5.694   3.711   5.243 -1.9769 -1.1372 -2.4559
   35MOL   H37814726   5.667   3.543   5.222  0.7094  0.4404 -0.0820
   35MOL   H37914727   5.614   3.623   5.378  0.2435 -0.2808  0.7072
   35MOL   C38014728   6.282   3.533   5.583  0.7855  0.2770 -0.3774
   35MOL   C38114729   6.422   3.506   5.649 -0.5196 -0.2091  0.5188
   35MOL   C38214730   6.543   3.597   5.596 -0.0141 -0.7908 -0.4766
   35MOL   C38314731   6.566   3.569   5.446  0.1712 -1.0895  0.0183
   35MOL   C38414732   6.685   3.650   5.393 -0.2202  0.8351  0.3994
   35MOL   C38514733   6.818   3.583   5.439 -0.5668 -0.1033  0.1339
   35MOL   C38614734   6.939   3.654   5.367  0.5860  0.2720  0.3979
   35MOL   H38714735   6.289   3.623   5.521 -3.5175  0.9806  0.0048
   35MOL   H38814736   6.205   3.539   5.660  0.9219 -1.2981 -0.1000
   35MOL   H38914737   6.444   3.402   5.622 -1.5429 -0.7606  1.7705
   35MOL   H39014738   6.638   3.578   5.646  0.3756  0.1519 -0.8479
   35MOL   H39114739   6.516   3.699   5.622 -1.6675 -1.3401 -0.0228
   35MOL   H39214740   6.578   3.465   5.415  0.0608 -0.0903 -3.6648
   35MOL   H39314741   6.475   3.600   5.393 -0.1061 -1.3367  0.3520
   35MOL   H39414742   6.688   3.644   5.284 -1.0348 -1.1132  0.4641
   35MOL   H39514743   6.676   3.755   5.420  0.7723  0.2504  3.2137
   35MOL   H39614744   6.826   3.475   5.427 -0.0874 -0.1845  1.1120
   35MOL   H39714745   6.838   3.599   5.545  0.3725  0.0865 -0.0686
   35MOL   H39814746   6.942   3.761   5.387 -0.5317  0.2235  0.8601
   35MOL   H39914747   6.929   3.631   5.261  2.4302  1.7547 -0.1226
   35MOL   H40014748   7.032   3.618   5.411  1.3176  0.3611 -1.0696
   35MOL   C40114749   6.419   3.493   5.801  0.2100 -0.1691  0.2586
   35MOL   C40214750   6.531   3.407   5.871  0.9773 -0.2458  0.0208
   35MOL   C40314751   6.523   3.403   6.022 -0.6858 -0.0042 -0.1403
   35MOL   C40414752   6.665   3.386   6.085  0.0891  0.2164 -0.4344
   35MOL   C40514753   6.664   3.334   6.228  0.6125 -0.1748  0.4549
   35MOL   C40614754   6.795   3.274   6.268 -0.0930  0.4700  0.2036
   35MOL   C40714755   6.800   3.236   6.416  0.3357 -0.5647 -0.2072
   35MOL   H40814756   6.326   3.449   5.838  0.8779 -1.8662 -0.0366
   35MOL   H40914757   6.420   3.589   5.851  0.5906  0.1354 -0.3309
   35MOL   H41014758   6.631   3.439   5.841  0.8079 -2.8302 -3.6325
   35MOL   H41114759   6.448   3.331   6.056  0.7777 -1.2423  0.4931
   35MOL   H41214760   6.480   3.500   6.048  0.7450 -0.1251  2.9728
   35MOL   H41314761   6.712   3.484   6.085 -0.4693  0.5000  0.9149
   35MOL   H41414762   6.725   3.326   6.017 -1.2798 -2.8032  0.9124
   35MOL   H41514763   6.638   3.410   6.302 -3.1957 -0.9418 -0.0093
   35MOL   H41614764   6.595   3.250   6.232 -0.0415  0.3047 -0.4330
   35MOL   H41714765   6.827   3.187   6.210  1.0963  1.6432 -0.9463
   35MOL   H41814766   6.865   3.350   6.235  1.2980 -1.0714 -0.4622
   35MOL   H41914767   6.904   3.207   6.431  0.9898  1.2100 -1.1378
   35MOL   H42014768   6.715   3.173   6.443 -0.0226 -0.0596 -0.1496
   35MOL   H42114769   6.785   3.326   6.476 -1.0486 -0.8784 -0.0544
   35MOL   H42214770   6.527   3.302   5.842  1.0374 -0.5114  0.9554
   36MOL     C114771   2.030   4.633   3.165 -0.4295  0.6607  0.3114
   36MOL     C214772   1.939   4.551   3.067 -0.2254  0.5763  0.0214
   36MOL     C314773   1.973   4.404   3.049 -0.1121  0.5521 -1.0653
   36MOL     C414774   2.117   4.352   3.026  0.2229 -0.0121  1.0450
   36MOL     C514775   2.159   4.363   2.875 -0.2729 -0.0855  0.8267
   36MOL     C614776   2.297   4.313   2.846  0.2497  0.0555  0.3763
   36MOL     C714777   2.311   4.158   2.875  0.3356 -0.2109 -0.5154
   36MOL     H814778   1.988   4.733   3.178 -4.4109 -0.6908 -1.5804
   36MOL     H914779   2.133   4.631   3.129  0.3002  0.1295  2.3904
   36MOL    H1014780   1.838   4.558   3.108  0.4947  0.4336  1.8726
   36MOL    H1114781   1.947   4.368   3.148  0.7685  0.1349 -0.9849
   36MOL    H1214782   1.903   4.360   2.978 -1.1353  0.5663 -0.0773
   36MOL    H1314783   2.179   4.400   3.101  1.3124 -0.0575  0.1846
   36MOL    H1414784   2.120   4.247   3.056 -1.4499  0.0464  1.4710
   36MOL    H1514785   2.133   4.463   2.840 -0.8472 -0.2873  0.6740
   36MOL    H1614786   2.093   4.290   2.828 -0.3801  0.6699 -0.1903
   36MOL    H1714787   2.374   4.374   2.893  0.5574  0.2473 -0.3655
   36MOL    H1814788   2.318   4.315   2.739  0.8498  0.3194  0.4942
   36MOL    H1914789   2.284   4.119   2.973  3.9378  0.9986  1.0594
   36MOL    H2014790   2.410   4.120   2.851 -0.0874 -0.3082 -2.1644
   36MOL    H2114791   2.248   4.110   2.800 -0.8697  0.0404  0.3264
   36MOL    H2214792   2.037   4.589   3.264 -1.0368 -1.8525 -0.7163
   36MOL    C2314793   1.934   4.624   2.935 -0.0816  0.6866 -0.0958
   36MOL    C2414794   1.886   4.767   2.930  0.2473  0.2340 -0.6869
   36MOL    C2514795   1.730   4.774   2.964 -0.3299  0.0074  0.2683
   36MOL    C2614796   1.650   4.674   2.883 -0.9349  1.1724 -0.2969
   36MOL    C2714797   1.501   4.718   2.866 -0.2393 -0.1890 -0.5471
   36MOL    C2814798   1.425   4.714   2.996  0.4850 -0.6519 -0.8583
   36MOL    C2914799   1.275   4.745   2.985 -0.8937 -0.6630  0.0966
   36MOL    H3014800   2.039   4.629   2.905  0.0978  0.8270  0.5453
   36MOL    H3114801   1.894   4.572   2.849  1.9148  0.6317 -1.0314
   36MOL    H3214802   1.936   4.824   3.007  2.1633 -0.6815 -1.2314
   36MOL    H3314803   1.693   4.873   2.937 -0.9824 -0.0971  0.7627
   36MOL    H3414804   1.711   4.772   3.071  2.3456 -1.0833  0.7600
   36MOL    H3514805   1.634   4.576   2.928  1.6973 -0.0677 -1.8988
   36MOL    H3614806   1.686   4.654   2.782 -0.2124  1.6221 -0.1343
   36MOL    H3714807   1.467   4.640   2.798 -1.8521 -0.4453  0.5213
   36MOL    H3814808   1.492   4.817   2.822 -0.7526  0.4713  1.0142
   36MOL    H3914809   1.470   4.781   3.069 -2.3054 -1.7866  2.0431
   36MOL    H4014810   1.434   4.615   3.041  1.0948  0.2780  1.1217
   36MOL    H4114811   1.255   4.739   2.878 -4.4616 -3.7485  0.8412
   36MOL    H4214812   1.204   4.676   3.030 -1.7062  0.2847  0.2847
   36MOL    H4314813   1.246   4.848   3.005  0.8476 -0.3201  0.9738
   36MOL    C4414814   1.910   4.829   2.787  0.2365 -0.2002  0.1729
   36MOL    C4514815   2.055   4.869   2.756  0.3162  0.3098 -0.1606
   36MOL    C4614816   2.130   4.765   2.664  0.1116  0.0494 -0.0292
   36MOL    C4714817   2.280   4.776   2.677 -0.0730 -0.1969  0.3508
   36MOL    C4814818   2.368   4.697   2.571 -0.2395 -0.4664  0.2903
   36MOL    C4914819   2.512   4.705   2.602 -0.8295  0.4769  0.5667
   36MOL    C5014820   2.601   4.627   2.509  0.3478  0.3008  0.2324
   36MOL    H5114821   1.842   4.911   2.763  0.1676  0.3136  2.0287
   36MOL    H5214822   1.875   4.756   2.714  2.2431  0.1358 -1.1466
   36MOL    H5314823   2.102   4.874   2.854 -1.8148  0.0601  0.8997
   36MOL    H5414824   2.097   4.789   2.563  1.5990  1.5479 -0.1994
   36MOL    H5514825   2.104   4.662   2.687  0.5452  0.2585  1.4657
   36MOL    H5614826   2.307   4.881   2.661 -1.8065  0.1298 -0.5661
   36MOL    H5714827   2.309   4.751   2.779 -0.2914  1.9960  0.9759
   36MOL    H5814828   2.354   4.741   2.472  0.3868  1.7550  1.1722
   36MOL    H5914829   2.334   4.594   2.558  0.3644 -0.5862 -0.4211
   36MOL    H6014830   2.530   4.658   2.699  0.9133 -1.1027 -0.4878
   36MOL    H6114831   2.547   4.808   2.601  0.4604  0.0695  1.6363
   36MOL    H6214832   2.572   4.529   2.470  1.4561 -0.0952  0.3914
   36MOL    H6314833   2.690   4.602   2.567  1.6009  1.9873 -0.9488
   36MOL    H6414834   2.615   4.681   2.416  3.4719 -0.8919 -0.0293
   36MOL    C6514835   2.062   5.016   2.697 -0.4413  0.4893  0.3388
   36MOL    C6614836   2.019   5.126   2.797  0.3388 -1.0563 -0.1305
   36MOL    C6714837   1.999   5.266   2.730 -0.0087  0.2138 -0.1755
   36MOL    C6814838   1.900   5.359   2.805  0.4646 -0.2999 -0.2646
   36MOL    C6914839   1.858   5.474   2.714  0.3948  1.0686  0.3592
   36MOL    C7014840   1.718   5.542   2.747  0.5737  0.2519  0.4268
   36MOL    C7114841   1.718   5.626   2.871  0.7061 -0.0756 -0.0718
   36MOL    H7214842   2.166   5.040   2.675  0.2520 -2.2121  0.5045
   36MOL    H7314843   1.997   5.018   2.610  0.4251  1.7589 -0.2924
   36MOL    H7414844   1.926   5.098   2.847 -0.6847  0.6255 -1.0740
   36MOL    H7514845   2.093   5.315   2.704 -0.4926  0.9404 -0.5597
   36MOL    H7614846   1.961   5.250   2.630  1.0208 -0.7937 -0.4217
   36MOL    H7714847   1.815   5.300   2.837  2.1897 -2.3556  0.6841
   36MOL    H7814848   1.949   5.401   2.893 -1.4241  1.0867  0.1584
   36MOL    H7914849   1.942   5.543   2.713  1.1179  0.2043 -0.5533
   36MOL    H8014850   1.857   5.443   2.609 -1.6042  2.1162  0.0317
   36MOL    H8114851   1.637   5.470   2.758  1.1289 -0.8200 -2.1069
   36MOL    H8214852   1.690   5.614   2.669 -1.4602 -1.4557 -0.4815
   36MOL    H8314853   1.629   5.686   2.888  0.1439 -0.7561 -0.6212
   36MOL    H8414854   1.739   5.561   2.956 -1.3784 -0.3016  0.2865
   36MOL    H8514855   1.801   5.697   2.870 -1.4398  2.5612  1.4080
   36MOL    C8614856   2.132   5.150   2.907  0.1143 -0.1544 -0.7473
   36MOL    C8714857   2.101   5.108   3.049 -0.3413 -0.2257 -0.1226
   36MOL    C8814858   2.232   5.065   3.120 -0.0192 -0.4128 -0.7483
   36MOL    C8914859   2.282   4.928   3.085  0.1780  0.2259 -0.0432
   36MOL    C9014860   2.396   4.885   3.174 -0.0932  0.5253 -0.2788
   36MOL    C9114861   2.394   4.733   3.201 -0.1716  0.2083  0.2196
   36MOL    C9214862   2.403   4.650   3.068 -0.1872 -1.3630 -0.2471
   36MOL    H9314863   2.225   5.103   2.876  0.5806  1.2087 -1.4902
   36MOL    H9414864   2.160   5.255   2.914  1.9547 -0.5873 -1.2403
   36MOL    H9514865   2.026   5.030   3.036 -0.8778  0.1181  0.8576
   36MOL    H9614866   2.317   5.129   3.096  0.8866 -1.4644 -0.4106
   36MOL    H9714867   2.220   5.087   3.226 -0.6134 -0.6159 -0.7731
   36MOL    H9814868   2.201   4.855   3.090 -1.3053  1.8049 -0.6449
   36MOL    H9914869   2.323   4.923   2.984  2.0490  0.7634  0.6611
   36MOL   H10014870   2.382   4.937   3.269 -2.0453 -0.0942 -0.2140
   36MOL   H10114871   2.491   4.932   3.149 -0.0766  0.7239  0.1441
   36MOL   H10214872   2.468   4.712   3.278 -1.3723  0.4056  1.4424
   36MOL   H10314873   2.294   4.712   3.239  0.6435  1.0754  2.9639
   36MOL   H10414874   2.400   4.542   3.083 -1.9346 -1.5940 -2.0806
   36MOL   H10514875   2.495   4.674   3.014 -0.5075 -0.9895 -0.6246
   36MOL   H10614876   2.319   4.669   3.002 -1.1231  1.5827  1.7087
   36MOL   C10714877   2.018   5.208   3.131  0.2797 -0.5196 -0.5413
   36MOL   C10814878   1.950   5.169   3.266  0.4568  0.0866  0.4484
   36MOL   C10914879   1.845   5.277   3.300  0.4731 -0.0157 -0.4344
   36MOL   C11014880   1.888   5.426   3.293 -0.1724 -0.0094  0.2306
   36MOL   C11114881   1.794   5.536   3.353  0.0783  0.6744  0.5919
   36MOL   C11214882   1.798   5.540   3.506 -0.2150  0.0385  0.3007
   36MOL   C11314883   1.678   5.617   3.563  0.0929  0.0916  0.6195
   36MOL   H11414884   1.941   5.226   3.056 -0.0866  0.7367  0.1165
   36MOL   H11514885   2.092   5.285   3.154  0.5162 -1.3360  1.5433
   36MOL   H11614886   2.020   5.153   3.348 -0.1225 -0.4612  0.8378
   36MOL   H11714887   1.822   5.265   3.406  1.1578  0.3098 -0.2436
   36MOL   H11814888   1.752   5.270   3.244  2.3498  1.2894 -3.8236
   36MOL   H11914889   1.987   5.443   3.335 -0.2731 -0.7019  0.7571
   36MOL   H12014890   1.906   5.460   3.191  0.9588  0.1770  0.4891
   36MOL   H12114891   1.696   5.497   3.326  0.4369 -0.6919  1.2515
   36MOL   H12214892   1.813   5.634   3.308  1.1391  0.1816 -0.0589
   36MOL   H12314893   1.790   5.439   3.546 -1.2260  0.6436  1.6804
   36MOL   H12414894   1.889   5.588   3.542 -0.8316  2.6903 -1.5241
   36MOL   H12514895   1.659   5.576   3.662 -0.3188  2.4384  1.5666
   36MOL   H12614896   1.700   5.724   3.559 -1.0000  0.2526 -1.3825
   36MOL   H12714897   1.589   5.604   3.501  0.2209 -2.6350  0.9453
   36MOL   C12814898   1.875   5.032   3.253 -0.3316 -0.1527 -0.3504
   36MOL   C12914899   1.794   4.992   3.380 -0.5828 -0.3491  0.0467
   36MOL   C13014900   1.874   4.984   3.514 -0.5998  0.1371  0.3640
   36MOL   C13114901   1.967   4.865   3.516 -0.4721 -0.1686 -0.7667
   36MOL   C13214902   2.045   4.871   3.652  0.1863  0.7199  0.3962
   36MOL   C13314903   2.128   4.744   3.676  0.0941  0.0904  0.0325
   36MOL   C13414904   2.224   4.758   3.793 -0.2730  0.2094 -0.7689
   36MOL   H13514905   1.820   5.024   3.159 -0.6313 -1.1094 -0.0909
   36MOL   H13614906   1.942   4.947   3.241  0.0775 -0.0494  1.1116
   36MOL   H13714907   1.718   5.068   3.397 -0.9129 -0.6624 -0.0180
   36MOL   H13814908   1.811   4.974   3.603 -0.0291  2.1098  1.0194
   36MOL   H13914909   1.918   5.081   3.537  0.8481 -0.2885 -0.5294
   36MOL   H14014910   2.026   4.860   3.424 -1.5272 -0.6022 -1.4406
   36MOL   H14114911   1.923   4.765   3.518 -0.3075 -0.2389  4.4498
   36MOL   H14214912   1.985   4.887   3.741 -0.9570  2.1601 -0.6193
   36MOL   H14314913   2.106   4.960   3.636 -0.5680  1.4094  1.2802
   36MOL   H14414914   2.189   4.711   3.591 -1.7707  0.0746 -1.3421
   36MOL   H14514915   2.064   4.658   3.696 -1.1847  1.0429  0.0918
   36MOL   H14614916   2.267   4.661   3.817 -1.3461  0.0733  0.7007
   36MOL   H14714917   2.175   4.784   3.887  0.2778 -2.6536  0.3531
   36MOL   H14814918   2.284   4.846   3.768 -0.2670  0.6253  0.6675
   36MOL   C14914919   1.711   4.864   3.347 -0.5266 -0.5239 -0.3928
   36MOL   C15014920   1.615   4.807   3.459  0.4798  0.1944 -0.4918
   36MOL   C15114921   1.520   4.706   3.384  0.3253  0.0292 -0.1038
   36MOL   C15214922   1.592   4.589   3.307 -0.1550  0.4399 -0.3626
   36MOL   C15314923   1.678   4.512   3.407 -0.5188 -0.0698  0.3047
   36MOL   C15414924   1.694   4.364   3.356  0.0056  0.3494  0.0537
   36MOL   C15514925   1.796   4.288   3.433 -0.2503  0.5153  0.3767
   36MOL   H15614926   1.651   4.878   3.257 -0.4044 -1.7061 -0.6661
   36MOL   H15714927   1.784   4.789   3.316  0.9355  1.1977 -1.1773
   36MOL   H15814928   1.670   4.764   3.542 -0.6351  0.4246  0.3744
   36MOL   H15914929   1.446   4.661   3.451  0.2605 -1.0117 -0.8511
   36MOL   H16014930   1.461   4.763   3.312  0.3967  1.9503  1.3168
   36MOL   H16114931   1.648   4.620   3.219 -1.6673  0.3873 -1.3708
   36MOL   H16214932   1.516   4.521   3.269  1.3201 -2.1280  1.1825
   36MOL   H16314933   1.620   4.506   3.499 -0.1037  2.8049  0.8057
   36MOL   H16414934   1.774   4.557   3.435  0.3999 -0.9851 -1.2838
   36MOL   H16514935   1.731   4.382   3.255 -0.7747 -0.4123 -0.3745
   36MOL   H16614936   1.596   4.317   3.354 -0.2911  0.9058  1.0000
   36MOL   H16714937   1.803   4.180   3.417 -0.1116  0.5871 -0.0660
   36MOL   H16814938   1.774   4.294   3.539  1.5979 -0.5055  0.8475
   36MOL   H16914939   1.891   4.342   3.425 -0.2614  0.2691 -1.5674
   36MOL   C17014940   1.520   4.911   3.528 -0.0104  0.6308 -0.4072
   36MOL   C17114941   1.440   4.857   3.651  0.2675  0.2083 -0.7123
   36MOL   C17214942   1.546   4.831   3.766 -0.1537  1.0198  0.2950
   36MOL   C17314943   1.577   4.681   3.790  0.1132  0.1726  0.1996
   36MOL   C17414944   1.694   4.638   3.887 -0.6901 -0.6829  0.7936
   36MOL   C17514945   1.689   4.497   3.945 -0.5038 -0.4777  0.6386
   36MOL   C17614946   1.802   4.460   4.045 -0.5945 -0.0875 -0.7045
   36MOL   H17714947   1.442   4.938   3.457  0.4089  1.4080 -0.5747
   36MOL   H17814948   1.570   5.008   3.538  0.1562  0.3856  1.2678
   36MOL   H17914949   1.394   4.761   3.627  0.9959 -0.1234 -0.7804
   36MOL   H18014950   1.514   4.868   3.864 -1.5031  0.8238 -0.0615
   36MOL   H18114951   1.637   4.887   3.744  1.1807 -0.9972  0.5590
   36MOL   H18214952   1.590   4.634   3.693 -0.4860  0.9482 -0.2620
   36MOL   H18314953   1.487   4.628   3.821  0.3157 -1.3098 -1.7078
   36MOL   H18414954   1.687   4.706   3.972  3.7479 -0.8917  1.4454
   36MOL   H18514955   1.787   4.663   3.836 -1.7221 -0.0395 -0.7923
   36MOL   H18614956   1.675   4.427   3.863 -1.5265  0.1169  0.2894
   36MOL   H18714957   1.597   4.482   4.002 -0.5576 -0.2817  0.6061
   36MOL   H18814958   1.796   4.509   4.142 -0.8284 -1.1005 -0.1994
   36MOL   H18914959   1.891   4.504   3.999 -0.2544 -1.2285 -1.1617
   36MOL   H19014960   1.824   4.353   4.057  0.1203 -0.0486 -1.6053
   36MOL   C19114961   1.319   4.942   3.693  0.0818 -0.6738 -0.4850
   36MOL   C19214962   1.229   4.894   3.806 -0.3447  0.2705 -0.4408
   36MOL   C19314963   1.189   5.004   3.911 -0.0591 -0.0099 -0.5008
   36MOL   C19414964   1.098   5.124   3.860  0.9092 -0.2550 -0.2640
   36MOL   C19514965   1.076   5.223   3.977  0.3265  0.3899 -0.8021
   36MOL   C19614966   0.969   5.332   3.943  0.7337 -0.9998  0.6414
   36MOL   C19714967   0.824   5.272   3.963 -0.9991 -0.0139 -0.5065
   36MOL   H19814968   1.256   4.970   3.609  1.6861  0.1733 -1.4421
   36MOL   H19914969   1.357   5.040   3.721  1.6353 -1.2499 -0.5022
   36MOL   H20014970   1.289   4.822   3.862 -2.1185 -0.4680  0.5556
   36MOL   H20114971   1.276   5.059   3.947  0.4069 -1.7328  1.0887
   36MOL   H20214972   1.150   4.950   3.997  0.4126  1.4622  0.6545
   36MOL   H20314973   1.003   5.084   3.825  0.1532  0.6080  0.7969
   36MOL   H20414974   1.147   5.178   3.778 -0.4889  0.7016 -0.4994
   36MOL   H20514975   1.048   5.172   4.070  0.7048  0.3697 -0.6982
   36MOL   H20614976   1.174   5.265   3.997 -0.8237  3.4254 -1.2973
   36MOL   H20714977   0.988   5.377   3.846 -2.8343 -1.6250 -0.4402
   36MOL   H20814978   0.989   5.419   4.006  3.5013  0.4721 -2.1498
   36MOL   H20914979   0.786   5.199   3.891 -0.6960 -1.0710  0.3949
   36MOL   H21014980   0.750   5.351   3.947 -0.5254  0.5956  0.2358
   36MOL   H21114981   0.803   5.220   4.056 -0.0049  2.0570  0.9112
   36MOL   C21214982   1.101   4.826   3.754 -0.8281  0.2425  0.7404
   36MOL   C21314983   1.105   4.671   3.762  0.4937 -0.7595 -0.1101
   36MOL   C21414984   1.069   4.609   3.899 -0.2297 -0.1540  0.7261
   36MOL   C21514985   1.108   4.462   3.916  0.3111  0.0450  0.2040
   36MOL   C21614986   1.066   4.405   4.059  0.6849 -0.0691 -0.2750
   36MOL   C21714987   1.108   4.258   4.083  0.7639 -0.8171 -0.8081
   36MOL   C21814988   1.026   4.162   4.001  0.1490  0.6259  0.5371
   36MOL   H21914989   1.070   4.858   3.655 -0.2213 -0.0191  0.4656
   36MOL   H22014990   1.020   4.858   3.821  0.4023  1.0242  1.8724
   36MOL   H22114991   1.207   4.639   3.739  0.9585 -1.6177  3.0105
   36MOL   H22214992   1.125   4.664   3.975  1.1030 -2.1691  1.2541
   36MOL   H22314993   0.964   4.627   3.925 -0.1845  1.0723  0.0809
   36MOL   H22414994   1.216   4.447   3.907  0.6515  1.5562  1.6000
   36MOL   H22514995   1.048   4.405   3.845 -1.0413 -0.8262  2.0254
   36MOL   H22614996   1.111   4.467   4.135  0.7753  0.9077 -1.1108
   36MOL   H22714997   0.957   4.411   4.066  0.5258  1.2032 -2.9265
   36MOL   H22814998   1.212   4.244   4.053  1.0045  0.0180 -0.4055
   36MOL   H22914999   1.106   4.233   4.189 -2.7230 -0.1359 -0.6807
   36MOL   H23015000   0.923   4.164   4.038  0.2358 -2.7517  1.1162
   36MOL   H23115001   1.064   4.061   4.012 -2.2753 -0.2497  1.1495
   36MOL   H23215002   1.019   4.181   3.893  2.2230  1.7893  0.5955
   36MOL   C23315003   1.024   4.617   3.638 -0.1941  0.2963 -0.5251
   36MOL   C23415004   1.108   4.619   3.512 -0.6193  0.5648  0.7728
   36MOL   C23515005   1.180   4.481   3.485  0.1312  0.4501  0.5308
   36MOL   C23615006   1.279   4.417   3.594  0.0870  0.4431 -0.6395
   36MOL   C23715007   1.341   4.295   3.535 -0.0184 -0.3676 -0.0392
   36MOL   C23815008   1.411   4.208   3.640  0.0528  0.5080  0.4530
   36MOL   C23915009   1.467   4.082   3.588 -0.2839 -0.2651  0.1261
   36MOL   H24015010   0.928   4.666   3.623 -0.2160  0.4293  0.0373
   36MOL   H24115011   0.988   4.516   3.654  2.1701  0.0688  4.1396
   36MOL   H24215012   1.191   4.686   3.531 -0.6836  0.3789  1.7359
   36MOL   H24315013   1.227   4.476   3.387 -0.3567 -0.8905  0.3514
   36MOL   H24415014   1.093   4.415   3.476 -0.2932  1.0326  0.3101
   36MOL   H24515015   1.222   4.400   3.685  0.7325 -2.9081 -0.7848
   36MOL   H24615016   1.359   4.483   3.628  0.2911  0.2347 -0.7159
   36MOL   H24715017   1.410   4.316   3.454 -0.1648 -2.7408 -0.8201
   36MOL   H24815018   1.257   4.239   3.493 -2.0389  3.0531 -0.7286
   36MOL   H24915019   1.488   4.263   3.694  2.0757 -0.5661 -1.2838
   36MOL   H25015020   1.340   4.181   3.718 -1.1838 -1.7261 -1.4014
   36MOL   H25115021   1.542   4.106   3.512 -0.6605  0.9567  0.1259
   36MOL   H25215022   1.511   4.011   3.657  0.3132 -0.6805 -0.6684
   36MOL   H25315023   1.398   4.026   3.526  1.8077  0.4018 -2.9419
   36MOL   C25415024   1.030   4.658   3.382  0.2824  0.2984 -0.3755
   36MOL   C25515025   0.986   4.808   3.370  0.7931  0.7335 -0.4335
   36MOL   C25615026   0.869   4.821   3.267 -0.3152 -0.3756  0.7783
   36MOL   C25715027   0.731   4.784   3.327 -0.5013  0.2552 -1.3751
   36MOL   C25815028   0.626   4.774   3.220  0.4484  0.4557  0.2897
   36MOL   C25915029   0.507   4.689   3.264  0.7442  0.3481 -0.7046
   36MOL   C26015030   0.401   4.650   3.157 -0.7337  0.6354  0.3928
   36MOL   H26115031   0.945   4.591   3.364 -1.3661  2.2941 -0.1716
   36MOL   H26215032   1.104   4.646   3.303  0.3337  0.5956 -0.3709
   36MOL   H26315033   0.948   4.844   3.466  0.6374 -0.2317 -0.1264
   36MOL   H26415034   0.894   4.761   3.179  1.1280 -1.0256  1.6207
   36MOL   H26515035   0.860   4.923   3.231  0.4649 -0.7347 -0.4759
   36MOL   H26615036   0.739   4.691   3.383 -0.1324  1.5331  0.7541
   36MOL   H26715037   0.704   4.856   3.404  0.7217  2.0848 -2.6184
   36MOL   H26815038   0.660   4.714   3.136 -0.6360 -0.4099  0.4519
   36MOL   H26915039   0.600   4.869   3.174  0.1401 -0.5159 -1.6292
   36MOL   H27015040   0.551   4.596   3.297  0.6378  0.5272 -0.0559
   36MOL   H27115041   0.461   4.740   3.348 -0.8846  1.0475 -1.9797
   36MOL   H27215042   0.352   4.563   3.199 -0.2343  0.3058  0.2930
   36MOL   H27315043   0.330   4.725   3.122 -1.3596 -0.9218 -1.8330
   36MOL   H27415044   0.453   4.615   3.068 -1.2735  1.6830 -0.3522
   36MOL   C27515045   1.110   4.899   3.334 -0.1364 -0.6033  0.0134
   36MOL   C27615046   1.076   5.050   3.316  0.0079 -0.9437  0.2986
   36MOL   C27715047   1.206   5.139   3.298  0.9288  0.1658 -0.5290
   36MOL   C27815048   1.283   5.110   3.171  0.7069  0.0921  0.0166
   36MOL   C27915049   1.423   5.183   3.173  0.6458  0.9719  0.6311
   36MOL   C28015050   1.527   5.119   3.073  0.5816 -0.2884  0.1353
   36MOL   C28115051   1.494   5.149   2.923 -0.1167  0.1424  0.3805
   36MOL   H28215052   1.151   4.852   3.244 -1.4648  0.8521 -1.3729
   36MOL   H28315053   1.192   4.879   3.403  0.0907 -0.3061 -0.1703
   36MOL   H28415054   1.020   5.051   3.222 -0.0947 -1.6830  0.3514
   36MOL   H28515055   1.193   5.247   3.310 -1.6262 -0.1064 -0.6135
   36MOL   H28615056   1.272   5.105   3.378  1.4969 -1.6672 -1.7768
   36MOL   H28715057   1.239   5.138   3.075 -0.9509 -0.5789  0.5545
   36MOL   H28815058   1.293   5.002   3.168  1.0553  0.0743  1.6048
   36MOL   H28915059   1.472   5.174   3.270  1.8121  1.2672  0.0756
   36MOL   H29015060   1.414   5.292   3.167 -0.4827  0.9373  1.3829
   36MOL   H29115061   1.627   5.163   3.080 -1.3883  4.4772 -0.0339
   36MOL   H29215062   1.536   5.012   3.092  1.9770  0.1245  1.9489
   36MOL   H29315063   1.506   5.254   2.895  0.5042  0.0355  0.2287
   36MOL   H29415064   1.401   5.108   2.882  0.8381 -0.9786 -0.7196
   36MOL   H29515065   1.566   5.097   2.860 -0.3704 -0.9781  1.0153
   36MOL   C29615066   0.987   5.102   3.438  0.3466 -0.4635  0.6461
   36MOL   C29715067   0.931   5.244   3.425 -0.3371 -0.3367 -0.6832
   36MOL   C29815068   0.875   5.293   3.558 -0.2286  0.0568 -1.3115
   36MOL   C29915069   0.831   5.446   3.560  0.5520  0.0083  0.0029
   36MOL   C30015070   0.947   5.537   3.558 -0.9297  0.1284  0.2207
   36MOL   C30115071   0.917   5.684   3.550  0.4744 -0.0595  0.3391
   36MOL   C30215072   1.033   5.777   3.545 -0.4140 -0.7356  0.2801
   36MOL   H30315073   0.894   5.046   3.453 -0.6027  0.4185 -1.6120
   36MOL   H30415074   1.056   5.086   3.521  1.9293 -0.9422 -0.7418
   36MOL   H30515075   1.015   5.311   3.407 -0.4230 -0.4721 -1.5773
   36MOL   H30615076   0.792   5.226   3.582  1.2385 -0.7082  1.9079
   36MOL   H30715077   0.944   5.268   3.639 -2.0250 -0.7727 -0.0053
   36MOL   H30815078   0.773   5.484   3.645 -0.6513  0.8951 -1.1993
   36MOL   H30915079   0.763   5.472   3.479  0.0957 -1.5984 -0.1355
   36MOL   H31015080   1.003   5.509   3.469 -0.0014  1.0236  0.5206
   36MOL   H31115081   1.007   5.520   3.647 -2.3828  0.6024  1.3217
   36MOL   H31215082   0.868   5.692   3.452  1.7066 -0.5919 -0.3239
   36MOL   H31315083   0.861   5.720   3.636  0.7549  2.2300 -0.3937
   36MOL   H31415084   1.070   5.795   3.646 -2.2813 -0.5016  0.9414
   36MOL   H31515085   1.122   5.737   3.497  1.1127  0.6927  1.8280
   36MOL   H31615086   1.007   5.871   3.496  0.3539 -0.4828  0.3550
   36MOL   C31715087   0.829   5.252   3.307 -0.2213 -0.0567  0.3143
   36MOL   C31815088   0.874   5.314   3.178  0.4374  0.1674  0.2507
   36MOL   C31915089   0.761   5.292   3.063  0.2883 -0.6518  0.3445
   36MOL   C32015090   0.715   5.157   3.020  0.0205  1.0900  0.5539
   36MOL   C32115091   0.819   5.065   2.961  0.0793 -0.0516  0.5133
   36MOL   C32215092   0.767   4.928   2.919 -0.6832  0.1011  0.3974
   36MOL   C32315093   0.871   4.855   2.836 -0.1796 -0.3315 -0.1544
   36MOL   H32415094   0.741   5.307   3.339 -0.4840  0.4928 -1.3559
   36MOL   H32515095   0.793   5.150   3.292 -1.0143 -0.0976  2.3047
   36MOL   H32615096   0.955   5.249   3.145 -0.0111  0.4909 -1.5345
   36MOL   H32715097   0.805   5.344   2.977  1.4435 -0.2281  1.1762
   36MOL   H32815098   0.671   5.351   3.077  1.7094  2.0489 -1.4887
   36MOL   H32915099   0.641   5.163   2.939 -0.0693 -0.5011  0.5113
   36MOL   H33015100   0.675   5.100   3.103  0.4650  0.3690  0.2790
   36MOL   H33115101   0.902   5.051   3.031 -0.7260  0.6901  1.6503
   36MOL   H33215102   0.856   5.115   2.872  1.2877 -0.6362  0.6809
   36MOL   H33315103   0.687   4.954   2.851  0.7125 -0.4007 -1.4852
   36MOL   H33415104   0.714   4.873   2.997 -1.3387  1.7593  1.1366
   36MOL   H33515105   0.958   4.838   2.900 -0.8760 -0.1429  0.8501
   36MOL   H33615106   0.893   4.905   2.742 -2.5683  0.7394 -0.1671
   36MOL   H33715107   0.839   4.754   2.811 -1.0431 -0.3895  1.1849
   36MOL   C33815108   0.917   5.456   3.196 -0.2310 -0.1220 -0.2078
   36MOL   C33915109   0.981   5.529   3.064 -0.5909  0.5685  0.3333
   36MOL   C34015110   1.105   5.457   3.006  0.0168 -0.6760 -0.2937
   36MOL   C34115111   1.160   5.516   2.868  0.0089 -0.0308 -0.6174
   36MOL   C34215112   1.297   5.455   2.826  0.6868  0.9079 -0.2734
   36MOL   C34315113   1.345   5.497   2.686 -0.3659  0.4333  0.0954
   36MOL   C34415114   1.359   5.648   2.670 -0.2039 -0.1424 -0.2271
   36MOL   H34515115   0.988   5.475   3.277 -1.8535  1.2197  0.9394
   36MOL   H34615116   0.834   5.519   3.227 -0.9244 -1.4063  0.5761
   36MOL   H34715117   0.912   5.529   2.979 -0.7299  0.2272  0.4429
   36MOL   H34815118   1.183   5.445   3.081 -0.9492 -0.9675  0.6751
   36MOL   H34915119   1.066   5.357   2.985 -2.8540  0.5362 -0.9009
   36MOL   H35015120   1.184   5.622   2.870 -1.4831  0.2950  1.1467
   36MOL   H35115121   1.081   5.503   2.795 -1.4298  1.7417  0.5749
   36MOL   H35215122   1.378   5.486   2.893  1.5417 -1.4017 -0.2168
   36MOL   H35315123   1.291   5.347   2.834 -3.3069  1.1492  0.8817
   36MOL   H35415124   1.436   5.454   2.645 -0.0958  0.7323  0.3820
   36MOL   H35515125   1.280   5.460   2.606  1.3411 -1.1714 -0.5812
   36MOL   H35615126   1.399   5.694   2.761  2.3772 -1.8819 -0.4509
   36MOL   H35715127   1.258   5.688   2.660 -0.2755 -0.9699 -3.3559
   36MOL   H35815128   1.418   5.681   2.584  1.5315  0.6149  1.2053
   36MOL   C35915129   1.026   5.676   3.107 -0.7694 -0.4639 -0.2430
   36MOL   C36015130   0.920   5.789   3.134 -0.0392  0.1987 -0.9665
   36MOL   C36115131   0.995   5.917   3.162 -0.4267 -0.2777 -0.4768
   36MOL   C36215132   1.040   6.009   3.052 -0.6551 -0.4630  0.3849
   36MOL   C36315133   1.095   6.148   3.099  0.4189  0.0043 -0.1084
   36MOL   C36415134   1.173   6.222   2.981  0.4217 -0.0261  0.4445
   36MOL   C36515135   1.080   6.292   2.875  0.0876 -0.5319 -0.1574
   36MOL   H36615136   1.097   5.714   3.033 -0.5285 -0.8745 -0.2236
   36MOL   H36715137   1.078   5.666   3.203 -1.0857 -0.0879 -0.0323
   36MOL   H36815138   0.862   5.754   3.220  0.8958 -0.4413 -0.5830
   36MOL   H36915139   0.937   5.969   3.238  2.3613  1.4180  0.5917
   36MOL   H37015140   1.081   5.900   3.228 -0.7556  0.6033  0.1873
   36MOL   H37115141   1.118   5.945   3.011 -0.3784 -0.4514  0.8884
   36MOL   H37215142   0.967   6.027   2.973  1.3337  1.8736 -0.9978
   36MOL   H37315143   1.013   6.207   3.141 -0.0016 -2.2212  2.2606
   36MOL   H37415144   1.161   6.135   3.184  0.6202 -0.3053 -0.3135
   36MOL   H37515145   1.242   6.295   3.023  0.9391  0.0068 -0.4433
   36MOL   H37615146   1.249   6.157   2.937  0.0741  0.2245 -0.5363
   36MOL   H37715147   1.040   6.380   2.925 -0.8383 -2.1643  2.0795
   36MOL   H37815148   1.145   6.336   2.800 -0.4849  0.2147 -0.2275
   36MOL   H37915149   1.000   6.232   2.830 -1.9118  2.2672 -0.4884
   36MOL   C38015150   0.811   5.796   3.021 -0.9646  0.2491  0.1304
   36MOL   C38115151   0.693   5.887   3.054  0.2251 -0.9733  0.2216
   36MOL   C38215152   0.590   5.883   2.932  0.0442 -0.0654  0.1836
   36MOL   C38315153   0.507   6.014   2.917  0.2739  0.3237 -0.6115
   36MOL   C38415154   0.425   6.015   2.793  0.0129 -0.1978  0.0324
   36MOL   C38515155   0.497   6.033   2.664  0.6704  0.5715 -0.0860
   36MOL   C38615156   0.576   6.172   2.661  0.4833 -0.3428 -0.8562
   36MOL   H38715157   0.862   5.810   2.926  3.5305  1.1273  2.5529
   36MOL   H38815158   0.769   5.695   3.016 -3.4201  1.2574 -0.2107
   36MOL   H38915159   0.745   5.983   3.058  1.4066 -1.6121  0.3375
   36MOL   H39015160   0.534   5.789   2.940 -1.0645  0.5969  0.4105
   36MOL   H39115161   0.649   5.872   2.842 -0.6997  2.5552 -0.6562
   36MOL   H39215162   0.436   6.039   2.996  0.1420 -3.1638  0.4876
   36MOL   H39315163   0.586   6.087   2.933 -2.3638  2.6166  2.8636
   36MOL   H39415164   0.375   5.918   2.791 -0.5351  0.0539  0.9619
   36MOL   H39515165   0.345   6.089   2.792 -1.8871 -2.1982 -0.8454
   36MOL   H39615166   0.421   6.021   2.587 -0.8948 -0.5565  1.5846
   36MOL   H39715167   0.562   5.947   2.653 -1.6197 -1.4436  1.3473
   36MOL   H39815168   0.636   6.172   2.752 -2.4629 -0.3227  1.1591
   36MOL   H39915169   0.519   6.265   2.651 -1.8839 -1.8152 -1.5185
   36MOL   H40015170   0.641   6.191   2.576  3.5329  3.6455  2.1425
   36MOL   C40115171   0.632   5.868   3.195 -0.9607  0.2845  0.5082
   36MOL   C40215172   0.583   5.725   3.216  0.2340  0.8304  0.2786
   36MOL   C40315173   0.507   5.698   3.344 -0.5744  0.3150  0.4619
   36MOL   C40415174   0.442   5.558   3.354  0.6031  1.0315 -0.1637
   36MOL   C40515175   0.378   5.530   3.493 -0.0357 -0.2757 -0.4943
   36MOL   C40615176   0.297   5.398   3.506 -0.0567 -0.3435  0.2961
   36MOL   C40715177   0.243   5.356   3.643  0.3690  0.4072  0.8951
   36MOL   H40815178   0.558   5.947   3.208 -1.8606 -0.2159 -1.3601
   36MOL   H40915179   0.702   5.903   3.271  0.6051  0.4111 -0.9586
   36MOL   H41015180   0.665   5.656   3.196 -1.3860 -0.3817 -2.5793
   36MOL   H41115181   0.432   5.772   3.372  0.2041  0.1186  3.3014
   36MOL   H41215182   0.583   5.713   3.421 -1.0690  0.4375  0.9318
   36MOL   H41315183   0.515   5.485   3.319 -0.8208  0.0166 -1.0560
   36MOL   H41415184   0.363   5.543   3.280  0.3251 -0.6786  0.4663
   36MOL   H41515185   0.460   5.549   3.562  0.5487  0.6507 -1.4336
   36MOL   H41615186   0.312   5.612   3.521 -0.6041 -1.4292  1.6477
   36MOL   H41715187   0.210   5.415   3.442  0.4027  1.8500  0.2097
   36MOL   H41815188   0.353   5.317   3.458  1.9900  0.0758  1.9063
   36MOL   H41915189   0.310   5.388   3.723  0.7986  1.1991  0.2310
   36MOL   H42015190   0.235   5.248   3.640 -0.3560  0.4231  2.0857
   36MOL   H42115191   0.146   5.399   3.665 -0.6509 -0.1406 -2.1839
   36MOL   H42215192   0.520   5.688   3.134 -2.4566  0.8596  2.2739
   37MOL     C115193   6.368   5.550   0.833 -0.5078  0.3170 -0.5881
   37MOL     C215194   6.318   5.473   0.949  0.6017  0.0773 -0.3089
   37MOL     C315195   6.277   5.327   0.908  0.1767 -0.3320  0.1475
   37MOL     C415196   6.196   5.299   0.778 -0.2635  0.1636  0.8243
   37MOL     C515197   6.182   5.151   0.750 -0.1723  0.4719  0.0594
   37MOL     C615198   6.115   5.133   0.614  0.3514  0.0838 -0.2900
   37MOL     C715199   6.217   5.143   0.495  0.2466 -0.4564 -0.7251
   37MOL     H815200   6.459   5.498   0.805  1.1936  0.9686  3.4103
   37MOL     H915201   6.387   5.655   0.854  1.0499  0.5538 -2.9991
   37MOL    H1015202   6.398   5.461   1.022 -0.0101  1.1032  0.5435
   37MOL    H1115203   6.369   5.267   0.904  0.1719 -0.4141  1.2223
   37MOL    H1215204   6.217   5.284   0.987 -0.6237  0.7013  0.1079
   37MOL    H1315205   6.104   5.356   0.791 -1.2152 -0.9678 -0.8207
   37MOL    H1415206   6.257   5.347   0.701 -0.3067 -0.6600  0.2784
   37MOL    H1515207   6.124   5.099   0.826 -0.2629  1.0490  0.3939
   37MOL    H1615208   6.283   5.111   0.756  0.1106  1.0908 -0.5523
   37MOL    H1715209   6.038   5.208   0.600  0.0926 -0.2934 -0.9190
   37MOL    H1815210   6.061   5.039   0.615  1.3120 -0.4810  2.2072
   37MOL    H1915211   6.178   5.100   0.403 -2.6428  0.5209 -0.0251
   37MOL    H2015212   6.308   5.085   0.507  1.8534  2.4634  1.7100
   37MOL    H2115213   6.247   5.245   0.471 -0.3699 -0.7161 -2.6796
   37MOL    H2215214   6.300   5.564   0.749 -0.3373  1.0322 -0.6025
   37MOL    C2315215   6.209   5.552   1.017  0.7830  0.8850 -0.3870
   37MOL    C2415216   6.174   5.506   1.158  0.1568 -0.2917 -0.3255
   37MOL    C2515217   6.054   5.591   1.211  0.2032 -0.6494 -0.1957
   37MOL    C2615218   5.925   5.604   1.124  0.8193 -0.3254  0.2838
   37MOL    C2715219   5.856   5.473   1.094  0.0011 -0.4193  0.3873
   37MOL    C2815220   5.720   5.503   1.032 -0.5294 -0.6382 -0.3175
   37MOL    C2915221   5.642   5.376   0.992 -0.3161 -0.9884 -0.0893
   37MOL    H3015222   6.237   5.657   1.019 -0.7267  1.2865  1.7468
   37MOL    H3115223   6.125   5.546   0.948  1.0582  0.1719 -0.6661
   37MOL    H3215224   6.154   5.399   1.154  0.6510 -0.3955 -0.2054
   37MOL    H3315225   6.091   5.689   1.239  1.8471 -1.5897  1.0166
   37MOL    H3415226   6.021   5.554   1.308 -0.3607 -2.5785 -1.1109
   37MOL    H3515227   5.954   5.655   1.031  1.0230 -0.1759  0.4300
   37MOL    H3615228   5.869   5.686   1.170 -0.3199 -0.7112 -0.3772
   37MOL    H3715229   5.833   5.422   1.187 -4.1002 -0.0097 -0.2717
   37MOL    H3815230   5.913   5.404   1.032 -1.3019  0.1789 -1.5324
   37MOL    H3915231   5.732   5.563   0.942  0.7898  0.6585  0.6999
   37MOL    H4015232   5.667   5.573   1.098  1.1751  0.2732  0.1352
   37MOL    H4115233   5.538   5.405   0.981 -0.0262  0.7568  1.5288
   37MOL    H4215234   5.690   5.323   0.909 -0.9441  0.3712 -1.3457
   37MOL    H4315235   5.654   5.305   1.073  2.6915 -0.2043  0.1970
   37MOL    C4415236   6.300   5.524   1.247 -0.4212 -0.3137  0.2287
   37MOL    C4515237   6.281   5.511   1.401 -0.2277  0.0170  0.6777
   37MOL    C4615238   6.230   5.365   1.425 -0.5280 -0.7323  0.2660
   37MOL    C4715239   6.201   5.326   1.569  0.1898 -0.0083  0.6322
   37MOL    C4815240   6.120   5.431   1.646  0.7769  0.6699  0.1914
   37MOL    C4915241   6.077   5.387   1.787 -0.8010  0.2216 -0.4179
   37MOL    C5015242   6.019   5.504   1.864 -0.5136  0.2510  0.1229
   37MOL    H5115243   6.343   5.619   1.217  1.3126 -0.8467  0.9906
   37MOL    H5215244   6.376   5.448   1.231  0.7794  1.0329 -0.5099
   37MOL    H5315245   6.207   5.585   1.428 -0.1842 -0.8068  3.1551
   37MOL    H5415246   6.293   5.286   1.384  2.2216  0.9643  1.0604
   37MOL    H5515247   6.133   5.338   1.385 -0.7810  2.5412 -1.4387
   37MOL    H5615248   6.136   5.239   1.559  0.1985  0.3374 -3.6113
   37MOL    H5715249   6.294   5.304   1.621  0.9328 -1.2746 -1.1651
   37MOL    H5815250   6.030   5.454   1.589 -0.0552 -0.7778  0.8721
   37MOL    H5915251   6.179   5.522   1.652 -1.7400  2.5469 -2.0426
   37MOL    H6015252   6.158   5.353   1.850 -0.7064 -1.5775 -1.4778
   37MOL    H6115253   6.007   5.303   1.783  1.2040 -1.5565  1.1464
   37MOL    H6215254   5.968   5.484   1.958  0.1455  0.9214  0.6267
   37MOL    H6315255   5.950   5.559   1.799 -0.8761  0.8419  0.9951
   37MOL    H6415256   6.091   5.583   1.886  0.7752 -0.8091 -0.2351
   37MOL    C6515257   6.416   5.536   1.476  0.6186  0.1922 -0.2809
   37MOL    C6615258   6.418   5.669   1.556  1.0914  0.3207 -0.0719
   37MOL    C6715259   6.397   5.802   1.474 -0.4709 -0.2979  0.8652
   37MOL    C6815260   6.386   5.932   1.566  0.1174 -0.6072  0.3650
   37MOL    C6915261   6.331   6.046   1.464 -0.3746 -0.7736  0.1815
   37MOL    C7015262   6.340   6.178   1.543 -0.1617  0.5633 -0.0020
   37MOL    C7115263   6.322   6.295   1.456 -0.8016 -0.2097 -0.0680
   37MOL    H7215264   6.424   5.458   1.552 -1.8562 -0.8821 -1.0621
   37MOL    H7315265   6.499   5.534   1.405  0.2430 -1.7289 -0.7168
   37MOL    H7415266   6.322   5.676   1.607  0.2625  0.7299 -1.6612
   37MOL    H7515267   6.488   5.814   1.415 -0.9501 -0.9216 -0.0088
   37MOL    H7615268   6.315   5.789   1.403  1.2017  0.0541 -1.1725
   37MOL    H7715269   6.315   5.938   1.648  3.2022  1.6781  3.0019
   37MOL    H7815270   6.486   5.957   1.601 -1.5942  0.8875  4.5172
   37MOL    H7915271   6.391   6.051   1.373 -1.8234  0.7260 -0.7194
   37MOL    H8015272   6.233   6.026   1.422  0.6695 -0.9958 -2.2084
   37MOL    H8115273   6.436   6.184   1.594  0.5225  2.0381 -1.4286
   37MOL    H8215274   6.265   6.176   1.622 -1.1579  2.1765 -0.9029
   37MOL    H8315275   6.396   6.316   1.379 -2.4483 -0.7440 -1.8211
   37MOL    H8415276   6.229   6.300   1.401 -0.1416  0.8827 -1.1100
   37MOL    H8515277   6.325   6.385   1.518 -1.0416  0.0356 -0.4088
   37MOL    C8615278   6.535   5.674   1.654  0.2689  0.3700 -0.1952
   37MOL    C8715279   6.513   5.735   1.799 -0.0992 -0.1984 -0.8411
   37MOL    C8815280   6.443   5.633   1.891 -0.1092  0.2477  0.0189
   37MOL    C8915281   6.372   5.683   2.013  0.2394 -0.1311 -0.5349
   37MOL    C9015282   6.328   5.569   2.096  0.1627  0.3939  0.1973
   37MOL    C9115283   6.244   5.619   2.214  0.0970  0.5777 -0.7411
   37MOL    C9215284   6.202   5.503   2.308  0.2754  0.3945  0.0415
   37MOL    H9315285   6.583   5.576   1.654 -0.4226 -0.0026 -2.6870
   37MOL    H9415286   6.618   5.735   1.618 -0.0577  1.8953  1.5280
   37MOL    H9515287   6.440   5.816   1.804 -0.1754 -0.2989 -0.2907
   37MOL    H9615288   6.368   5.588   1.826 -0.2586 -0.7043  0.8399
   37MOL    H9715289   6.515   5.554   1.908  1.6184  0.9685 -3.6637
   37MOL    H9815290   6.435   5.756   2.065 -2.7205  1.5756  0.7706
   37MOL    H9915291   6.283   5.737   1.981 -0.2647 -1.6958 -1.8627
   37MOL   H10015292   6.418   5.518   2.132 -0.5706 -2.7366 -2.2661
   37MOL   H10115293   6.272   5.497   2.037  0.6312  0.7513 -0.6972
   37MOL   H10215294   6.300   5.699   2.262  0.5232 -0.0974 -0.1168
   37MOL   H10315295   6.149   5.666   2.187 -0.6582  1.1964  2.8401
   37MOL   H10415296   6.286   5.436   2.325 -1.1097 -0.9325  1.8071
   37MOL   H10515297   6.120   5.444   2.267  1.2786  0.0901 -1.5639
   37MOL   H10615298   6.165   5.553   2.398 -1.3797 -1.9446  0.6930
   37MOL   C10715299   6.646   5.775   1.865 -0.3362 -0.2319  0.4216
   37MOL   C10815300   6.689   5.918   1.825 -0.5855 -0.7012  0.1451
   37MOL   C10915301   6.600   6.025   1.907 -0.5179  0.2032  0.6579
   37MOL   C11015302   6.608   6.174   1.853 -0.0427  0.5394 -0.0725
   37MOL   C11115303   6.500   6.255   1.908  0.2178 -0.2113  0.1160
   37MOL   C11215304   6.495   6.397   1.856 -0.0994  0.1769  0.0350
   37MOL   C11315305   6.373   6.476   1.911 -0.3242 -0.7988  0.2037
   37MOL   H11415306   6.722   5.703   1.835  0.5693 -0.7357  3.7596
   37MOL   H11515307   6.644   5.767   1.973  0.6733 -1.1877  0.3748
   37MOL   H11615308   6.669   5.938   1.720  0.2311 -0.2728  0.0641
   37MOL   H11715309   6.632   6.019   2.011 -2.3041 -3.2147  1.0905
   37MOL   H11815310   6.496   5.994   1.896  0.1718 -1.4787 -1.5329
   37MOL   H11915311   6.706   6.220   1.864  0.5800 -0.8046  0.1357
   37MOL   H12015312   6.598   6.165   1.744  1.2345  2.1495 -0.3340
   37MOL   H12115313   6.526   6.263   2.013  0.2159 -0.2458  0.1191
   37MOL   H12215314   6.405   6.203   1.896  0.1180  0.1041 -0.5284
   37MOL   H12315315   6.583   6.457   1.881 -0.8648  1.4690 -0.3335
   37MOL   H12415316   6.489   6.396   1.747  0.5927  0.1863 -0.0074
   37MOL   H12515317   6.350   6.564   1.852  0.0922 -0.4518  0.5524
   37MOL   H12615318   6.286   6.411   1.905  0.7385 -2.2245  0.0085
   37MOL   H12715319   6.388   6.509   2.014  2.2041 -0.4086 -0.2633
   37MOL   C12815320   6.838   5.950   1.835 -0.2897  0.6873 -0.1836
   37MOL   C12915321   6.928   5.880   1.737 -0.0180  0.2638 -0.0501
   37MOL   C13015322   7.069   5.866   1.796  0.3032  0.3003  0.4423
   37MOL   C13115323   7.098   5.780   1.925 -0.4012  0.0603  0.0529
   37MOL   C13215324   7.239   5.722   1.930  0.2887 -0.0973  0.0969
   37MOL   C13315325   7.256   5.658   2.057  0.6545 -0.0695  0.1875
   37MOL   C13415326   7.391   5.588   2.086  0.2930 -0.5464 -0.2284
   37MOL   H13515327   6.861   6.057   1.829  1.9233  0.3116  0.8205
   37MOL   H13615328   6.877   5.920   1.933 -1.0271  0.4024  0.0242
   37MOL   H13715329   6.897   5.778   1.715  3.6285 -0.9365  0.0894
   37MOL   H13815330   7.108   5.965   1.818 -1.8109  1.0715  0.8463
   37MOL   H13915331   7.126   5.827   1.712  0.0713  0.3803  0.2466
   37MOL   H14015332   7.017   5.710   1.945 -1.5082  1.1360 -0.5407
   37MOL   H14115333   7.089   5.845   2.012  1.7347 -0.4696  0.6884
   37MOL   H14215334   7.290   5.818   1.921 -3.6298  2.1679  0.7373
   37MOL   H14315335   7.258   5.661   1.842 -1.2969  0.8535 -0.9402
   37MOL   H14415336   7.179   5.581   2.064  0.2713  0.5249  3.0103
   37MOL   H14515337   7.229   5.735   2.129  1.1967 -1.1997  1.6314
   37MOL   H14615338   7.396   5.536   2.182 -1.0411 -0.3769 -0.0524
   37MOL   H14715339   7.469   5.665   2.083 -0.0599 -0.0170  2.6229
   37MOL   H14815340   7.415   5.525   2.001  0.8660 -1.1313  0.3605
   37MOL   C14915341   6.921   5.959   1.603 -0.6235 -0.2409  0.4875
   37MOL   C15015342   6.961   5.879   1.475  0.2803 -0.6848  0.3347
   37MOL   C15115343   7.004   5.988   1.370  0.1418  0.1815 -0.2220
   37MOL   C15215344   7.072   5.921   1.243 -0.1647  0.0428  0.2117
   37MOL   C15315345   7.138   6.036   1.162  0.0898 -0.1853 -0.1001
   37MOL   C15415346   7.232   5.981   1.050 -0.3496  0.2433 -0.4686
   37MOL   C15515347   7.293   6.084   0.959  0.6391 -0.1766  0.3383
   37MOL   H15615348   6.823   6.004   1.590 -0.2897  1.4604  3.3282
   37MOL   H15715349   6.989   6.043   1.620  2.0977 -2.3455  0.3182
   37MOL   H15815350   7.050   5.820   1.496  1.4383 -0.1349 -2.7686
   37MOL   H15915351   6.923   6.053   1.338  0.2939  0.8340  0.7200
   37MOL   H16015352   7.082   6.055   1.405  0.5139  0.1386 -0.9636
   37MOL   H16115353   6.992   5.873   1.188  0.7489 -1.7569  0.4163
   37MOL   H16215354   7.147   5.843   1.255 -0.2276 -0.0833 -0.2430
   37MOL   H16315355   7.201   6.102   1.221  0.7691 -1.3269  0.4665
   37MOL   H16415356   7.066   6.103   1.115 -0.7754 -0.9144  0.1791
   37MOL   H16515357   7.180   5.901   0.997  0.6014 -1.2272  0.7972
   37MOL   H16615358   7.307   5.922   1.102 -0.4088  0.7695  0.2230
   37MOL   H16715359   7.312   6.172   1.021 -3.7630  0.9494  0.2707
   37MOL   H16815360   7.222   6.114   0.882 -0.4114  0.5224  1.5576
   37MOL   H16915361   7.390   6.047   0.926  1.6317  1.8909  0.8292
   37MOL   C17015362   6.853   5.792   1.416 -0.0978 -0.2364  0.2044
   37MOL   C17115363   6.898   5.652   1.375  0.4906  0.3670 -0.3998
   37MOL   C17215364   6.944   5.572   1.499 -0.3006 -0.0634 -0.2523
   37MOL   C17315365   6.987   5.426   1.475  0.5141  0.0274  0.0148
   37MOL   C17415366   7.029   5.358   1.608  0.0710  0.0067  0.5900
   37MOL   C17515367   6.909   5.328   1.703  0.1473  0.2686 -0.4977
   37MOL   C17615368   6.949   5.261   1.837 -0.1884 -0.1260 -0.2960
   37MOL   H17715369   6.799   5.841   1.335 -0.1985 -0.2076  0.2883
   37MOL   H17815370   6.777   5.775   1.492  2.3450 -2.4652  2.2466
   37MOL   H17915371   6.977   5.653   1.299  1.4834 -0.0223  0.6197
   37MOL   H18015372   6.860   5.568   1.569 -0.1672 -0.8367 -0.1344
   37MOL   H18115373   7.033   5.621   1.540 -0.9060  0.3594  0.5749
   37MOL   H18215374   7.063   5.414   1.398  1.3445  1.6065  0.5693
   37MOL   H18315375   6.909   5.359   1.438  2.4413 -1.6108 -1.1469
   37MOL   H18415376   7.097   5.420   1.666  0.3084  0.7553 -0.4786
   37MOL   H18515377   7.084   5.269   1.578 -1.8557 -0.8380 -0.5254
   37MOL   H18615378   6.830   5.277   1.647  1.1920  0.4736 -2.1788
   37MOL   H18715379   6.869   5.424   1.733  1.0938  0.6790 -0.5349
   37MOL   H18815380   7.014   5.324   1.898  1.4420 -1.4197 -0.6637
   37MOL   H18915381   6.999   5.165   1.828  1.3775  0.7218 -0.8466
   37MOL   H19015382   6.855   5.252   1.892 -0.0530  0.1536 -0.0157
   37MOL   C19115383   6.775   5.580   1.304 -0.1184 -0.7171 -0.1629
   37MOL   C19215384   6.808   5.473   1.189 -0.0657  0.2374 -0.3280
   37MOL   C19315385   6.683   5.378   1.164  0.5429 -0.0437  0.9268
   37MOL   C19415386   6.673   5.274   1.273 -0.0177 -0.5632 -0.3671
   37MOL   C19515387   6.563   5.175   1.254 -0.5486 -0.5383 -0.2366
   37MOL   C19615388   6.556   5.053   1.351  0.2646 -0.6677  0.2689
   37MOL   C19715389   6.438   4.958   1.343  0.0605 -0.3685  0.2968
   37MOL   H19815390   6.709   5.652   1.257  1.2537  1.2347  0.8123
   37MOL   H19915391   6.722   5.533   1.387  3.0988 -1.8926  1.3179
   37MOL   H20015392   6.877   5.404   1.237 -1.8438 -0.9347  0.6156
   37MOL   H20115393   6.690   5.333   1.065  0.4153 -0.8187  1.2699
   37MOL   H20215394   6.596   5.444   1.169  0.2056 -0.3045 -1.1248
   37MOL   H20315395   6.652   5.324   1.367 -1.6232 -1.3239 -0.2960
   37MOL   H20415396   6.768   5.222   1.288  0.3268  0.6484  1.7963
   37MOL   H20515397   6.471   5.233   1.259 -2.2347 -3.2061  0.4558
   37MOL   H20615398   6.581   5.142   1.152  0.5067  4.2566 -1.7587
   37MOL   H20715399   6.557   5.086   1.455 -1.5572 -0.7631  0.3254
   37MOL   H20815400   6.648   4.996   1.340 -1.5494 -3.3067 -1.9300
   37MOL   H20915401   6.344   5.003   1.375 -1.1740 -1.2308 -2.0044
   37MOL   H21015402   6.460   4.877   1.413  0.3090 -0.0990  0.5312
   37MOL   H21115403   6.432   4.906   1.248 -0.8324  1.3239 -0.5900
   37MOL   C21215404   6.871   5.532   1.060  0.0379 -0.3997  0.2069
   37MOL   C21315405   6.963   5.432   0.995 -0.2190 -0.1885 -0.3621
   37MOL   C21415406   6.950   5.431   0.840  0.6331  0.4046 -0.6687
   37MOL   C21515407   6.831   5.350   0.778 -0.5164  0.5360 -0.0762
   37MOL   C21615408   6.814   5.379   0.626 -0.3186 -0.1902 -0.9581
   37MOL   C21715409   6.717   5.280   0.559 -0.2442 -0.6648 -0.0175
   37MOL   C21815410   6.562   5.303   0.595  0.0793  0.2130  0.2948
   37MOL   H21915411   6.915   5.630   1.079 -0.0673  0.0814 -1.8333
   37MOL   H22015412   6.789   5.562   0.994  0.7658  0.9914 -0.1061
   37MOL   H22115413   6.938   5.332   1.031  1.4085 -0.2999  0.5152
   37MOL   H22215414   6.972   5.533   0.807  0.9590  0.0865 -1.4590
   37MOL   H22315415   7.039   5.373   0.814 -0.1540 -0.9089 -0.4794
   37MOL   H22415416   6.737   5.372   0.830 -0.5114 -0.5021  0.3897
   37MOL   H22515417   6.833   5.242   0.792 -1.1308  0.1015 -3.0821
   37MOL   H22615418   6.775   5.479   0.608 -0.4517 -0.2238 -0.8606
   37MOL   H22715419   6.910   5.374   0.574 -0.1260 -0.4021 -0.5876
   37MOL   H22815420   6.717   5.285   0.450 -0.4157 -2.9092 -0.1370
   37MOL   H22915421   6.746   5.177   0.577  2.2845  0.1010  0.4885
   37MOL   H23015422   6.530   5.405   0.573  3.2398  1.8087  2.5746
   37MOL   H23115423   6.546   5.275   0.698 -2.2544  2.2742  0.5416
   37MOL   H23215424   6.499   5.236   0.537  0.3419  0.7373 -0.6175
   37MOL   C23315425   7.106   5.458   1.047 -0.6568  0.0023  0.7048
   37MOL   C23415426   7.209   5.348   1.027  0.2613 -0.4134  0.1378
   37MOL   C23515427   7.357   5.402   1.014  0.7147 -0.3695 -0.2419
   37MOL   C23615428   7.386   5.516   0.922  0.4884 -0.9178 -0.3062
   37MOL   C23715429   7.532   5.510   0.881 -0.4794 -0.0025 -1.0237
   37MOL   C23815430   7.607   5.625   0.807  0.1099  0.1509 -0.1834
   37MOL   C23915431   7.533   5.685   0.681  0.0720 -0.4364 -0.5243
   37MOL   H24015432   7.105   5.490   1.151 -1.0676 -1.6025  1.2026
   37MOL   H24115433   7.134   5.545   0.987 -1.3175 -1.5365 -1.9521
   37MOL   H24215434   7.188   5.297   0.933  2.2600 -1.9553  0.4902
   37MOL   H24315435   7.414   5.315   0.983 -1.8439 -2.0583 -0.3946
   37MOL   H24415436   7.384   5.441   1.112 -0.0080  0.1019 -0.2219
   37MOL   H24515437   7.384   5.613   0.972  1.6413  0.0514 -2.0595
   37MOL   H24615438   7.320   5.512   0.834 -0.2893 -0.0144  0.2210
   37MOL   H24715439   7.548   5.427   0.813  0.6059  1.9167 -3.1841
   37MOL   H24815440   7.598   5.492   0.967  0.0407  0.3286 -1.3463
   37MOL   H24915441   7.622   5.704   0.880  1.1852 -0.9038  0.7424
   37MOL   H25015442   7.706   5.586   0.787  0.0087 -0.2193  0.0485
   37MOL   H25115443   7.428   5.703   0.704  0.4692  0.5450  0.5070
   37MOL   H25215444   7.569   5.785   0.659  2.7643 -0.8841  1.5419
   37MOL   H25315445   7.534   5.617   0.595  0.4853 -0.0771 -0.8046
   37MOL   C25415446   7.194   5.242   1.138 -0.1197 -0.6652 -0.1875
   37MOL   C25515447   7.196   5.097   1.091  0.2342 -0.1224 -0.1083
   37MOL   C25615448   7.328   5.061   1.013 -0.3999 -0.1808 -0.1393
   37MOL   C25715449   7.462   5.079   1.088  0.0769  0.6629  0.0250
   37MOL   C25815450   7.591   5.042   1.012 -0.5346 -0.4130 -0.8156
   37MOL   C25915451   7.650   5.166   0.944 -0.2761  0.0636  0.6700
   37MOL   C26015452   0.081   5.148   0.894  0.4122 -0.1993 -0.2782
   37MOL   H26115453   7.098   5.259   1.186 -0.3693  0.5063 -1.0556
   37MOL   H26215454   7.270   5.259   1.214  0.7442  1.1077 -1.4063
   37MOL   H26315455   7.185   5.042   1.185 -2.2132 -2.0540 -1.4583
   37MOL   H26415456   7.327   5.118   0.920  0.0929  1.6459  0.9489
   37MOL   H26515457   7.321   4.955   0.989  2.4781 -0.8934  1.9742
   37MOL   H26615458   7.474   5.168   1.149  0.8503 -0.1294  1.0496
   37MOL   H26715459   7.441   5.004   1.164 -0.2690 -1.9571 -2.5670
   37MOL   H26815460   7.573   4.962   0.939 -1.7342 -1.2890  0.4062
   37MOL   H26915461   7.662   4.992   1.078 -1.0560  1.6100  1.3212
   37MOL   H27015462   7.588   5.175   0.854  2.6391 -1.5496 -1.5931
   37MOL   H27115463   7.645   5.261   0.996  1.5895  1.6615 -1.9529
   37MOL   H27215464   0.102   5.061   0.833  1.9946 -0.8512  1.1448
   37MOL   H27315465   0.124   5.233   0.841 -0.3216 -0.3323 -1.0862
   37MOL   H27415466   0.148   5.136   0.980  0.5151 -1.0745 -0.4828
   37MOL   C27515467   7.075   5.053   1.010 -0.1055  0.2808  0.1292
   37MOL   C27615468   7.043   4.898   1.000 -0.5954 -0.1423 -0.7543
   37MOL   C27715469   6.962   4.878   0.873 -0.5355 -0.4238 -0.2473
   37MOL   C27815470   6.819   4.920   0.876 -0.0635 -0.5959  0.5049
   37MOL   C27915471   6.751   4.851   0.752 -0.0475 -0.4756  0.3334
   37MOL   C28015472   6.609   4.892   0.729  0.4475  0.0960  0.4230
   37MOL   C28115473   6.518   4.893   0.852 -0.6814  0.0040 -0.5224
   37MOL   H28215474   7.096   5.099   0.913 -1.0043 -0.6431 -0.5093
   37MOL   H28315475   6.991   5.109   1.051  0.4342  1.1438  0.0685
   37MOL   H28415476   7.140   4.851   0.985 -0.5184 -0.4701  0.6913
   37MOL   H28515477   7.011   4.925   0.787  3.2868 -2.0845  0.8811
   37MOL   H28615478   6.972   4.772   0.850 -0.7206 -0.2567 -1.1241
   37MOL   H28715479   6.810   5.029   0.871 -0.1789 -0.6971 -2.3730
   37MOL   H28815480   6.762   4.895   0.965  2.0194  0.2566  2.1169
   37MOL   H28915481   6.751   4.743   0.761  2.6008 -0.4627  0.7854
   37MOL   H29015482   6.812   4.869   0.664 -0.9405 -2.3107 -0.6887
   37MOL   H29115483   6.612   4.997   0.698  2.3636  0.1812  0.8366
   37MOL   H29215484   6.565   4.834   0.648 -0.2467 -1.7092  2.0532
   37MOL   H29315485   6.417   4.933   0.837 -0.5421 -0.1046 -1.8657
   37MOL   H29415486   6.552   4.973   0.918 -1.6200 -0.4213  0.4978
   37MOL   H29515487   6.518   4.794   0.897  0.1407  0.6659  0.9595
   37MOL   C29615488   6.978   4.852   1.130 -0.4424 -0.0798 -0.4551
   37MOL   C29715489   6.959   4.698   1.143 -0.7621 -0.4048 -0.3106
   37MOL   C29815490   6.849   4.658   1.238 -0.0555  0.4691 -0.6329
   37MOL   C29915491   6.711   4.625   1.167  0.3746  0.2486  0.6996
   37MOL   C30015492   6.592   4.578   1.256  0.0448  0.0488 -1.0095
   37MOL   C30115493   6.463   4.566   1.178 -0.5390  0.4733  0.3843
   37MOL   C30215494   6.342   4.534   1.269  0.2396  0.2061  0.3507
   37MOL   H30315495   7.031   4.879   1.221 -0.2277  3.4330 -1.5437
   37MOL   H30415496   6.879   4.896   1.145  0.4053  0.8575  2.7781
   37MOL   H30515497   6.939   4.653   1.045 -1.3087 -0.7217 -0.0538
   37MOL   H30615498   6.877   4.571   1.298 -0.1283 -0.3174 -1.7200
   37MOL   H30715499   6.841   4.732   1.317 -3.8901 -1.5250  0.9569
   37MOL   H30815500   6.740   4.562   1.083  1.8177  1.6608  0.1105
   37MOL   H30915501   6.677   4.718   1.122  1.7401 -0.9007 -2.8492
   37MOL   H31015502   6.580   4.644   1.342 -0.9901 -1.1279 -0.2509
   37MOL   H31115503   6.621   4.481   1.294  0.1481  0.8774  1.1009
   37MOL   H31215504   6.439   4.658   1.124 -2.0333  0.2985  0.7200
   37MOL   H31315505   6.476   4.490   1.101  0.0888 -0.0577  1.0126
   37MOL   H31415506   6.356   4.445   1.331 -1.3657 -0.7211 -0.5981
   37MOL   H31515507   6.312   4.624   1.321 -2.5791 -0.4376 -0.0878
   37MOL   H31615508   6.255   4.508   1.210  0.7218 -0.4306 -0.0963
   37MOL   C31715509   7.097   4.635   1.176 -0.3039 -0.2280  1.1312
   37MOL   C31815510   7.112   4.488   1.213  0.7368  0.2977  0.9620
   37MOL   C31915511   7.051   4.387   1.110 -0.2717  0.2172 -0.7114
   37MOL   C32015512   7.038   4.236   1.152 -0.3996  0.1880  0.4590
   37MOL   C32115513   6.953   4.131   1.076  0.4091 -0.7507 -0.5863
   37MOL   C32215514   6.802   4.166   1.076  0.0887 -0.3980 -0.6335
   37MOL   C32315515   6.750   4.230   1.208 -0.4117 -0.3332 -0.3240
   37MOL   H32415516   7.131   4.696   1.260 -0.6148 -0.3016  1.3126
   37MOL   H32515517   7.159   4.649   1.088 -1.4202 -1.0366  0.1983
   37MOL   H32615518   7.051   4.471   1.302 -0.2621 -1.3138 -0.0002
   37MOL   H32715519   7.106   4.389   1.016  1.2246  0.7006  0.1573
   37MOL   H32815520   6.949   4.413   1.084  0.0898  3.6265  0.9533
   37MOL   H32915521   7.019   4.221   1.259  0.6725  0.5990  0.7059
   37MOL   H33015522   7.140   4.198   1.150  0.1605  1.6732  0.4910
   37MOL   H33115523   6.969   4.030   1.114  0.8959 -0.9582 -1.3308
   37MOL   H33215524   6.976   4.133   0.970  2.4711 -0.7957 -0.1501
   37MOL   H33315525   6.766   4.065   1.059 -0.3160 -0.4258  0.3187
   37MOL   H33415526   6.784   4.223   0.985 -1.9378 -1.1341 -0.7170
   37MOL   H33515527   6.784   4.175   1.296  1.2998  1.1407 -0.0380
   37MOL   H33615528   6.643   4.248   1.216 -0.1976  0.1315  1.8468
   37MOL   H33715529   6.791   4.330   1.221 -0.9881 -0.1268 -0.0741
   37MOL   C33815530   7.259   4.457   1.253  0.2352 -0.1436  0.0665
   37MOL   C33915531   7.323   4.524   1.376 -0.8872 -0.2182  0.6025
   37MOL   C34015532   7.472   4.487   1.398 -0.0212  0.0165  0.0550
   37MOL   C34115533   7.572   4.550   1.309  0.2030 -0.1967  0.6535
   37MOL   C34215534   0.003   4.507   1.325  0.4114 -0.5030  0.8776
   37MOL   C34315535   0.043   4.503   1.465 -0.2542 -0.6051 -0.1766
   37MOL   C34415536   0.194   4.475   1.495 -0.0757  0.1927 -0.3718
   37MOL   H34515537   7.313   4.475   1.160 -1.9683 -0.3326 -1.2858
   37MOL   H34615538   7.271   4.349   1.265 -1.4160 -0.3645 -0.0829
   37MOL   H34715539   7.312   4.632   1.368  0.3549 -0.1365 -0.1448
   37MOL   H34815540   7.495   4.496   1.504 -0.4807 -0.8126  0.2299
   37MOL   H34915541   7.478   4.381   1.375 -2.9383 -0.7382  2.5040
   37MOL   H35015542   7.569   4.658   1.325  2.7395  0.0022 -0.1407
   37MOL   H35115543   7.545   4.531   1.205 -0.6872  0.9708  0.6511
   37MOL   H35215544   0.022   4.415   1.270 -0.6859 -0.1239 -0.1711
   37MOL   H35315545   0.068   4.583   1.281 -0.7998 -0.4389 -0.8748
   37MOL   H35415546   0.010   4.580   1.534  0.2176  0.5255 -1.2106
   37MOL   H35515547   7.704   4.418   1.511 -1.1293 -0.0697 -0.1829
   37MOL   H35615548   0.259   4.549   1.448 -1.1858  0.4651 -1.4900
   37MOL   H35715549   0.242   4.383   1.463 -0.1107  0.0214  0.0625
   37MOL   H35815550   0.210   4.486   1.602  1.7234 -0.2983 -0.5886
   37MOL   C35915551   7.248   4.483   1.502 -0.2228 -0.0077  1.0184
   37MOL   C36015552   7.271   4.580   1.624 -0.6232 -0.7063 -0.4722
   37MOL   C36115553   7.181   4.703   1.617 -0.7912 -0.2670  0.5714
   37MOL   C36215554   7.023   4.671   1.623 -0.2599 -0.1134 -0.5059
   37MOL   C36315555   6.960   4.803   1.675 -0.3429  0.3637  0.4282
   37MOL   C36415556   6.804   4.808   1.665 -0.1965  0.2761  0.3096
   37MOL   C36515557   6.742   4.943   1.698  0.3295  0.1620  1.1504
   37MOL   H36615558   7.270   4.379   1.522 -2.7484 -0.3121  2.2800
   37MOL   H36715559   7.141   4.491   1.482 -0.2002 -2.8668 -0.4368
   37MOL   H36815560   7.376   4.611   1.621 -0.9122  0.3382  0.0465
   37MOL   H36915561   7.201   4.780   1.693 -0.9967 -0.4497  0.8123
   37MOL   H37015562   7.202   4.752   1.522  0.2478 -0.3774  0.7333
   37MOL   H37115563   6.981   4.653   1.524  1.5447 -1.9991 -0.9568
   37MOL   H37215564   6.999   4.589   1.689 -0.0514  1.5658  1.7005
   37MOL   H37315565   6.991   4.814   1.779  1.2406 -0.8143  0.0918
   37MOL   H37415566   6.999   4.888   1.619 -0.3273  2.6017  3.6904
   37MOL   H37515567   6.781   4.792   1.560  1.3152  1.5010 -0.2312
   37MOL   H37615568   6.770   4.724   1.726 -1.7463  0.6039 -0.0856
   37MOL   H37715569   6.637   4.932   1.724 -0.1321 -3.2187 -1.7832
   37MOL   H37815570   6.792   4.983   1.786  2.7610 -0.6641  0.2065
   37MOL   H37915571   6.744   5.012   1.614 -1.8489 -0.5421  0.4788
   37MOL   C38015572   7.252   4.509   1.758 -0.8170 -0.5550 -0.2587
   37MOL   C38115573   7.372   4.430   1.818 -0.4316  0.3780 -0.4699
   37MOL   C38215574   7.483   4.526   1.867 -0.2472 -0.5713 -0.3014
   37MOL   C38315575   7.627   4.468   1.875 -0.8601  0.8541  0.0342
   37MOL   C38415576   0.026   4.567   1.893  0.4714 -0.0758  0.4744
   37MOL   C38515577   0.168   4.508   1.897 -0.0101  0.6536 -0.1868
   37MOL   C38615578   0.282   4.614   1.903 -0.0925  0.0006 -0.3700
   37MOL   H38715579   7.213   4.578   1.833  0.0284 -1.3312  0.8927
   37MOL   H38815580   7.168   4.440   1.752 -1.1789 -0.1983  0.6924
   37MOL   H38915581   7.406   4.361   1.740 -0.1160  0.2819 -0.2463
   37MOL   H39015582   7.453   4.572   1.961  0.4934  0.9702 -0.7946
   37MOL   H39115583   7.478   4.612   1.800  2.0165  0.8329  1.2655
   37MOL   H39215584   7.621   4.405   1.964 -2.6400  0.6640 -0.2075
   37MOL   H39315585   7.642   4.409   1.785 -0.4335  0.7112  0.1956
   37MOL   H39415586   0.023   4.641   1.813 -2.8354 -1.1929 -0.5188
   37MOL   H39515587   0.013   4.624   1.985  0.5421  0.5085  0.1288
   37MOL   H39615588   0.180   4.437   1.815  1.8691 -1.2942  1.7103
   37MOL   H39715589   0.171   4.451   1.990  1.5584 -1.3794 -1.4291
   37MOL   H39815590   0.382   4.576   1.925 -0.1864 -0.5890 -0.9393
   37MOL   H39915591   0.277   4.676   1.993  2.2434 -0.3591  0.0383
   37MOL   H40015592   0.296   4.674   1.813 -0.1784 -0.7739 -0.9039
   37MOL   C40115593   7.337   4.331   1.932 -0.3000 -0.3087  0.1794
   37MOL   C40215594   7.337   4.187   1.898  0.3630 -0.5764  0.5007
   37MOL   C40315595   7.212   4.172   1.810 -0.0630  0.4403 -0.1624
   37MOL   C40415596   7.182   4.027   1.771 -0.1900 -0.2012  0.7764
   37MOL   C40515597   7.060   4.007   1.686 -0.0372 -0.1839 -0.0928
   37MOL   C40615598   6.993   3.865   1.691 -0.4152  0.5863  1.0142
   37MOL   C40715599   6.868   3.846   1.603 -0.5441 -0.1766  0.3038
   37MOL   H40815600   7.252   4.371   1.987  1.0612  2.5113  0.3007
   37MOL   H40915601   7.419   4.334   2.005 -1.0202  0.2343  0.9799
   37MOL   H41015602   7.317   4.132   1.990 -1.2254 -2.0319 -0.6811
   37MOL   H41115603   7.234   4.217   1.713 -0.5063  1.3774  0.1658
   37MOL   H41215604   7.120   4.217   1.849  0.5903  0.4159  1.4478
   37MOL   H41315605   7.165   3.975   1.866 -0.3751  1.7457  1.8454
   37MOL   H41415606   7.270   3.977   1.730 -0.2090  0.4256 -0.0329
   37MOL   H41515607   6.993   4.077   1.736 -0.5457 -0.6738 -0.0780
   37MOL   H41615608   7.079   4.039   1.584  1.8167  1.1666  0.6661
   37MOL   H41715609   7.069   3.794   1.657 -3.3859 -1.7679 -1.0092
   37MOL   H41815610   6.982   3.840   1.796  0.7382 -0.9472  0.7837
   37MOL   H41915611   6.888   3.879   1.500 -2.3684 -0.0719 -0.0378
   37MOL   H42015612   6.773   3.889   1.634 -0.9597  0.9238 -2.3428
   37MOL   H42115613   6.840   3.742   1.594  1.5594 -0.6309 -1.5574
   37MOL   H42215614   7.428   4.151   1.850  0.1182 -0.7214  0.1488
   38MOL     C115615   1.683   0.288   7.485 -1.1330 -1.0187 -0.2275
   38MOL     C215616   1.688   0.139   7.440 -0.0366 -0.1892  0.8398
   38MOL     C315617   1.640   0.114   7.292  0.3174 -0.7582 -0.6824
   38MOL     C415618   1.639   7.688   7.233 -0.1743 -0.1480 -0.7450
   38MOL     C515619   1.779   7.635   7.202  0.3643 -0.0280 -0.5952
   38MOL     C615620   1.777   7.501   7.129  0.2904 -0.5373  0.1230
   38MOL     C715621   1.728   7.508   6.983 -0.5082  0.3087  0.0170
   38MOL     H815622   1.732   0.295   7.582  0.6255  0.1977 -1.1721
   38MOL     H915623   1.577   0.309   7.493 -1.0429 -0.6486 -0.0066
   38MOL    H1015624   1.792   0.106   7.438 -0.9711 -3.2554 -1.0238
   38MOL    H1115625   1.539   0.155   7.281  0.5248 -0.5459 -1.8912
   38MOL    H1215626   1.695   0.188   7.234 -0.0146  0.1771  0.1860
   38MOL    H1315627   1.587   7.618   7.298  1.2245  0.3820  0.9614
   38MOL    H1415628   1.575   7.692   7.144 -2.1369  0.6919  0.6891
   38MOL    H1515629   1.832   7.629   7.297  0.0472  1.2278 -0.3320
   38MOL    H1615630   1.827   7.703   7.133 -0.5925 -0.6389 -1.8803
   38MOL    H1715631   1.716   7.430   7.185  0.2210 -0.8740 -0.3778
   38MOL    H1815632   1.876   7.455   7.136  0.4653 -0.6603 -2.6683
   38MOL    H1915633   1.788   7.586   6.938  0.7999 -0.2938  0.6860
   38MOL    H2015634   1.621   7.529   6.986  0.0147  3.0629  0.1552
   38MOL    H2115635   1.740   7.416   6.926 -0.1475  0.0253  0.5423
   38MOL    H2215636   1.728   0.364   7.421  0.0377 -1.6844 -0.2225
   38MOL    C2315637   1.615   0.049   7.543 -0.2143  0.0564 -0.0146
   38MOL    C2415638   1.670   0.035   7.682  0.4878  0.2653 -0.1859
   38MOL    C2515639   1.792   7.656   7.675  0.0151 -0.3081  0.0095
   38MOL    C2615640   1.886   7.667   0.084  0.5761 -0.4587  0.0541
   38MOL    C2715641   2.011   7.582   0.067 -0.6417  1.1890 -0.3039
   38MOL    C2815642   2.106   7.613   0.182 -0.5168 -0.2351 -0.2251
   38MOL    C2915643   2.211   7.503   0.200  0.0250  0.7540 -0.9586
   38MOL    H3015644   1.509   0.077   7.539 -0.2394  0.1737  1.3624
   38MOL    H3115645   1.608   7.661   7.504  1.6325 -0.2588  0.4428
   38MOL    H3215646   1.704   0.134   0.000 -1.7176  1.2341 -0.7517
   38MOL    H3315647   1.854   7.662   7.585 -3.8527 -2.0298 -2.8744
   38MOL    H3415648   1.755   7.555   7.659  2.3432 -0.7055 -3.4721
   38MOL    H3515649   1.827   7.634   0.170 -1.6708  2.3390 -0.3504
   38MOL    H3615650   1.918   0.056   0.100 -0.6347  0.0062 -0.4368
   38MOL    H3715651   2.066   7.598   7.688 -1.2285  0.5936 -0.7649
   38MOL    H3815652   1.979   7.478   0.061 -0.3568  0.7509  4.0592
   38MOL    H3915653   2.046   7.616   0.273 -0.6350  0.3711 -0.3204
   38MOL    H4015654   2.143   7.712   0.154 -0.4444  0.2737  1.5978
   38MOL    H4115655   2.262   7.489   0.105 -2.5063 -2.4021 -1.9401
   38MOL    H4215656   2.283   7.523   0.280  2.3482 -0.2988 -2.7514
   38MOL    H4315657   2.169   7.405   0.221  0.8762  0.7478  0.7719
   38MOL    C4415658   1.562   7.699   0.063  0.0197  0.5429 -0.2359
   38MOL    C4515659   1.462   0.100   0.109 -0.4696 -0.5045 -0.0184
   38MOL    C4615660   1.336   0.035   0.174 -0.2244 -0.7596 -0.2670
   38MOL    C4715661   1.236   7.700   0.071  0.7658  0.4930  0.3858
   38MOL    C4815662   1.110   7.639   0.145 -0.7090 -0.2294 -0.5837
   38MOL    C4915663   0.995   7.605   0.046 -0.3531  0.1784  0.0107
   38MOL    C5015664   0.882   7.534   0.118 -0.7213  0.7754 -0.0492
   38MOL    H5115665   1.615   7.673   0.155 -2.1521 -0.3903  0.8032
   38MOL    H5215666   1.507   7.608   0.037 -2.1418  1.7263  0.0690
   38MOL    H5315667   1.424   0.139   0.015 -1.5519  0.1654  0.6803
   38MOL    H5415668   1.295   0.109   0.243  1.1917 -0.1500 -0.0617
   38MOL    H5515669   1.363   7.658   0.229  1.9468 -0.8398 -1.4408
   38MOL    H5615670   1.197   0.071   0.014  0.3427  1.5366  2.1878
   38MOL    H5715671   1.280   7.636   7.708 -1.9073 -0.0769 -0.7435
   38MOL    H5815672   1.072   0.007   0.206  2.0524  0.7526 -0.0865
   38MOL    H5915673   1.130   7.545   0.197  0.1692 -0.7569 -1.8181
   38MOL    H6015674   1.029   7.529   7.689 -0.2554 -1.0479  1.3717
   38MOL    H6115675   0.955   7.692   7.708  0.1726  1.0019  0.9655
   38MOL    H6215676   0.901   7.431   0.147 -1.3229 -0.4282 -3.6475
   38MOL    H6315677   0.817   7.508   0.035 -0.3983 -3.6000  0.9570
   38MOL    H6415678   0.834   7.594   0.195  0.6622  1.5041  0.2565
   38MOL    C6515679   1.516   0.201   0.212 -0.0916 -0.1845 -0.0510
   38MOL    C6615680   1.453   0.339   0.199  0.3510 -0.1266  0.4174
   38MOL    C6715681   1.519   0.428   0.085 -0.2181 -0.0020 -0.0460
   38MOL    C6815682   1.421   0.514   0.015 -0.5500 -0.2155  0.4914
   38MOL    C6915683   1.492   0.619   7.643  1.0964  0.7935 -0.6679
   38MOL    C7015684   1.398   0.736   7.591  0.3250 -0.2815  0.3944
   38MOL    C7115685   1.470   0.825   7.481 -0.2518  0.7874  0.0491
   38MOL    H7215686   1.495   0.163   0.312  2.5669 -0.3712  0.4910
   38MOL    H7315687   1.625   0.201   0.207  0.0545 -0.6324  2.4957
   38MOL    H7415688   1.355   0.316   0.157 -0.3524  0.4752  1.6892
   38MOL    H7515689   1.602   0.488   0.121 -1.1738  0.5955  1.1950
   38MOL    H7615690   1.571   0.363   0.014  1.5630  0.0416  1.2033
   38MOL    H7715691   1.362   0.455   7.658 -1.4537 -0.3380  1.3488
   38MOL    H7815692   1.347   0.558   0.081 -0.6971  0.3861 -0.0700
   38MOL    H7915693   1.573   0.664   7.701  0.1130  0.4665  0.9862
   38MOL    H8015694   1.539   0.568   7.558  1.4896 -1.3271  0.7778
   38MOL    H8115695   1.380   0.795   7.681  2.2295  0.5240  0.2857
   38MOL    H8215696   1.298   0.705   7.562 -0.4967  0.5718  2.2172
   38MOL    H8315697   1.512   0.761   7.404 -0.1762 -1.3083  1.7974
   38MOL    H8415698   1.403   0.900   7.439 -1.5419  0.8619  2.1855
   38MOL    H8515699   1.554   0.879   7.527 -0.5237  1.3038 -0.0547
   38MOL    C8615700   1.439   0.417   0.339 -0.2866 -0.1338 -0.7114
   38MOL    C8715701   1.327   0.353   0.436 -0.8776  0.1026 -0.0604
   38MOL    C8815702   1.353   0.406   0.583 -0.6774  0.2473 -0.1098
   38MOL    C8915703   1.362   0.560   0.587 -0.0938 -0.4852 -0.1360
   38MOL    C9015704   1.391   0.604   0.729  0.4587 -0.4897 -0.5344
   38MOL    C9115705   1.424   0.755   0.751 -0.2331 -0.9535  0.2771
   38MOL    C9215706   1.478   0.779   0.888  0.0127  0.0910  0.5762
   38MOL    H9315707   1.531   0.400   0.396 -0.2740 -0.6614 -0.8935
   38MOL    H9415708   1.423   0.525   0.332  1.6718  0.4664  2.3937
   38MOL    H9515709   1.351   0.247   0.448 -1.9618 -0.4566 -2.6199
   38MOL    H9615710   1.278   0.376   0.656  1.4347  0.4199  2.1832
   38MOL    H9715711   1.441   0.361   0.628 -1.4914  0.0782  1.3288
   38MOL    H9815712   1.448   0.594   0.530 -1.4390  3.3648 -0.0159
   38MOL    H9915713   1.279   0.624   0.558 -0.9209 -0.9334  1.2066
   38MOL   H10015714   1.474   0.539   0.758 -0.8171 -0.8139  2.4830
   38MOL   H10115715   1.308   0.584   0.796  1.0181 -0.1801  0.2593
   38MOL   H10215716   1.486   0.807   0.678 -0.8215  3.1914  2.5775
   38MOL   H10315717   1.339   0.823   0.743  1.1733  0.8098  0.0027
   38MOL   H10415718   1.469   0.689   0.950  2.4153  0.6277  1.7720
   38MOL   H10515719   1.426   0.863   0.933 -0.0776  1.8493 -2.7108
   38MOL   H10615720   1.587   0.779   0.880 -0.1160 -1.5414 -1.6630
   38MOL   C10715721   1.181   0.364   0.385 -0.4231  0.2273 -0.0498
   38MOL   C10815722   1.077   0.300   0.485 -0.2211 -0.3631  0.1817
   38MOL   C10915723   0.940   0.313   0.418  0.0695 -0.3219 -1.4211
   38MOL   C11015724   0.898   0.206   0.312 -0.1396 -0.8437 -0.4195
   38MOL   C11115725   0.753   0.219   0.266  0.0870 -0.3069  0.5040
   38MOL   C11215726   0.661   0.129   0.346 -0.3165 -0.7091  0.0238
   38MOL   C11315727   0.502   0.157   0.320  0.0494  1.0140 -0.0865
   38MOL   H11415728   1.174   0.338   0.280 -1.0846 -0.2135  0.0993
   38MOL   H11515729   1.153   0.468   0.372  1.5734  0.4681 -2.7327
   38MOL   H11615730   1.071   0.369   0.569  1.8955  0.6263 -0.4522
   38MOL   H11715731   0.943   0.410   0.368 -3.1210  1.4742  1.6011
   38MOL   H11815732   0.878   0.325   0.507  1.2530 -0.3136 -0.6024
   38MOL   H11915733   0.965   0.201   0.226 -0.5442  0.3481 -0.8098
   38MOL   H12015734   0.912   0.104   0.348 -1.1586 -0.7184  0.3403
   38MOL   H12115735   0.743   0.191   0.161  2.1729 -1.6469  0.6259
   38MOL   H12215736   0.724   0.322   0.286 -1.4465 -0.1530 -2.2513
   38MOL   H12315737   0.682   0.023   0.329  1.8977 -0.3591  0.3684
   38MOL   H12415738   0.679   0.145   0.452  0.4519 -1.0314 -0.0515
   38MOL   H12515739   0.440   0.116   0.400 -0.8280  0.0273 -1.2543
   38MOL   H12615740   0.472   0.261   0.315  0.8466  1.2872  0.5851
   38MOL   H12715741   0.464   0.114   0.228  0.9592  0.9569 -0.4418
   38MOL   C12815742   1.111   0.164   0.548 -0.2672 -0.0541 -0.3137
   38MOL   C12915743   0.999   0.108   0.642 -1.0660  0.3361  0.1337
   38MOL   C13015744   0.973   0.201   0.765  0.0795 -0.4805  0.0380
   38MOL   C13115745   1.101   0.217   0.856 -0.1346  0.1055  0.5997
   38MOL   C13215746   1.095   0.348   0.931 -0.4813  0.3048  0.5112
   38MOL   C13315747   1.210   0.365   1.034  0.1329 -0.3302 -0.4534
   38MOL   C13415748   1.215   0.509   1.098 -0.4563 -0.2743 -0.0876
   38MOL   H13515749   1.119   0.097   0.463 -0.1440 -1.5966  0.9065
   38MOL   H13615750   1.212   0.171   0.588 -0.6035  0.8689  0.4001
   38MOL   H13715751   0.904   0.110   0.588 -1.2153 -2.2451  0.2407
   38MOL   H13815752   0.888   0.162   0.821 -0.7533 -0.2544 -1.0603
   38MOL   H13915753   0.943   0.301   0.734 -1.3974 -0.4480  1.4754
   38MOL   H14015754   1.194   0.207   0.800  0.7180  2.3562  1.5957
   38MOL   H14115755   1.110   0.137   0.930 -1.7524 -0.2324  0.4645
   38MOL   H14215756   0.999   0.354   0.983 -0.5372 -0.6608  0.5258
   38MOL   H14315757   1.079   0.430   0.861 -2.4579  0.5695  1.2260
   38MOL   H14415758   1.302   0.337   0.983  0.1531  0.2093 -0.7258
   38MOL   H14515759   1.195   0.286   1.107  1.9422  0.4917  0.8438
   38MOL   H14615760   1.127   0.524   1.160 -1.3079 -0.2495 -1.2830
   38MOL   H14715761   1.204   0.586   1.022  0.1543 -0.5270 -0.4365
   38MOL   H14815762   1.310   0.519   1.151  1.1988 -0.1830 -2.9592
   38MOL   C14915763   1.034   7.679   0.687  0.2929  0.9239  0.1760
   38MOL   C15015764   0.917   7.593   0.739  0.0954  0.9829  0.0483
   38MOL   C15115765   0.959   7.482   0.835  0.3677 -0.0353  0.5310
   38MOL   C15215766   1.052   7.364   0.782  0.1361  0.3724 -0.0533
   38MOL   C15315767   1.012   7.224   0.830  0.4533 -0.0791  0.4891
   38MOL   C15415768   1.110   7.118   0.789  0.1748 -0.0671  0.0499
   38MOL   C15515769   1.054   6.972   0.773  0.0011  0.3971  0.2293
   38MOL   H15615770   1.077   7.627   0.601  0.1861 -0.2620  0.8355
   38MOL   H15715771   1.116   7.684   0.758 -0.3729  0.8475  0.9553
   38MOL   H15815772   0.857   7.661   0.799 -1.9513 -0.0046 -0.8152
   38MOL   H15915773   1.020   7.523   0.915  3.0246 -1.9140 -0.4688
   38MOL   H16015774   0.864   7.441   0.870  0.6179 -1.8760 -0.8532
   38MOL   H16115775   1.156   7.379   0.810 -0.0915  0.4794  0.7579
   38MOL   H16215776   1.036   7.365   0.674  2.2449  0.7545 -0.3865
   38MOL   H16315777   0.914   7.204   0.788  1.0899 -2.3874 -0.0026
   38MOL   H16415778   1.008   7.213   0.938  3.3081  0.0623  0.6429
   38MOL   H16515779   1.196   7.126   0.855  0.8217  1.0356 -0.8972
   38MOL   H16615780   1.151   7.141   0.690  3.1167 -1.5306  0.8666
   38MOL   H16715781   1.020   6.915   0.860  1.1614 -0.7735 -0.0646
   38MOL   H16815782   1.133   6.900   0.754 -1.0127 -0.4287 -0.9771
   38MOL   H16915783   1.003   6.955   0.679 -0.1624 -0.7071  0.5132
   38MOL   C17015784   0.828   7.547   0.617 -0.0665  0.6523  0.4709
   38MOL   C17115785   0.705   7.464   0.658  0.3711  0.1740 -0.4273
   38MOL   C17215786   0.607   7.540   0.748 -0.3057  0.1791 -0.1723
   38MOL   C17315787   0.540   7.662   0.677 -0.0024  0.0930  0.3023
   38MOL   C17415788   0.459   0.040   0.765  0.2712 -0.2585 -0.3876
   38MOL   C17515789   0.409   0.173   0.708 -0.2392 -0.2391  0.8430
   38MOL   C17615790   0.373   0.261   0.823  0.1643  0.1727  0.5099
   38MOL   H17715791   0.891   7.497   0.543 -2.2354  1.2497 -1.8436
   38MOL   H17815792   0.795   7.637   0.565 -2.4678  1.8079  3.8615
   38MOL   H17915793   0.737   7.373   0.709  0.0312  0.4017  0.1892
   38MOL   H18015794   0.662   7.582   0.832  0.2036  1.5155 -1.1527
   38MOL   H18115795   0.536   7.473   0.796  0.2840  0.3069  0.8688
   38MOL   H18215796   0.470   7.634   0.598  1.2605 -1.6316 -0.2357
   38MOL   H18315797   0.619   0.007   0.629  3.2673 -4.6145 -0.3780
   38MOL   H18415798   0.524   0.053   0.851  1.6294 -1.5230 -1.1910
   38MOL   H18515799   0.370   7.704   0.803 -1.7536  3.5496  0.0832
   38MOL   H18615800   0.328   0.169   0.635 -0.2232  1.3385  0.7121
   38MOL   H18715801   0.492   0.218   0.652 -1.4917  0.6471 -0.3421
   38MOL   H18815802   0.454   0.265   0.896 -1.9480 -0.8210  2.9850
   38MOL   H18915803   0.284   0.230   0.877 -0.3125  0.9617  0.1907
   38MOL   H19015804   0.351   0.353   0.769 -1.8365 -0.4688  0.1934
   38MOL   C19115805   0.633   7.404   0.530 -0.9463 -0.1701  0.1701
   38MOL   C19215806   0.695   7.282   0.461 -0.1528 -0.6151 -0.0972
   38MOL   C19315807   0.671   7.148   0.539  0.1057 -0.0007  0.1414
   38MOL   C19415808   0.755   7.028   0.484 -0.1343  0.0330 -0.0089
   38MOL   C19515809   0.738   6.904   0.574 -0.3302  0.0447  0.5227
   38MOL   C19615810   0.597   6.843   0.577 -0.5503 -0.3516 -0.1203
   38MOL   C19715811   0.584   6.721   0.492 -0.5428 -0.3985  0.2014
   38MOL   H19815812   0.633   7.488   0.459  0.2528 -0.4053 -0.1201
   38MOL   H19915813   0.527   7.390   0.552 -1.1492 -0.2113 -0.8104
   38MOL   H20015814   0.801   7.303   0.473 -0.5276  0.8820  0.7124
   38MOL   H20115815   0.563   7.134   0.545  0.1426 -0.1783  0.3768
   38MOL   H20215816   0.698   7.175   0.641 -0.3196  0.8312  0.0388
   38MOL   H20315817   0.859   7.053   0.464  0.4246 -1.0892  1.4150
   38MOL   H20415818   0.730   6.998   0.382  0.4659  1.3900 -0.5600
   38MOL   H20515819   0.808   6.826   0.543  0.6882  1.1423  0.0293
   38MOL   H20615820   0.764   6.928   0.677  0.4605 -3.9314  1.3275
   38MOL   H20715821   0.525   6.924   0.563 -0.0855 -0.3181 -2.6379
   38MOL   H20815822   0.581   6.816   0.681 -2.7862 -1.2285 -0.6510
   38MOL   H20915823   0.660   6.649   0.523  0.4962  1.8195  3.0048
   38MOL   H21015824   0.611   6.743   0.388 -0.3475  0.6217  0.4592
   38MOL   H21115825   0.483   6.681   0.490 -0.2232 -1.3074  1.6476
   38MOL   C21215826   0.657   7.270   0.310 -0.1717  0.6690  0.2807
   38MOL   C21315827   0.512   7.272   0.274 -0.3824  0.9998 -0.4266
   38MOL   C21415828   0.483   7.320   0.130 -0.2106  0.7612  0.1803
   38MOL   C21515829   0.491   7.480   0.136  0.2391  0.1686  0.0012
   38MOL   C21615830   0.458   7.548   7.713  0.5267 -0.8443  0.1281
   38MOL   C21715831   0.313   7.534   7.672  0.5119 -0.2700 -0.1078
   38MOL   C21815832   0.265   7.602   7.547  0.1083  0.4481  0.3174
   38MOL   H21915833   0.706   7.182   0.268 -2.7622 -0.9056  0.5001
   38MOL   H22015834   0.699   7.356   0.256 -1.1924 -0.0760 -1.7599
   38MOL   H22115835   0.453   7.330   0.345  1.7648  0.4900  1.8130
   38MOL   H22215836   0.559   7.277   0.065 -0.9180 -0.9985  0.4801
   38MOL   H22315837   0.388   7.282   0.093 -0.1884  0.7493  0.1347
   38MOL   H22415838   0.590   7.510   0.169  0.7066 -1.7374  0.4168
   38MOL   H22515839   0.420   7.516   0.210 -0.7752 -2.0960  0.1830
   38MOL   H22615840   0.486   7.653   0.007 -0.3473 -0.3803 -2.5279
   38MOL   H22715841   0.513   7.503   7.630  0.2283 -0.8124 -0.0902
   38MOL   H22815842   0.281   7.430   7.667  1.8859 -0.8335  2.0459
   38MOL   H22915843   0.249   7.568   0.040  0.2583  1.7297 -1.0999
   38MOL   H23015844   0.309   7.701   7.552  0.1380  0.4508  0.0327
   38MOL   H23115845   0.156   7.601   7.543  0.1530  0.0592 -1.1828
   38MOL   H23215846   0.296   7.558   7.452 -0.7606  0.5824 -0.0401
   38MOL   C23315847   0.460   7.123   0.276 -0.4240  0.0742  0.0513
   38MOL   C23415848   0.310   7.094   0.313  0.3789 -0.2010 -0.4177
   38MOL   C23515849   0.256   6.952   0.281 -0.4220  0.1123  0.2628
   38MOL   C23615850   0.273   6.901   0.133  0.1567 -0.3780  0.1002
   38MOL   C23715851   0.188   6.772   0.101  0.8802 -0.4129  0.6557
   38MOL   C23815852   0.201   6.639   0.176  0.2270  0.2584  0.6383
   38MOL   C23915853   0.119   6.517   0.121 -0.0082  0.8707 -0.1682
   38MOL   H24015854   0.526   7.067   0.342  1.2164  1.9292  0.0324
   38MOL   H24115855   0.484   7.079   0.179  0.7073  0.2321  0.2553
   38MOL   H24215856   0.251   7.161   0.251 -2.3871 -0.3364  1.9292
   38MOL   H24315857   0.149   6.945   0.299 -0.3633 -1.4349  0.0984
   38MOL   H24415858   0.286   6.880   0.357 -2.7702  0.5269  1.6332
   38MOL   H24515859   0.381   6.884   0.124  0.0920  0.0206 -1.4287
   38MOL   H24615860   0.253   6.985   0.068 -1.4802  1.2608  2.6336
   38MOL   H24715861   0.206   6.755   7.708 -2.4713 -2.7079  0.3759
   38MOL   H24815862   0.086   6.806   0.119  1.3592  1.3917  0.0865
   38MOL   H24915863   0.308   6.618   0.182  0.8887  2.9722 -0.9403
   38MOL   H25015864   0.175   6.648   0.282  0.4430 -0.1783  0.7284
   38MOL   H25115865   0.126   6.432   0.189  0.0026 -1.1831 -2.6440
   38MOL   H25215866   0.013   6.539   0.110 -0.4117 -0.5304  0.8049
   38MOL   H25315867   0.168   6.486   0.028  1.7355  0.5161  0.8574
   38MOL   C25415868   0.295   7.130   0.471  0.2815 -0.7929 -0.1863
   38MOL   C25515869   0.145   7.121   0.531  0.3025  0.5566  0.5501
   38MOL   C25615870   0.033   7.175   0.446 -0.0768  0.6247  0.0534
   38MOL   C25715871   7.606   7.124   0.481  0.1363  0.6328  0.4230
   38MOL   C25815872   7.494   7.163   0.383  0.4396 -0.1758  0.2968
   38MOL   C25915873   7.436   7.301   0.416  0.6268 -0.6201  0.2417
   38MOL   C26015874   7.291   7.317   0.368  0.0104 -0.6645 -0.0205
   38MOL   H26115875   0.339   7.227   0.494 -1.6084 -0.3019  1.4799
   38MOL   H26215876   0.346   7.058   0.534 -0.0232  0.6920  1.8228
   38MOL   H26315877   0.127   7.015   0.549  2.0342  0.3073  0.9095
   38MOL   H26415878   0.046   7.138   0.344 -1.3599 -0.4528  0.2633
   38MOL   H26515879   0.035   7.284   0.450  1.9347  0.6910 -2.1165
   38MOL   H26615880   7.609   7.015   0.485  1.5423  0.6893  1.1164
   38MOL   H26715881   7.580   7.149   0.584  0.4273  1.1050  0.3842
   38MOL   H26815882   7.423   7.083   0.402  1.7413 -1.8260 -1.5959
   38MOL   H26915883   7.523   7.156   0.278 -3.2356 -1.0460 -0.7293
   38MOL   H27015884   7.430   7.314   0.524 -1.7264  0.8227 -0.0412
   38MOL   H27115885   7.500   7.384   0.386  1.2329 -0.5305  1.7245
   38MOL   H27215886   7.243   7.397   0.424 -1.3670 -1.4087 -0.1336
   38MOL   H27315887   7.303   7.335   0.261  1.4541  2.9362  0.6689
   38MOL   H27415888   7.231   7.227   0.377 -0.5312 -0.1598  1.5137
   38MOL   C27515889   0.141   7.173   0.676 -0.9840 -0.3573 -0.8894
   38MOL   C27615890   0.223   7.087   0.780  0.1616  0.6874 -0.3427
   38MOL   C27715891   0.169   6.946   0.805  0.6191  0.1205  0.3900
   38MOL   C27815892   0.276   6.836   0.775 -0.2321  0.0868 -0.7186
   38MOL   C27915893   0.234   6.692   0.796 -0.0182  0.0170 -0.0776
   38MOL   C28015894   0.133   6.627   0.701  0.1376 -0.1347 -0.0902
   38MOL   C28115895   0.094   6.485   0.750  0.1886  0.0163 -0.2265
   38MOL   H28215896   0.042   7.190   0.719 -1.3495 -0.0184 -1.8630
   38MOL   H28315897   0.189   7.271   0.676  2.4005 -1.9386 -0.1393
   38MOL   H28415898   0.325   7.077   0.741  1.8478  1.3876  3.6667
   38MOL   H28515899   0.123   6.937   0.903  1.7387 -1.7374  0.7691
   38MOL   H28615900   0.077   6.926   0.750  0.7659 -4.0866  1.5032
   38MOL   H28715901   0.363   6.858   0.837 -1.1242  2.4807 -0.2564
   38MOL   H28815902   0.310   6.858   0.673  1.8394  0.1318 -0.0441
   38MOL   H28915903   0.201   6.675   0.899 -1.1049 -2.8400 -0.8287
   38MOL   H29015904   0.325   6.631   0.792 -0.1504 -0.1159 -1.3242
   38MOL   H29115905   0.040   6.682   0.686 -0.0218 -0.7354 -1.3123
   38MOL   H29215906   0.175   6.615   0.601  1.8683  0.1175  0.5877
   38MOL   H29315907   0.023   6.435   0.684  0.4675  0.6533 -1.0129
   38MOL   H29415908   0.043   6.497   0.846  0.9607  1.3115  0.0225
   38MOL   H29515909   0.175   6.413   0.760 -0.6639 -0.9701 -0.3511
   38MOL   C29615910   0.231   7.181   0.906  0.4170  0.4890  0.6153
   38MOL   C29715911   0.326   7.126   1.016 -0.5132 -0.5326  0.2231
   38MOL   C29815912   0.270   7.147   1.155 -0.0819  0.2728 -0.5453
   38MOL   C29915913   0.148   7.058   1.186 -0.5677  0.5974  0.0303
   38MOL   C30015914   0.109   7.063   1.330  0.4824 -0.4508  0.0993
   38MOL   C30115915   7.696   6.971   1.363  0.0569  0.0247  0.0357
   38MOL   C30215916   7.678   6.979   1.519 -0.0109  0.3323  0.3744
   38MOL   H30315917   0.255   7.285   0.884  1.5215  0.6715  2.5642
   38MOL   H30415918   0.131   7.197   0.945  0.4295  2.5014 -0.1321
   38MOL   H30515919   0.344   7.020   1.001 -0.4476 -0.4578 -0.2328
   38MOL   H30615920   0.346   7.132   1.232 -0.1247  1.6582 -0.2222
   38MOL   H30715921   0.251   7.253   1.171 -0.1606  0.0799  0.7117
   38MOL   H30815922   0.172   6.953   1.167 -0.5339  0.5901  0.1132
   38MOL   H30915923   0.059   7.078   1.126  0.9045  0.8232 -2.1304
   38MOL   H31015924   0.077   7.164   1.358  0.6796  0.1454 -1.7725
   38MOL   H31115925   0.199   7.036   1.385 -0.5297 -0.0425  2.0269
   38MOL   H31215926   7.605   7.002   1.311 -0.7293 -0.6446  0.9869
   38MOL   H31315927   0.002   6.872   1.323  1.0124  0.4536 -0.5666
   38MOL   H31415928   7.595   6.916   1.551  1.2162 -2.4366 -1.7445
   38MOL   H31515929   0.053   6.957   1.578  0.3815 -0.4449 -0.4890
   38MOL   H31615930   7.643   7.080   1.539 -1.8984 -0.5487  1.7218
   38MOL   C31715931   0.463   7.188   0.987 -0.4840  0.5579 -0.2244
   38MOL   C31815932   0.584   7.107   1.048  0.4426 -0.2926 -0.1026
   38MOL   C31915933   0.629   6.991   0.954  0.2373 -0.8648 -0.0089
   38MOL   C32015934   0.713   6.887   1.034  0.3706 -0.3926  0.3182
   38MOL   C32115935   0.745   6.769   0.948  0.2617 -0.5200 -0.5398
   38MOL   C32215936   0.766   6.640   1.024 -0.3811  0.4389  0.0463
   38MOL   C32315937   0.739   6.520   0.929 -0.6484 -0.5903  0.1031
   38MOL   H32415938   0.455   7.292   1.020  0.3704 -0.2927  2.8078
   38MOL   H32515939   0.470   7.184   0.878  0.3285  0.7702 -0.1828
   38MOL   H32615940   0.547   7.059   1.138  1.2471  1.5064  1.2336
   38MOL   H32715941   0.682   7.042   0.875 -1.1345  0.5758 -0.0291
   38MOL   H32815942   0.546   6.932   0.915  0.2837 -1.5601  0.9265
   38MOL   H32915943   0.666   6.861   1.128 -1.2154  0.3173 -0.2692
   38MOL   H33015944   0.810   6.930   1.060  0.9940 -1.2334 -0.5336
   38MOL   H33115945   0.833   6.792   0.888  0.7596  0.4910  0.5463
   38MOL   H33215946   0.665   6.752   0.877 -0.7275 -0.4880  0.5616
   38MOL   H33315947   0.691   6.636   1.103  0.5631  0.1644  0.9395
   38MOL   H33415948   0.858   6.629   1.081  0.5904  0.3770 -1.5228
   38MOL   H33515949   0.759   6.553   0.827 -4.4130 -0.1772 -0.5845
   38MOL   H33615950   0.634   6.492   0.934 -1.8430  3.2925 -1.3844
   38MOL   H33715951   0.802   6.439   0.965  1.2642  0.5941 -0.4804
   38MOL   C33815952   0.703   7.196   1.103  0.9894 -0.0770 -0.3348
   38MOL   C33915953   0.685   7.261   1.246 -0.0793 -0.2505 -0.0159
   38MOL   C34015954   0.760   7.389   1.267 -0.8071  0.5689 -0.0520
   38MOL   C34115955   0.679   7.505   1.206 -0.2744 -0.3161 -0.2410
   38MOL   C34215956   0.759   7.638   1.182 -0.4160  0.8588  0.0668
   38MOL   C34315957   0.653   0.037   1.154 -0.3031  0.4867  0.3479
   38MOL   C34415958   0.715   0.171   1.155  0.6226  0.2955 -0.1262
   38MOL   H34515959   0.718   7.278   1.032 -1.9194  0.1183 -0.7807
   38MOL   H34615960   0.798   7.146   1.088  0.2546 -1.1544 -1.4512
   38MOL   H34715961   0.577   7.277   1.252 -0.2349 -1.1356 -0.3228
   38MOL   H34815962   0.774   7.409   1.374 -1.2064  1.1981 -0.1099
   38MOL   H34915963   0.865   7.399   1.241  0.2378 -1.6520  3.0213
   38MOL   H35015964   0.583   7.519   1.255 -1.7101 -1.5425 -2.6022
   38MOL   H35115965   0.639   7.474   1.109  0.0823  0.6598 -0.7055
   38MOL   H35215966   0.826   7.666   1.264  0.0438 -1.6494  0.5841
   38MOL   H35315967   0.827   7.633   1.097 -0.0673  0.2333  0.3767
   38MOL   H35415968   0.596   0.018   1.062  0.3041 -1.2227  0.3047
   38MOL   H35515969   0.580   0.036   1.235 -1.1624  0.8634 -0.4066
   38MOL   H35615970   0.814   0.178   1.109  0.4914  1.0244 -0.3078
   38MOL   H35715971   0.731   0.217   1.252  1.6083 -0.1775 -0.0553
   38MOL   H35815972   0.651   0.232   1.091  1.5024  0.5602 -0.7823
   38MOL   C35915973   0.717   7.153   1.355 -0.2556 -0.0932 -0.3977
   38MOL   C36015974   0.599   7.131   1.465  0.0654 -0.0830  0.5067
   38MOL   C36115975   0.610   6.998   1.538 -0.0953  0.6043 -0.2475
   38MOL   C36215976   0.541   6.892   1.450  0.1839  0.7680 -0.4761
   38MOL   C36315977   0.527   6.756   1.521  0.0076  0.0532  0.2966
   38MOL   C36415978   0.432   6.747   1.639  0.2771  0.3584 -0.1845
   38MOL   C36515979   0.291   6.787   1.595  0.2094 -0.4187  0.1851
   38MOL   H36615980   0.811   7.167   1.408 -0.5534 -0.9124  0.3703
   38MOL   H36715981   0.728   7.055   1.309  0.3965 -0.3739  0.3539
   38MOL   H36815982   0.503   7.142   1.415 -0.9108 -0.5998  2.2361
   38MOL   H36915983   0.713   6.963   1.544 -0.0510  0.3163 -2.2702
   38MOL   H37015984   0.567   6.998   1.638 -2.2691  0.9741 -1.1547
   38MOL   H37115985   0.443   6.928   1.420 -0.9171 -1.2137  0.5944
   38MOL   H37215986   0.589   6.866   1.356  0.7175  0.6987 -0.1873
   38MOL   H37315987   0.484   6.690   1.446 -0.9580 -0.9544  1.7224
   38MOL   H37415988   0.627   6.720   1.547 -0.0425  0.1467  0.6268
   38MOL   H37515989   0.407   6.643   1.658 -1.9580  0.7406 -0.8581
   38MOL   H37615990   0.459   6.805   1.728 -1.5624 -1.3166  1.5101
   38MOL   H37715991   0.268   6.736   1.502  0.0120  0.5647 -0.3117
   38MOL   H37815992   0.212   6.761   1.665 -1.6032  0.7052 -1.3927
   38MOL   H37915993   0.289   6.895   1.579  1.7115 -0.4655 -0.4344
   38MOL   C38015994   0.595   7.245   1.571 -0.1805 -0.1639  0.2153
   38MOL   C38115995   0.468   7.255   1.654  0.4497  0.2383  0.1049
   38MOL   C38215996   0.491   7.360   1.766 -0.0950  0.3726  0.0526
   38MOL   C38315997   0.579   7.307   1.880  0.6358 -0.3276  0.6095
   38MOL   C38415998   0.585   7.403   2.003  0.2942 -0.1578  1.1022
   38MOL   C38515999   0.646   7.336   2.127  0.2497 -0.4118 -0.1457
   38MOL   C38616000   0.650   7.410   2.259  0.4756  0.3420  0.2952
   38MOL   H38716001   0.689   7.233   1.625  0.1565 -0.7959 -0.5109
   38MOL   H38816002   0.608   7.341   1.522 -0.9541  1.5957  3.3209
   38MOL   H38916003   0.438   7.159   1.697 -0.8139  0.7888  0.4635
   38MOL   H39016004   0.397   7.382   1.816 -1.0658 -1.9283 -0.6604
   38MOL   H39116005   0.526   7.455   1.726 -0.9172  0.1900 -1.0955
   38MOL   H39216006   0.538   7.214   1.918  0.5943 -0.7164 -0.3891
   38MOL   H39316007   0.680   7.281   1.849  1.0261  0.2673  1.3557
   38MOL   H39416008   0.628   7.501   1.982  1.1018 -1.4980 -4.0465
   38MOL   H39516009   0.478   7.415   2.021 -0.0083 -0.8144 -0.1759
   38MOL   H39616010   0.750   7.337   2.092 -0.3518 -2.0933 -2.0467
   38MOL   H39716011   0.614   7.233   2.140 -1.7107  0.0429 -1.2583
   38MOL   H39816012   0.736   7.392   2.323 -1.0730  2.8077  3.2606
   38MOL   H39916013   0.554   7.406   2.310  0.9025 -2.1016  0.9571
   38MOL   H40016014   0.669   7.513   2.227  0.7342 -0.2935 -1.6403
   38MOL   C40116015   0.341   7.291   1.566 -0.0691  0.0147 -0.2427
   38MOL   C40216016   0.335   7.434   1.494  0.1580  0.2441  0.2752
   38MOL   C40316017   0.216   7.470   1.399 -0.0531  0.0267 -1.0239
   38MOL   C40416018   0.236   7.609   1.332  0.1741  0.1085  0.4002
   38MOL   C40516019   0.122   7.635   1.237 -0.4307  0.4308 -0.2980
   38MOL   C40616020   0.133   7.567   1.103 -0.1948 -0.0501  0.3936
   38MOL   C40716021   0.266   7.591   1.023 -0.4983 -0.2172 -0.2596
   38MOL   H40816022   0.272   7.299   1.650 -1.5928 -1.3401 -1.3334
   38MOL   H40916023   0.317   7.206   1.503  0.7503 -0.1533 -0.3430
   38MOL   H41016024   0.425   7.440   1.433 -0.2184  1.1576 -0.2051
   38MOL   H41116025   0.128   7.478   1.464  1.5237  0.5830  1.0813
   38MOL   H41216026   0.191   7.396   1.322  1.2153 -0.9186 -0.5363
   38MOL   H41316027   0.334   7.616   1.284  0.4913  0.1788  1.0585
   38MOL   H41416028   0.243   7.695   1.398  2.1918  0.5156 -0.2834
   38MOL   H41516029   0.028   7.599   1.279 -0.8301 -0.5549 -2.0256
   38MOL   H41616030   0.102   0.028   1.228 -2.4770  0.3496  2.3733
   38MOL   H41716031   0.107   7.461   1.101  1.5084 -0.4573 -2.1305
   38MOL   H41816032   0.063   7.617   1.036  1.0931 -2.8511 -3.2330
   38MOL   H41916033   0.352   7.528   1.046  0.2380  0.4554 -1.1094
   38MOL   H42016034   0.289   7.697   1.035  0.0233 -0.5157  1.4120
   38MOL   H42116035   0.243   7.564   0.920 -0.4422 -2.9085  0.3924
   38MOL   H42216036   0.346   7.515   1.566  0.3044 -0.7627  1.4062
   39MOL     C116037   4.745   2.366   4.127  0.0020  1.2258  0.4468
   39MOL     C216038   4.603   2.324   4.154 -0.0935  0.6998  0.4945
   39MOL     C316039   4.554   2.400   4.281 -0.7093 -0.0067 -0.4193
   39MOL     C416040   4.414   2.352   4.327  0.5051 -0.8278  0.0508
   39MOL     C516041   4.354   2.415   4.455 -0.0422 -0.4977  0.0568
   39MOL     C616042   4.253   2.335   4.526  0.2733 -0.2927 -0.3547
   39MOL     C716043   4.132   2.292   4.437 -0.0656 -1.5395  0.1267
   39MOL     H816044   4.755   2.474   4.116  1.5204  0.8115 -3.0089
   39MOL     H916045   4.788   2.331   4.033 -0.4424  2.0749 -0.0822
   39MOL    H1016046   4.542   2.353   4.069 -0.2367 -1.1032 -0.0509
   39MOL    H1116047   4.625   2.377   4.360 -2.5358 -1.8624  0.7281
   39MOL    H1216048   4.553   2.508   4.267  3.1831  0.5041  2.2928
   39MOL    H1316049   4.351   2.377   4.242  1.5828 -0.2474 -0.5950
   39MOL    H1416050   4.424   2.245   4.345  3.4080 -0.5289  0.4438
   39MOL    H1516051   4.326   2.520   4.442 -2.1749 -1.2109 -1.4196
   39MOL    H1616052   4.436   2.416   4.526 -2.0008  0.9940  2.3400
   39MOL    H1716053   4.210   2.391   4.609  0.9492 -1.4296  0.7803
   39MOL    H1816054   4.301   2.245   4.563  0.8565 -0.5593 -1.7137
   39MOL    H1916055   4.170   2.215   4.369  1.0214  1.4341 -2.7580
   39MOL    H2016056   4.097   2.374   4.375 -3.4259 -2.2579  0.9727
   39MOL    H2116057   4.044   2.267   4.496 -1.6410  1.8113 -0.6981
   39MOL    H2216058   4.818   2.332   4.201  1.0469 -0.2634 -1.2348
   39MOL    C2316059   4.595   2.167   4.155 -0.4470 -0.2243  0.0932
   39MOL    C2416060   4.624   2.097   4.025  0.0703  0.5809  0.0023
   39MOL    C2516061   4.514   2.134   3.919  0.8568 -0.1849  0.3764
   39MOL    C2616062   4.363   2.116   3.957  0.3544  0.1201 -0.6332
   39MOL    C2716063   4.259   2.128   3.846  0.0885 -0.8820  0.1517
   39MOL    C2816064   4.122   2.072   3.893  0.2959 -0.5712 -0.0047
   39MOL    C2916065   4.009   2.100   3.795  0.0350 -0.4583  0.4193
   39MOL    H3016066   4.661   2.132   4.234  0.0066  0.4442  0.0094
   39MOL    H3116067   4.495   2.132   4.180 -1.1397  2.2430  0.8566
   39MOL    H3216068   4.726   2.119   3.992  0.9402 -0.0567  2.1783
   39MOL    H3316069   4.542   2.089   3.824 -0.2415  2.2201 -1.1252
   39MOL    H3416070   4.521   2.239   3.891 -0.2108 -0.1853  0.0657
   39MOL    H3516071   4.340   2.199   4.024 -1.2097  0.1293 -1.1635
   39MOL    H3616072   4.346   2.032   4.023  0.8575  0.0923 -0.5390
   39MOL    H3716073   4.280   2.068   3.757  1.5901 -1.8141  1.1042
   39MOL    H3816074   4.240   2.231   3.816  0.0499 -0.7921  0.4857
   39MOL    H3916075   4.108   2.108   3.995 -0.7361  0.2519 -0.4290
   39MOL    H4016076   4.135   1.965   3.908 -0.0965 -0.8637 -1.7066
   39MOL    H4116077   3.924   2.040   3.829 -0.9124  0.3633 -0.4430
   39MOL    H4216078   3.981   2.205   3.807 -0.0388 -0.6450  2.0313
   39MOL    H4316079   4.029   2.067   3.693  1.0329  1.0968  0.0988
   39MOL    C4416080   4.631   1.944   4.054  0.0947  0.2955  0.6447
   39MOL    C4516081   4.683   1.848   3.935  0.1050 -0.4304  0.0399
   39MOL    C4616082   4.813   1.885   3.860 -0.1219 -0.8100 -0.5420
   39MOL    C4716083   4.941   1.911   3.940  0.2755  0.2848 -0.4332
   39MOL    C4816084   5.063   1.943   3.860 -0.5439 -0.2054  0.7429
   39MOL    C4916085   5.195   1.974   3.936 -0.8888 -0.1322 -0.2524
   39MOL    C5016086   5.183   2.095   4.034 -0.0044 -0.0005 -0.7566
   39MOL    H5116087   4.535   1.911   4.094 -0.3374  0.0424 -0.5468
   39MOL    H5216088   4.700   1.932   4.137  0.6294  0.1446  0.1833
   39MOL    H5316089   4.601   1.860   3.864  0.6081  1.9537 -0.2043
   39MOL    H5416090   4.785   1.978   3.810 -1.9500  0.4398  2.6451
   39MOL    H5516091   4.829   1.807   3.786  0.2646 -0.5022 -0.7871
   39MOL    H5616092   4.920   2.001   3.998 -0.4193 -1.8993  2.8132
   39MOL    H5716093   4.958   1.833   4.014  0.0409  0.6422  0.0043
   39MOL    H5816094   5.050   2.036   3.805 -1.9679 -0.8772 -0.1016
   39MOL    H5916095   5.088   1.872   3.781  2.1052  0.7392  0.6991
   39MOL    H6016096   5.269   1.994   3.858 -0.3951  0.6910  0.4189
   39MOL    H6116097   5.232   1.884   3.985  1.8562  1.0832  0.0034
   39MOL    H6216098   5.155   2.190   3.989  0.6792  0.9972  0.8735
   39MOL    H6316099   5.281   2.106   4.080 -0.0505 -0.2053 -0.6068
   39MOL    H6416100   5.113   2.073   4.115 -0.1946 -1.3191 -1.2604
   39MOL    C6516101   4.675   1.698   3.969 -0.6780 -0.5922 -0.9417
   39MOL    C6616102   4.578   1.623   3.877 -0.0354 -0.7646 -0.5934
   39MOL    C6716103   4.430   1.661   3.913 -1.2003  0.7584  0.0792
   39MOL    C6816104   4.345   1.681   3.794  0.3201  0.0832 -0.2206
   39MOL    C6916105   4.195   1.692   3.837 -1.3966  0.8588 -0.2041
   39MOL    C7016106   4.128   1.549   3.820  0.5571  0.9580  0.5504
   39MOL    C7116107   3.974   1.556   3.845 -0.0374  0.2657  0.3254
   39MOL    H7216108   4.781   1.671   3.963  0.0737  1.9425  0.1199
   39MOL    H7316109   4.644   1.683   4.072 -0.4248 -1.0624 -0.9308
   39MOL    H7416110   4.595   1.656   3.774  0.8316  0.0465 -0.1963
   39MOL    H7516111   4.377   1.578   3.959  0.0576  0.7130  1.5055
   39MOL    H7616112   4.424   1.740   3.987 -0.9672  0.0862  0.8164
   39MOL    H7716113   4.371   1.778   3.751 -0.0585  0.3237  0.0927
   39MOL    H7816114   4.364   1.612   3.712 -1.6600  0.8643 -1.3678
   39MOL    H7916115   4.195   1.727   3.940  2.1302 -0.7734  0.4064
   39MOL    H8016116   4.136   1.756   3.771  0.6895  1.9437 -1.0687
   39MOL    H8116117   4.174   1.473   3.883  0.0200 -0.1927 -0.4225
   39MOL    H8216118   4.140   1.509   3.719 -2.8190  0.8904  0.0965
   39MOL    H8316119   3.955   1.601   3.942  0.0736  2.5516 -0.6853
   39MOL    H8416120   3.924   1.624   3.776 -1.1582  1.2961  2.1168
   39MOL    H8516121   3.920   1.462   3.837  2.2711 -1.0907  0.3030
   39MOL    C8616122   4.601   1.472   3.868  0.3839  0.6045 -0.5793
   39MOL    C8716123   4.746   1.428   3.837 -0.0380 -0.9561  0.1402
   39MOL    C8816124   4.765   1.280   3.874 -0.0161  0.4530  0.4793
   39MOL    C8916125   4.759   1.225   4.021  0.0797 -0.4093  0.3027
   39MOL    C9016126   4.739   1.078   4.042 -0.4121  0.4098 -0.2012
   39MOL    C9116127   4.751   1.035   4.196 -0.6325  0.3133  0.2100
   39MOL    C9216128   4.880   1.073   4.270 -0.9020  0.2821  0.0353
   39MOL    H9316129   4.583   1.422   3.963 -0.2787 -3.3629 -2.7013
   39MOL    H9416130   4.530   1.432   3.795 -0.4408 -1.5552  1.3429
   39MOL    H9516131   4.825   1.478   3.892 -0.6565 -1.0761  1.1402
   39MOL    H9616132   4.692   1.220   3.819 -0.0754 -0.5442  1.6081
   39MOL    H9716133   4.860   1.240   3.839  0.1796 -0.1080  1.6225
   39MOL    H9816134   4.855   1.264   4.055 -0.5060  0.1388  1.3620
   39MOL    H9916135   4.692   1.283   4.084 -1.7914 -1.0901 -1.0216
   39MOL   H10016136   4.821   1.020   3.998  0.3476  0.3847  1.1840
   39MOL   H10116137   4.642   1.049   4.003 -1.2894 -0.8478  2.7634
   39MOL   H10216138   4.667   1.082   4.247 -0.9275  0.5306 -0.4782
   39MOL   H10316139   4.738   0.927   4.207 -1.7513  0.5900  1.9108
   39MOL   H10416140   4.967   1.029   4.222 -0.3516  0.5865  0.7553
   39MOL   H10516141   4.876   1.028   4.368 -0.2105  0.1998  0.0260
   39MOL   H10616142   4.886   1.182   4.273 -1.6458  0.3596 -0.8424
   39MOL   C10716143   4.778   1.444   3.681  0.5913 -0.5829 -0.4789
   39MOL   C10816144   4.924   1.438   3.620 -0.0793  0.3356 -0.0433
   39MOL   C10916145   4.907   1.420   3.461  0.5104 -0.2030 -0.2303
   39MOL   C11016146   4.872   1.277   3.428 -0.0451  0.8265 -0.5786
   39MOL   C11116147   4.889   1.261   3.281  0.5353  0.1413  0.4903
   39MOL   C11216148   4.837   1.120   3.235 -0.2667 -0.8442 -0.1054
   39MOL   C11316149   4.890   1.078   3.092  0.1526 -0.3146  0.0123
   39MOL   H11416150   4.751   1.547   3.655  1.2781 -0.6655 -1.5450
   39MOL   H11516151   4.714   1.382   3.619  0.1786  0.4241 -1.0682
   39MOL   H11616152   4.970   1.346   3.657  0.6296  0.0225 -1.6389
   39MOL   H11716153   5.004   1.449   3.422  0.8954  0.4891  1.2005
   39MOL   H11816154   4.834   1.495   3.432  0.0071  0.6172  2.9280
   39MOL   H11916155   4.941   1.209   3.478 -0.3497  1.4366  0.6796
   39MOL   H12016156   4.777   1.229   3.451  0.2999 -0.2948 -1.4598
   39MOL   H12116157   4.993   1.274   3.249  0.6841 -0.1082  0.8645
   39MOL   H12216158   4.839   1.335   3.220 -0.4430 -0.9272 -0.0275
   39MOL   H12316159   4.869   1.036   3.297 -0.1387 -0.5969  0.1645
   39MOL   H12416160   4.728   1.116   3.233 -0.3330  0.0854  1.3728
   39MOL   H12516161   4.997   1.096   3.083  0.1594 -0.4352 -0.1627
   39MOL   H12616162   4.886   0.971   3.072  1.6919 -0.0412 -1.9646
   39MOL   H12716163   4.835   1.134   3.016  0.4530  2.7273  1.9477
   39MOL   C12816164   5.020   1.558   3.653 -0.0631  0.3202 -0.2206
   39MOL   C12916165   5.171   1.526   3.632  0.5877 -0.0450  0.0885
   39MOL   C13016166   5.251   1.494   3.762  0.4336 -0.2513  0.2833
   39MOL   C13116167   5.197   1.361   3.833  0.4051  0.6027 -0.2511
   39MOL   C13216168   5.274   1.306   3.951 -0.1076 -0.3182 -0.1558
   39MOL   C13316169   5.198   1.199   4.021  0.6885  0.2100  0.9156
   39MOL   C13416170   5.265   1.159   4.146 -0.4412  0.2113  0.7148
   39MOL   H13516171   4.981   1.644   3.598  0.6362 -0.2773 -1.6947
   39MOL   H13616172   5.011   1.588   3.757 -0.5021  1.0648 -0.4663
   39MOL   H13716173   5.184   1.429   3.583  2.4348  0.7897 -1.1397
   39MOL   H13816174   5.252   1.580   3.829  0.9780 -0.6859  0.8486
   39MOL   H13916175   5.353   1.464   3.739  0.7708  0.9899  0.1275
   39MOL   H14016176   5.192   1.275   3.766 -2.9289 -0.5100  1.2883
   39MOL   H14116177   5.093   1.377   3.862 -0.2629 -0.6243 -1.8643
   39MOL   H14216178   5.293   1.382   4.028  0.2133 -1.0030  0.4438
   39MOL   H14316179   5.369   1.266   3.917  0.3751 -2.1458  3.1517
   39MOL   H14416180   5.172   1.114   3.957 -1.3755 -0.5445  2.6508
   39MOL   H14516181   5.101   1.230   4.060 -0.6253 -0.8673 -1.4156
   39MOL   H14616182   5.364   1.119   4.124 -0.8044 -0.8324  0.9388
   39MOL   H14716183   5.212   1.092   4.214  0.3409 -1.5142 -0.3523
   39MOL   H14816184   5.269   1.241   4.218  0.6461  1.6635 -0.9576
   39MOL   C14916185   5.252   1.630   3.556  0.0090 -0.3230  0.2233
   39MOL   C15016186   5.217   1.661   3.410  0.3059 -0.1257  0.2098
   39MOL   C15116187   5.244   1.548   3.316  0.8130  0.1034  0.5695
   39MOL   C15216188   5.186   1.532   3.176  0.8387 -0.7120 -0.3483
   39MOL   C15316189   5.237   1.408   3.105 -0.2594 -0.1965  0.1343
   39MOL   C15416190   5.192   1.382   2.961 -0.2136 -0.3247  0.0075
   39MOL   C15516191   5.239   1.487   2.855 -0.0125 -0.2990  0.2491
   39MOL   H15616192   5.258   1.725   3.608 -2.3413 -0.5058  0.8989
   39MOL   H15716193   5.354   1.593   3.544  0.8163  1.7613  0.5420
   39MOL   H15816194   5.111   1.683   3.397  0.4565  0.6325  0.2526
   39MOL   H15916195   5.352   1.546   3.301  0.6748  2.3175 -0.8746
   39MOL   H16016196   5.218   1.452   3.362  0.5201 -0.7108 -1.2360
   39MOL   H16116197   5.202   1.619   3.112 -0.7328  2.2242  3.0879
   39MOL   H16216198   5.077   1.524   3.180  0.7686  0.1638 -0.4170
   39MOL   H16316199   5.215   1.324   3.170  0.2432  0.2758  0.9236
   39MOL   H16416200   5.346   1.422   3.109 -0.3805  1.4734 -1.5964
   39MOL   H16516201   5.084   1.393   2.966 -0.5388 -1.7982 -2.8025
   39MOL   H16616202   5.211   1.287   2.911 -1.2375 -0.0522 -0.9231
   39MOL   H16716203   5.347   1.496   2.863  0.1955 -0.5277 -2.0350
   39MOL   H16816204   5.203   1.589   2.864 -0.8139 -0.5465 -0.0862
   39MOL   H16916205   5.209   1.447   2.758 -1.4231 -1.3921  1.1006
   39MOL   C17016206   5.285   1.789   3.353 -0.8636 -0.4625 -0.4809
   39MOL   C17116207   5.218   1.916   3.403  0.0243 -0.1841 -0.0691
   39MOL   C17216208   5.322   1.997   3.481 -0.3074  0.3532 -0.2707
   39MOL   C17316209   5.267   2.129   3.545  0.0046 -0.4372 -0.3144
   39MOL   C17416210   5.374   2.187   3.637 -0.2302  0.1189  0.3668
   39MOL   C17516211   5.327   2.306   3.720 -0.3064 -0.6623 -0.4709
   39MOL   C17616212   5.441   2.359   3.803  0.0617  0.2425  0.7164
   39MOL   H17716213   5.285   1.775   3.245  0.5989  0.9652 -0.6814
   39MOL   H17816214   5.392   1.792   3.372 -0.7007  0.3196 -1.4651
   39MOL   H17916215   5.139   1.881   3.470 -0.1212 -5.1227 -2.5878
   39MOL   H18016216   5.400   2.020   3.408 -1.7030  1.3152 -1.4937
   39MOL   H18116217   5.359   1.922   3.551  0.1656  1.2621  0.4730
   39MOL   H18216218   5.178   2.097   3.599  2.1618 -3.3574  1.7283
   39MOL   H18316219   5.237   2.205   3.474 -0.1298 -1.0682 -0.9415
   39MOL   H18416220   5.464   2.218   3.583 -0.5376 -1.2945 -0.9858
   39MOL   H18516221   5.410   2.103   3.698  1.1351 -0.2984 -0.9835
   39MOL   H18616222   5.245   2.283   3.789 -0.3851  2.1829  0.4585
   39MOL   H18716223   5.288   2.389   3.662  0.6330 -0.6327 -1.0614
   39MOL   H18816224   5.519   2.387   3.732 -0.1707  0.3426  0.4979
   39MOL   H18916225   5.487   2.286   3.870  1.5868 -0.5172 -1.1131
   39MOL   H19016226   5.421   2.452   3.857 -1.3462 -0.8139  2.0691
   39MOL   C19116227   5.152   2.002   3.291 -0.4331 -0.1230 -0.3373
   39MOL   C19216228   5.011   1.963   3.244 -0.6576 -0.7837  0.4490
   39MOL   C19316229   4.908   1.999   3.351  0.0387  0.2837 -0.4674
   39MOL   C19416230   4.789   1.902   3.342  0.8596  0.4576 -0.1996
   39MOL   C19516231   4.665   1.919   3.439 -0.0810 -0.1092  0.0954
   39MOL   C19616232   4.587   2.052   3.434  0.4203 -0.6222 -0.1189
   39MOL   C19716233   4.454   2.035   3.507 -0.6073  0.1469  0.5409
   39MOL   H19816234   5.217   2.001   3.203 -0.5275 -1.2029 -0.4092
   39MOL   H19916235   5.137   2.101   3.334 -2.8134  0.6192 -2.7097
   39MOL   H20016236   5.009   1.854   3.233 -1.1629 -0.5198 -2.8351
   39MOL   H20116237   4.887   2.105   3.336  1.5599  0.9301  1.7252
   39MOL   H20216238   4.941   1.996   3.455 -0.4769  1.4409 -0.2648
   39MOL   H20316239   4.821   1.801   3.365 -2.5267 -0.4599  0.6918
   39MOL   H20416240   4.757   1.891   3.238  0.3177 -0.4801  0.0595
   39MOL   H20516241   4.595   1.837   3.422 -1.5125  1.3215 -1.0100
   39MOL   H20616242   4.694   1.896   3.542  1.1658 -0.7168 -0.3797
   39MOL   H20716243   4.565   2.077   3.330  0.2896 -2.0406 -0.4432
   39MOL   H20816244   4.640   2.137   3.476 -0.8930  0.9016 -1.4466
   39MOL   H20916245   4.406   2.133   3.499  1.0309  0.9409  0.1738
   39MOL   H21016246   4.470   2.007   3.611 -0.2850  0.6235  0.6223
   39MOL   H21116247   4.388   1.957   3.468  0.9208 -0.2741 -1.2638
   39MOL   C21216248   4.961   2.018   3.103  0.4686 -0.6170  0.1033
   39MOL   C21316249   5.021   1.970   2.966  0.2167 -0.0134 -0.2529
   39MOL   C21416250   4.988   1.818   2.945 -0.2873  0.7379  0.9117
   39MOL   C21516251   4.840   1.789   2.916 -0.5060  0.7541 -0.0257
   39MOL   C21616252   4.809   1.638   2.945  0.3364 -0.0125 -0.4453
   39MOL   C21716253   4.660   1.602   2.944 -0.5111 -0.0930 -0.5699
   39MOL   C21816254   4.630   1.465   3.002 -0.5303 -1.1405 -0.1619
   39MOL   H21916255   4.990   2.123   3.114  3.7959 -1.7066  2.9149
   39MOL   H22016256   4.854   2.033   3.092  0.5346 -0.4922 -0.3977
   39MOL   H22116257   5.129   1.965   2.983  0.0269 -1.4426  0.6029
   39MOL   H22216258   5.050   1.781   2.863 -0.5631 -1.1994  1.5511
   39MOL   H22316259   5.015   1.771   3.039  1.5007  0.5875  0.3414
   39MOL   H22416260   4.828   1.808   2.809 -0.4522 -1.7481 -0.5018
   39MOL   H22516261   4.775   1.860   2.968 -0.8803 -0.2828  0.9332
   39MOL   H22616262   4.877   1.570   2.893 -0.2938 -0.6290 -0.4629
   39MOL   H22716263   4.836   1.624   3.050 -0.1242 -1.0462 -0.4594
   39MOL   H22816264   4.611   1.681   3.000 -0.5376 -0.1115 -0.5672
   39MOL   H22916265   4.616   1.604   2.844  0.9431  0.7362 -1.2201
   39MOL   H23016266   4.525   1.436   2.996 -1.0018  0.9597 -3.2836
   39MOL   H23116267   4.664   1.456   3.105 -0.2809  3.1933  0.2154
   39MOL   H23216268   4.681   1.383   2.951  1.8531 -0.9175  1.7898
   39MOL   C23316269   4.975   2.068   2.843  0.4543 -0.0986 -1.1450
   39MOL   C23416270   5.027   2.030   2.703  0.0077 -0.3745 -0.2780
   39MOL   C23516271   4.950   2.103   2.596 -0.0289 -0.3152  0.1273
   39MOL   C23616272   4.813   2.049   2.566 -0.0717 -0.2545 -0.2309
   39MOL   C23716273   4.832   1.928   2.475 -0.1588  0.4590  0.2486
   39MOL   C23816274   4.708   1.863   2.417 -0.9035  0.5884 -0.9160
   39MOL   C23916275   4.742   1.763   2.308 -0.1809 -0.8782 -0.3320
   39MOL   H24016276   5.018   2.165   2.867 -2.5943  0.7718  1.2092
   39MOL   H24116277   4.871   2.100   2.841  0.7156  0.7661 -0.9138
   39MOL   H24216278   5.012   1.922   2.696 -0.3987 -0.3371 -0.0090
   39MOL   H24316279   5.005   2.098   2.503 -0.3447 -1.5345  0.0016
   39MOL   H24416280   4.924   2.205   2.625  0.5575 -0.0184 -0.3851
   39MOL   H24516281   4.750   2.128   2.525 -1.6118 -0.0523  2.3986
   39MOL   H24616282   4.772   2.006   2.657  2.7454 -0.6576  0.9088
   39MOL   H24716283   4.875   1.845   2.532  0.1096 -0.0670 -0.7105
   39MOL   H24816284   4.900   1.952   2.393  0.3921 -0.9677  0.2767
   39MOL   H24916285   4.658   1.805   2.495  0.1354  1.2522  0.2630
   39MOL   H25016286   4.635   1.935   2.379  0.0312  2.7415  1.2189
   39MOL   H25116287   4.811   1.690   2.350 -1.1969 -1.4768  0.3002
   39MOL   H25216288   4.659   1.706   2.266 -0.1759  1.4312 -3.6488
   39MOL   H25316289   4.786   1.809   2.219  2.3382 -2.4517  0.0506
   39MOL   C25416290   5.180   2.067   2.683  0.7272  0.4351 -0.3880
   39MOL   C25516291   5.266   2.014   2.560  0.3910 -0.0946  0.4657
   39MOL   C25616292   5.266   1.859   2.570 -0.1372 -0.1389 -0.1538
   39MOL   C25716293   5.211   1.796   2.448 -0.0341 -0.4499  0.1232
   39MOL   C25816294   5.163   1.649   2.470  0.1699  0.3737 -0.2644
   39MOL   C25916295   5.270   1.538   2.483 -0.1036  0.1714  0.4194
   39MOL   C26016296   5.215   1.400   2.467  0.4774  0.1675 -0.0722
   39MOL   H26116297   5.228   2.048   2.779 -2.8369  0.6301  1.5206
   39MOL   H26216298   5.176   2.175   2.667  3.8483  0.5527 -0.6228
   39MOL   H26316299   5.216   2.043   2.468  1.2413  0.7400  0.2646
   39MOL   H26416300   5.216   1.818   2.658  0.8979 -0.7604  0.1523
   39MOL   H26516301   5.372   1.838   2.578 -0.2018 -0.6995 -0.7527
   39MOL   H26616302   5.126   1.853   2.413  0.1079  0.0540  0.6034
   39MOL   H26716303   5.279   1.797   2.362 -1.0797  1.6076 -0.6826
   39MOL   H26816304   5.083   1.638   2.397  0.1507  0.9367 -0.3264
   39MOL   H26916305   5.102   1.653   2.561  0.5927 -0.8997  0.0867
   39MOL   H27016306   5.358   1.544   2.419 -0.7454  0.2897 -0.4618
   39MOL   H27116307   5.307   1.542   2.585  1.1210  0.9143 -0.0437
   39MOL   H27216308   5.298   1.330   2.479  1.0964  0.2254 -3.4574
   39MOL   H27316309   5.136   1.389   2.541  0.9831  2.8319  0.9236
   39MOL   H27416310   5.173   1.378   2.368  1.0682  2.6885 -0.9225
   39MOL   C27516311   5.407   2.075   2.552 -0.3872 -0.0136  0.7973
   39MOL   C27616312   5.429   2.222   2.505  0.6210  0.0357  1.0732
   39MOL   C27716313   5.400   2.247   2.354  0.2300 -0.6179 -0.0258
   39MOL   C27816314   5.505   2.192   2.254  0.3305 -1.0758  0.0293
   39MOL   C27916315   5.485   2.218   2.107  0.1638  0.2622  0.4817
   39MOL   C28016316   5.488   2.368   2.087  0.2942 -0.0278 -0.3681
   39MOL   C28116317   5.475   2.415   1.945 -0.2994 -0.5489  0.4845
   39MOL   H28216318   5.467   2.001   2.499 -1.7346  0.5901 -1.6575
   39MOL   H28316319   5.441   2.080   2.655 -1.2186  0.1621  1.0692
   39MOL   H28416320   5.362   2.291   2.557 -2.2733 -0.6492 -1.6242
   39MOL   H28516321   5.298   2.215   2.331 -0.2835  1.2042 -0.3552
   39MOL   H28616322   5.395   2.355   2.344 -0.4682 -0.4294  2.0563
   39MOL   H28716323   5.512   2.084   2.260 -0.2261 -1.2168 -1.6843
   39MOL   H28816324   5.602   2.221   2.293  0.6344 -0.8291 -0.8890
   39MOL   H28916325   5.390   2.177   2.072  0.3278  1.5256 -1.5851
   39MOL   H29016326   5.560   2.159   2.054 -1.4822 -1.4566  0.0046
   39MOL   H29116327   5.400   2.418   2.129 -0.0470  0.2615 -1.4060
   39MOL   H29216328   5.581   2.405   2.128  0.1774  0.0077 -0.1349
   39MOL   H29316329   5.385   2.375   1.897 -0.5101  2.0544 -1.3778
   39MOL   H29416330   5.565   2.401   1.886  1.5992  0.2707  3.1107
   39MOL   H29516331   5.459   2.522   1.943  1.8282 -0.2303 -1.1129
   39MOL   C29616332   5.570   2.262   2.555 -0.9127  0.5491  0.1727
   39MOL   C29716333   5.613   2.406   2.526  0.1862  0.4143  0.2006
   39MOL   C29816334   5.769   2.421   2.523  0.5642  0.3070  0.3133
   39MOL   C29916335   5.827   2.401   2.660 -0.3473  0.2771 -0.1074
   39MOL   C30016336   5.985   2.402   2.666 -1.1419  0.4874  0.2021
   39MOL   C30116337   6.027   2.438   2.807  0.4690 -0.0257  0.1767
   39MOL   C30216338   6.174   2.421   2.829  0.3737  0.6205  0.5067
   39MOL   H30316339   5.582   2.250   2.662  0.1482 -1.1741 -0.1319
   39MOL   H30416340   5.633   2.183   2.515  0.7612  2.7377 -1.6245
   39MOL   H30516341   5.587   2.422   2.421 -2.5359 -0.0859  0.7781
   39MOL   H30616342   5.818   2.350   2.456  0.3941  0.8964 -0.4567
   39MOL   H30716343   5.797   2.520   2.484 -2.8327  1.8054  1.5025
   39MOL   H30816344   5.789   2.310   2.706  0.6029 -0.1181 -0.0989
   39MOL   H30916345   5.777   2.472   2.725 -2.7703 -0.8949 -0.6056
   39MOL   H31016346   6.037   2.466   2.595  0.3863 -2.0994 -1.0699
   39MOL   H31116347   6.021   2.302   2.643 -1.0896  0.3873  0.7093
   39MOL   H31216348   5.996   2.541   2.820 -2.3556 -0.7040 -0.8832
   39MOL   H31316349   5.961   2.391   2.880  0.9175  0.8717  1.1696
   39MOL   H31416350   6.209   2.324   2.792 -3.8776 -0.8712  0.1172
   39MOL   H31516351   6.226   2.502   2.778 -0.6125  1.4076  0.7421
   39MOL   H31616352   6.204   2.420   2.934 -0.4830 -0.9064  0.7523
   39MOL   C31716353   5.543   2.508   2.620  0.2008  0.4234  0.1311
   39MOL   C31816354   5.565   2.658   2.595 -0.2821 -0.3893  0.5405
   39MOL   C31916355   5.541   2.709   2.455  0.3453 -0.4948 -0.0101
   39MOL   C32016356   5.402   2.678   2.395  0.3530  0.2460  0.0556
   39MOL   C32116357   5.391   2.720   2.245  0.2552 -0.1839  0.6416
   39MOL   C32216358   5.249   2.719   2.203  0.6441  0.0331  0.2273
   39MOL   C32316359   5.228   2.768   2.063 -0.1968 -0.3505 -0.4658
   39MOL   H32416360   5.557   2.482   2.725  2.9133  1.5127  0.0954
   39MOL   H32516361   5.438   2.490   2.600  0.5790 -0.9391 -0.7431
   39MOL   H32616362   5.669   2.681   2.616 -0.4732  0.0073  1.0801
   39MOL   H32716363   5.614   2.663   2.388  1.9113 -0.3862  1.5891
   39MOL   H32816364   5.560   2.813   2.431 -1.7465  0.3040  1.6230
   39MOL   H32916365   5.334   2.736   2.459  1.3686  0.3261  1.0870
   39MOL   H33016366   5.375   2.573   2.404 -0.9546  0.5175 -0.5092
   39MOL   H33116367   5.460   2.663   2.183  0.2156  1.5025 -0.9989
   39MOL   H33216368   5.421   2.824   2.234 -1.8776  0.6027  1.8507
   39MOL   H33316369   5.200   2.788   2.271  1.8311 -0.6825  1.8576
   39MOL   H33416370   5.204   2.620   2.212 -2.6261  1.1720 -2.4703
   39MOL   H33516371   5.277   2.865   2.061 -1.3696  0.2229 -2.3717
   39MOL   H33616372   5.125   2.765   2.029  0.6966  0.1681 -3.3470
   39MOL   H33716373   5.283   2.697   2.001  0.2847  0.2811 -0.7665
   39MOL   C33816374   5.478   2.733   2.704 -0.5420 -0.1060  0.1044
   39MOL   C33916375   5.520   2.881   2.735  0.4735 -0.5732  0.2213
   39MOL   C34016376   5.633   2.889   2.836 -0.0147 -0.4619 -0.2553
   39MOL   C34116377   5.776   2.838   2.797  0.7206  0.2902  0.4692
   39MOL   C34216378   5.830   2.898   2.668 -0.4033 -0.0491 -0.1354
   39MOL   C34316379   5.930   2.812   2.593 -0.8222  0.1872 -0.0128
   39MOL   C34416380   6.068   2.807   2.658  0.1011  0.1660 -0.1571
   39MOL   H34516381   5.481   2.681   2.800 -0.1174  1.4814  0.9617
   39MOL   H34616382   5.375   2.715   2.675 -0.6248 -1.1951  1.0718
   39MOL   H34716383   5.546   2.932   2.642 -1.2412  0.9823  0.5856
   39MOL   H34816384   5.647   2.992   2.867 -1.2244 -0.1376 -0.7419
   39MOL   H34916385   5.609   2.835   2.928  0.3054  2.7601  1.8067
   39MOL   H35016386   5.760   2.731   2.801 -1.0895  0.5908  1.9334
   39MOL   H35116387   5.846   2.850   2.880  0.8535 -2.4209  0.7897
   39MOL   H35216388   5.747   2.915   2.599 -0.2288 -0.6067 -0.4866
   39MOL   H35316389   5.871   2.997   2.688 -0.3490 -0.0122 -0.4290
   39MOL   H35416390   5.889   2.712   2.576  1.0936  0.0579 -4.6401
   39MOL   H35516391   5.933   2.851   2.491  0.7878  1.3678  0.4729
   39MOL   H35616392   6.113   2.709   2.646  2.3956  1.0708  0.8434
   39MOL   H35716393   6.054   2.832   2.763  0.7322 -0.7977  0.1546
   39MOL   H35816394   6.141   2.879   2.621  1.5318 -1.0634  0.2019
   39MOL   C35916395   5.399   2.951   2.791  0.0636  0.0408 -0.3465
   39MOL   C36016396   5.412   3.103   2.828  0.6528  0.0138  0.6867
   39MOL   C36116397   5.494   3.184   2.726  0.0498  0.1124  0.2824
   39MOL   C36216398   5.527   3.331   2.766 -0.8129 -0.1873 -0.2167
   39MOL   C36316399   5.632   3.398   2.674  0.1280 -0.2683  0.2852
   39MOL   C36416400   5.573   3.486   2.564 -0.0665 -1.1340  0.2847
   39MOL   C36516401   5.687   3.553   2.481  0.2762  0.6742  0.2935
   39MOL   H36616402   5.362   2.892   2.875 -2.7276  2.2129  0.0201
   39MOL   H36716403   5.333   2.938   2.705  0.8577 -0.0992 -0.9354
   39MOL   H36816404   5.465   3.113   2.922 -0.7646  0.0993  1.5012
   39MOL   H36916405   5.589   3.134   2.707  0.0400  0.2192 -0.0566
   39MOL   H37016406   5.435   3.186   2.635 -0.9024  1.4363  0.9227
   39MOL   H37116407   5.443   3.402   2.766 -1.8524 -1.3937 -0.6298
   39MOL   H37216408   5.564   3.334   2.868 -1.8752  0.8362  0.1580
   39MOL   H37316409   5.716   3.440   2.731  1.1126 -1.0741 -0.5427
   39MOL   H37416410   5.674   3.315   2.617 -1.8258  0.0219 -1.6435
   39MOL   H37516411   5.504   3.424   2.508 -0.8991  0.4881 -0.5195
   39MOL   H37616412   5.508   3.567   2.597  0.9797 -0.3455  0.4460
   39MOL   H37716413   5.650   3.595   2.387  1.4222  0.2423 -0.3670
   39MOL   H37816414   5.730   3.633   2.541 -3.0436  2.5219  0.3657
   39MOL   H37916415   5.771   3.488   2.458 -1.3238 -2.3025  2.5138
   39MOL   C38016416   5.269   3.152   2.862  0.5884  0.3184 -0.3836
   39MOL   C38116417   5.241   3.171   3.017 -0.4867 -0.1454  0.3808
   39MOL   C38216418   5.183   3.304   3.055 -0.0433 -0.0046  0.1892
   39MOL   C38316419   5.278   3.421   3.028  0.4935 -0.0115  1.0563
   39MOL   C38416420   5.258   3.543   3.120  0.0867 -0.9835 -0.0494
   39MOL   C38516421   5.357   3.645   3.094 -0.7693  0.0234 -0.6362
   39MOL   C38616422   5.340   3.768   3.183  0.6684 -0.7058  0.3935
   39MOL   H38716423   5.254   3.249   2.815  1.1359  0.9867  0.7935
   39MOL   H38816424   5.193   3.090   2.815  0.9088  0.2445 -0.8091
   39MOL   H38916425   5.332   3.161   3.075 -0.3330  0.3647  0.2342
   39MOL   H39016426   5.181   3.298   3.164 -0.7566  0.7414  0.2181
   39MOL   H39116427   5.086   3.327   3.011 -0.4016 -0.2538  0.8443
   39MOL   H39216428   5.382   3.390   3.043  0.1478 -1.3955  0.6727
   39MOL   H39316429   5.263   3.451   2.925 -0.9852  1.5456  1.6978
   39MOL   H39416430   5.158   3.583   3.115  0.3704 -0.0246  1.5603
   39MOL   H39516431   5.273   3.512   3.224  0.8723 -0.8947 -0.1270
   39MOL   H39616432   5.362   3.679   2.990 -0.0285 -0.2026 -0.6799
   39MOL   H39716433   5.458   3.608   3.114 -0.6994  0.1253 -0.7999
   39MOL   H39816434   5.436   3.821   3.180  0.1993  0.1439  0.2264
   39MOL   H39916435   5.324   3.737   3.286  1.2393 -1.9477  0.1203
   39MOL   H40016436   5.261   3.839   3.161  1.7620  0.1130 -1.0369
   39MOL   C40116437   5.161   3.055   3.078 -0.4337  0.0624  0.0432
   39MOL   C40216438   5.015   3.044   3.048  0.3122  0.5645  0.7169
   39MOL   C40316439   4.949   2.924   3.117  0.4221  0.0575  0.1970
   39MOL   C40416440   4.808   2.907   3.068 -0.1182  0.1925 -0.1674
   39MOL   C40516441   4.788   2.829   2.937 -0.0325  0.2004 -0.2579
   39MOL   C40616442   4.647   2.803   2.902 -0.2321  0.1497 -0.2139
   39MOL   C40716443   4.623   2.720   2.768 -0.3544  0.5251  0.7995
   39MOL   H40816444   5.180   3.062   3.185  0.8472  0.4485 -0.2079
   39MOL   H40916445   5.201   2.958   3.049 -1.9760 -0.6245  0.1207
   39MOL   H41016446   5.001   3.048   2.940 -1.1728 -1.1523  0.8289
   39MOL   H41116447   4.957   2.931   3.225 -1.1490 -0.0617  0.3322
   39MOL   H41216448   4.995   2.826   3.103  0.8254  0.1944  0.5492
   39MOL   H41316449   4.752   3.000   3.077 -0.6081 -0.0856 -0.3212
   39MOL   H41416450   4.764   2.846   3.146  0.1338  0.3268  0.0826
   39MOL   H41516451   4.833   2.877   2.850 -1.9859  0.7771 -0.9819
   39MOL   H41616452   4.840   2.734   2.952 -0.8407 -0.2504 -0.2444
   39MOL   H41716453   4.604   2.745   2.984  0.0739  0.6259  0.2881
   39MOL   H41816454   4.588   2.893   2.892 -1.6662 -0.9197 -1.6042
   39MOL   H41916455   4.679   2.627   2.773 -2.0565 -0.4582  2.0348
   39MOL   H42016456   4.647   2.771   2.675 -0.1598 -0.4904  0.2862
   39MOL   H42116457   4.520   2.688   2.760 -0.4837  1.0614  0.2511
   39MOL   H42216458   4.966   3.132   3.091 -1.2105 -0.5465  1.2661
   40MOL     C116459   4.370   2.808   6.222 -0.4476 -0.4881 -0.2723
   40MOL     C216460   4.496   2.771   6.140 -0.0936  0.3598  0.8176
   40MOL     C316461   4.474   2.666   6.024  0.0431  0.1749 -0.2483
   40MOL     C416462   4.453   2.523   6.082  0.2812  0.1873 -0.1315
   40MOL     C516463   4.406   2.437   5.961  0.2867  0.5051 -0.5508
   40MOL     C616464   4.516   2.418   5.852  0.3457 -0.6606  0.1304
   40MOL     C716465   4.483   2.302   5.761 -0.2141  0.0341 -0.5934
   40MOL     H816466   4.396   2.902   6.272 -1.6976  1.6554 -3.4809
   40MOL     H916467   4.361   2.737   6.304  2.1481 -0.1047  0.3706
   40MOL    H1016468   4.515   2.866   6.090 -0.4155 -1.0462 -2.0869
   40MOL    H1116469   4.380   2.699   5.980 -1.2715  0.3878  2.6069
   40MOL    H1216470   4.562   2.665   5.960 -0.3873  1.3042 -0.8767
   40MOL    H1316471   4.546   2.484   6.124  1.7922  1.6800 -2.0416
   40MOL    H1416472   4.377   2.531   6.160  0.3388  0.0429 -0.0600
   40MOL    H1516473   4.315   2.467   5.909  0.7611  0.3932 -1.4629
   40MOL    H1616474   4.382   2.338   5.999  2.9119 -0.1030 -0.4080
   40MOL    H1716475   4.616   2.404   5.892  0.2789  0.5498  0.7588
   40MOL    H1816476   4.525   2.506   5.789  1.4856  0.0986  1.3225
   40MOL    H1916477   4.576   2.279   5.708  0.3047  2.5115 -0.8002
   40MOL    H2016478   4.420   2.345   5.683 -0.7158 -1.5243 -1.0657
   40MOL    H2116479   4.440   2.214   5.809  0.2503 -1.7341 -3.3286
   40MOL    H2216480   4.284   2.832   6.160 -1.1249 -2.1818 -0.0056
   40MOL    C2316481   4.613   2.733   6.233  0.1982  0.1674  0.0393
   40MOL    C2416482   4.752   2.722   6.169  0.3104 -0.0726 -0.5024
   40MOL    C2516483   4.850   2.662   6.277 -0.3345  0.0439 -0.4777
   40MOL    C2616484   4.888   2.740   6.399 -0.1128  0.4182 -0.1738
   40MOL    C2716485   4.927   2.648   6.517  0.0674  0.0587 -0.1676
   40MOL    C2816486   4.938   2.729   6.646 -0.8373 -0.1616 -0.1852
   40MOL    C2916487   5.041   2.839   6.635 -0.7585 -0.3453 -0.5700
   40MOL    H3016488   4.622   2.814   6.306 -0.8152  1.2050 -0.9584
   40MOL    H3116489   4.581   2.648   6.292  0.3193  1.5116  2.1068
   40MOL    H3216490   4.742   2.654   6.085 -0.9372  0.6839 -0.9779
   40MOL    H3316491   4.940   2.631   6.224 -0.2473  0.6237 -0.6651
   40MOL    H3416492   4.814   2.567   6.318  2.5233 -0.5118  0.8948
   40MOL    H3516493   4.806   2.803   6.432  0.4291  1.3544 -0.5603
   40MOL    H3616494   4.973   2.808   6.387 -0.0980  0.7105  1.5351
   40MOL    H3716495   5.023   2.609   6.483 -0.9344 -0.8751 -2.0279
   40MOL    H3816496   4.868   2.556   6.527 -1.7022  0.8230 -2.9307
   40MOL    H3916497   4.976   2.667   6.726  1.1703  1.7049  0.3561
   40MOL    H4016498   4.838   2.766   6.669  0.2826  2.3383  0.8586
   40MOL    H4116499   4.998   2.923   6.580 -2.4404 -0.2888  0.7967
   40MOL    H4216500   5.073   2.878   6.732 -0.4153 -0.9031 -0.4619
   40MOL    H4316501   5.126   2.806   6.576  0.6883  2.1396  0.0392
   40MOL    C4416502   4.816   2.849   6.099  0.2322  0.2587 -0.1634
   40MOL    C4516503   4.914   2.812   5.982  0.4399 -0.2192  0.2385
   40MOL    C4616504   4.846   2.784   5.854  0.1462  0.0591  0.4668
   40MOL    C4716505   4.892   2.659   5.773 -0.0646 -0.1567  0.3246
   40MOL    C4816506   4.786   2.611   5.668  0.3171  0.0237  0.2943
   40MOL    C4916507   4.811   2.478   5.604 -0.2924  0.0551 -0.5372
   40MOL    C5016508   4.693   2.443   5.511  0.3497  0.2648  0.4373
   40MOL    H5116509   4.874   2.904   6.173  1.5432 -0.8731 -0.3322
   40MOL    H5216510   4.736   2.912   6.060 -1.2999 -1.8989 -0.5915
   40MOL    H5316511   4.952   2.716   6.014  0.7619 -0.1952 -0.0673
   40MOL    H5416512   4.842   2.866   5.782  0.4001 -1.4405 -1.2690
   40MOL    H5516513   4.746   2.753   5.885 -0.0363 -0.2389 -0.4082
   40MOL    H5616514   4.995   2.667   5.738  0.0893 -0.0468  0.7958
   40MOL    H5716515   4.888   2.574   5.842 -1.0527 -1.2715 -1.0991
   40MOL    H5816516   4.789   2.689   5.591  2.6533  0.2940  0.6456
   40MOL    H5916517   4.694   2.610   5.727 -0.6974  0.0017 -1.2616
   40MOL    H6016518   4.825   2.410   5.688 -0.3433  3.3306  2.2581
   40MOL    H6116519   4.905   2.487   5.550 -0.0275 -2.5574 -0.5297
   40MOL    H6216520   4.687   2.508   5.423 -0.2501 -0.9596 -0.4542
   40MOL    H6316521   4.600   2.464   5.564 -0.6767  1.9847 -1.9473
   40MOL    H6416522   4.695   2.341   5.471 -0.0549  0.0931  0.8599
   40MOL    C6516523   5.035   2.901   5.956  0.0327 -0.3798  0.0436
   40MOL    C6616524   5.130   2.921   6.078  0.1862  0.2691  0.0793
   40MOL    C6716525   5.092   3.058   6.135  0.1117  0.3678  0.3127
   40MOL    C6816526   5.122   3.080   6.282 -0.0688 -0.8090 -0.5061
   40MOL    C6916527   5.102   3.224   6.326  0.2286 -0.0456 -0.6379
   40MOL    C7016528   5.142   3.248   6.473 -0.3432  0.1657 -0.1980
   40MOL    C7116529   5.094   3.382   6.533 -0.0465 -0.1381 -0.3813
   40MOL    H7216530   5.090   2.846   5.879 -0.3224  0.7935 -1.0684
   40MOL    H7316531   5.008   2.997   5.911  1.8986  1.2896  2.3856
   40MOL    H7416532   5.093   2.847   6.148  1.4861  1.5148  2.1522
   40MOL    H7516533   5.155   3.128   6.079  3.4968 -1.5448  1.5581
   40MOL    H7616534   4.991   3.097   6.120 -0.2628 -0.3505  0.9724
   40MOL    H7716535   5.063   3.015   6.347  2.2238 -1.8778  0.5380
   40MOL    H7816536   5.226   3.054   6.302  0.9284  1.7713 -2.0731
   40MOL    H7916537   5.161   3.295   6.268  1.3664 -2.3648 -2.4100
   40MOL    H8016538   4.995   3.236   6.309  0.3791 -0.9047 -2.2856
   40MOL    H8116539   5.248   3.232   6.492 -0.0388  0.6183 -1.5102
   40MOL    H8216540   5.086   3.173   6.530  1.3605 -0.5770  0.5215
   40MOL    H8316541   4.991   3.396   6.503  0.5854  0.9252 -2.1262
   40MOL    H8416542   5.102   3.389   6.641 -3.6588 -1.8519  0.0695
   40MOL    H8516543   5.142   3.468   6.487  0.0884 -1.2492 -2.3785
   40MOL    C8616544   5.277   2.910   6.042  0.4518 -0.5293  0.4763
   40MOL    C8716545   5.314   2.756   6.030  0.9339  0.3703  0.6308
   40MOL    C8816546   5.421   2.737   5.921  0.2835  0.3114  0.0414
   40MOL    C8916547   5.437   2.602   5.847 -0.3571 -0.3749  0.3111
   40MOL    C9016548   5.311   2.573   5.767 -0.6875  0.0286  0.2005
   40MOL    C9116549   5.333   2.473   5.657  0.4549  0.0804 -0.7136
   40MOL    C9216550   5.196   2.418   5.600  0.3193  1.4574  0.1917
   40MOL    H9316551   5.280   2.953   5.942 -1.0041 -3.4943 -0.9147
   40MOL    H9416552   5.346   2.956   6.113 -0.5850  0.3557  0.9200
   40MOL    H9516553   5.225   2.704   5.994  0.4400  0.1495  2.1512
   40MOL    H9616554   5.412   2.814   5.845 -0.1565 -0.8625 -1.1134
   40MOL    H9716555   5.514   2.769   5.967  0.0155  1.2271 -0.0363
   40MOL    H9816556   5.511   2.622   5.770  1.6652  0.0900  2.3323
   40MOL    H9916557   5.468   2.515   5.904 -1.5123 -0.5617  0.6533
   40MOL   H10016558   5.266   2.662   5.723 -1.1790  0.0096  0.6624
   40MOL   H10116559   5.237   2.537   5.838 -0.1557  0.8707  1.2051
   40MOL   H10216560   5.388   2.519   5.574  0.6028  0.2907 -0.5007
   40MOL   H10316561   5.386   2.390   5.704  1.3489  1.1129  0.1265
   40MOL   H10416562   5.115   2.409   5.674 -0.4697  0.7756 -0.7465
   40MOL   H10516563   5.208   2.317   5.563 -1.3976  2.1437 -2.4041
   40MOL   H10616564   5.161   2.481   5.518  0.2040  0.3403 -0.6292
   40MOL   C10716565   5.358   2.697   6.164  0.3954  0.5523 -0.2768
   40MOL   C10816566   5.358   2.538   6.163  0.1890  0.3342 -0.1341
   40MOL   C10916567   5.499   2.475   6.186  0.1669 -0.0193  0.3013
   40MOL   C11016568   5.527   2.326   6.151 -0.1762  0.4027 -0.0609
   40MOL   C11116569   5.676   2.284   6.139  0.1439  0.6124 -0.6134
   40MOL   C11216570   5.768   2.392   6.084 -0.5332 -0.3429  0.1840
   40MOL   C11316571   5.912   2.329   6.054  0.7209 -0.4206 -1.0985
   40MOL   H11416572   5.296   2.732   6.246  1.1671 -0.2728  0.6637
   40MOL   H11516573   5.458   2.736   6.183  2.1566 -3.1443 -1.2897
   40MOL   H11616574   5.330   2.499   6.065 -0.1965  2.3756 -0.8635
   40MOL   H11716575   5.544   2.489   6.284 -2.2177  3.0757  1.0147
   40MOL   H11816576   5.556   2.546   6.127 -0.4428  1.4892  1.5092
   40MOL   H11916577   5.464   2.256   6.206  0.5966 -3.0352 -3.3188
   40MOL   H12016578   5.479   2.304   6.055  1.0443 -1.2476 -0.3197
   40MOL   H12116579   5.677   2.203   6.066  1.5114 -0.7375  0.8459
   40MOL   H12216580   5.713   2.255   6.238  2.3534  2.1232 -0.9676
   40MOL   H12316581   5.724   2.446   6.000  2.0487 -0.0959 -1.0633
   40MOL   H12416582   5.787   2.463   6.164  1.2116 -0.5300 -0.0407
   40MOL   H12516583   5.989   2.398   6.017 -0.0950  0.7450 -0.6709
   40MOL   H12616584   5.934   2.272   6.144 -0.2018  0.0976 -0.5357
   40MOL   H12716585   5.910   2.261   5.969  0.1853 -2.2040  0.3127
   40MOL   C12816586   5.248   2.487   6.267  0.1148  0.6598  0.0732
   40MOL   C12916587   5.190   2.344   6.229  0.2987  0.6023  0.2381
   40MOL   C13016588   5.083   2.365   6.116  0.0998 -1.0144  0.3369
   40MOL   C13116589   5.028   2.243   6.051  0.7031 -0.1512  0.2796
   40MOL   C13216590   4.914   2.269   5.955  0.1031 -0.2979 -0.0371
   40MOL   C13316591   4.864   2.155   5.865 -0.0617 -0.6527  0.5891
   40MOL   C13416592   4.970   2.096   5.764 -0.1231  0.4656 -0.4583
   40MOL   H13516593   5.301   2.481   6.363  2.1974 -0.4580 -1.1077
   40MOL   H13616594   5.159   2.548   6.282 -0.5798  0.4282 -2.8218
   40MOL   H13716595   5.256   2.270   6.185  0.3763  0.2408  0.9533
   40MOL   H13816596   5.118   2.425   6.033 -1.6295  0.5038  0.6632
   40MOL   H13916597   5.001   2.425   6.156 -0.5402 -2.6766  1.6091
   40MOL   H14016598   4.986   2.174   6.124  0.5284 -0.3362  0.0055
   40MOL   H14116599   5.108   2.196   5.993  1.2999  1.2232 -0.0422
   40MOL   H14216600   4.946   2.342   5.880  1.0339 -0.5737  0.0898
   40MOL   H14316601   4.824   2.300   6.008  0.4987  0.4954  0.1737
   40MOL   H14416602   4.771   2.177   5.812  0.3292 -2.6526 -0.9973
   40MOL   H14516603   4.824   2.074   5.926 -0.0859 -0.5366  0.7284
   40MOL   H14616604   4.931   2.031   5.686  0.7886 -0.6489 -0.0022
   40MOL   H14716605   5.047   2.041   5.818 -0.8077  2.0252  2.1810
   40MOL   H14816606   5.024   2.178   5.717  0.5913  1.1178  1.4539
   40MOL   C14916607   5.117   2.284   6.352 -0.4547 -0.0963 -0.2347
   40MOL   C15016608   5.200   2.200   6.447 -0.7704  0.1985 -0.2125
   40MOL   C15116609   5.268   2.080   6.382 -0.2472  0.9598 -0.1018
   40MOL   C15216610   5.411   2.056   6.426  0.4993  0.3524  0.4067
   40MOL   C15316611   5.463   1.921   6.379  0.0254  0.6148 -0.8602
   40MOL   C15416612   5.597   1.891   6.450  0.6011  0.2227  0.4725
   40MOL   C15516613   5.635   1.747   6.435 -0.2048  0.0861 -0.1946
   40MOL   H15616614   5.081   2.364   6.416  1.3615  0.2014  0.4608
   40MOL   H15716615   5.030   2.224   6.325  0.3445 -1.7315  0.7444
   40MOL   H15816616   5.275   2.271   6.482  0.0871  0.1041 -1.8266
   40MOL   H15916617   5.217   1.986   6.402  0.3622  0.6010 -0.2219
   40MOL   H16016618   5.279   2.087   6.273 -0.3274 -1.4876 -0.2895
   40MOL   H16116619   5.404   2.065   6.534  0.4948 -0.7723  0.5119
   40MOL   H16216620   5.467   2.142   6.391 -0.4633  0.7635 -0.1530
   40MOL   H16316621   5.483   1.926   6.272  1.2516 -1.7115 -0.7815
   40MOL   H16416622   5.392   1.841   6.397  1.0582 -0.4867 -1.5561
   40MOL   H16516623   5.587   1.913   6.556 -1.3200 -2.9490  1.0058
   40MOL   H16616624   5.669   1.965   6.415 -0.8784  1.1500 -0.6832
   40MOL   H16716625   5.743   1.746   6.454  0.1026 -1.3050 -1.9087
   40MOL   H16816626   5.637   1.723   6.329 -1.1217 -0.9798  0.0147
   40MOL   H16916627   5.590   1.665   6.491 -0.9947  0.3295 -0.4784
   40MOL   C17016628   5.136   2.166   6.590 -0.3449 -0.4495 -0.0663
   40MOL   C17116629   5.012   2.070   6.584 -0.5495 -0.3563  0.0763
   40MOL   C17216630   5.024   1.947   6.683  0.1467  0.2080  1.3543
   40MOL   C17316631   5.145   1.867   6.647 -0.2445  0.1089 -0.4478
   40MOL   C17416632   5.151   1.723   6.703 -0.1547 -0.2756 -0.6830
   40MOL   C17516633   5.255   1.636   6.632 -0.2860  0.3578 -0.7864
   40MOL   C17616634   5.247   1.493   6.682  0.4281 -0.1974  0.2507
   40MOL   H17716635   5.108   2.258   6.643  0.3356  0.2806 -0.9634
   40MOL   H17816636   5.209   2.132   6.662 -0.8289 -1.2717  0.0419
   40MOL   H17916637   5.000   2.029   6.483  1.2060  0.0521 -0.3214
   40MOL   H18016638   4.929   1.895   6.668 -0.3868  1.1677  1.4001
   40MOL   H18116639   5.025   1.984   6.785 -0.4353 -0.1736  1.5016
   40MOL   H18216640   5.232   1.923   6.680 -0.3680  0.9991 -1.5754
   40MOL   H18316641   5.149   1.859   6.538  0.0538  1.9891 -0.5926
   40MOL   H18416642   5.051   1.681   6.699 -0.0515 -0.4958 -0.9918
   40MOL   H18516643   5.183   1.743   6.805 -1.4777  2.8235 -0.8117
   40MOL   H18616644   5.349   1.691   6.631  0.4913 -0.9138  0.4276
   40MOL   H18716645   5.216   1.627   6.531 -0.9149  0.5329 -0.5575
   40MOL   H18816646   5.310   1.432   6.619 -0.2140  1.4902 -2.0919
   40MOL   H18916647   5.145   1.457   6.668 -0.0584  1.3673 -0.3557
   40MOL   H19016648   5.281   1.485   6.786  0.8630  1.6103  0.2696
   40MOL   C19116649   4.883   2.150   6.600 -0.2282 -0.3655  0.7300
   40MOL   C19216650   4.751   2.079   6.548  0.7119  0.0714 -0.2330
   40MOL   C19316651   4.625   2.162   6.599  0.0576 -0.2702  0.0277
   40MOL   C19416652   4.605   2.302   6.539  1.0472  0.0147  0.3090
   40MOL   C19516653   4.451   2.332   6.555  0.2557 -0.2377  0.8970
   40MOL   C19616654   4.416   2.464   6.486  0.5870  0.1366 -0.1890
   40MOL   C19716655   4.265   2.477   6.499 -0.6553  0.2680  0.2168
   40MOL   H19816656   4.896   2.239   6.539  1.4568 -1.7196 -0.9626
   40MOL   H19916657   4.866   2.174   6.705 -0.6127  2.7377 -0.0041
   40MOL   H20016658   4.728   1.983   6.595  1.5522 -0.3299 -0.6305
   40MOL   H20116659   4.631   2.171   6.707  1.5281  0.3125 -0.0823
   40MOL   H20216660   4.541   2.095   6.581 -0.4452 -0.0160  1.4091
   40MOL   H20316661   4.636   2.294   6.435  1.9960 -0.3855  0.6134
   40MOL   H20416662   4.662   2.375   6.597  0.9574  0.0151  0.3970
   40MOL   H20516663   4.395   2.253   6.506  1.3723 -0.5548  0.1131
   40MOL   H20616664   4.421   2.348   6.658  1.0224 -2.1430  1.4343
   40MOL   H20716665   4.445   2.466   6.381  1.7007  0.0738  0.1136
   40MOL   H20816666   4.457   2.549   6.539 -1.9106  1.2752  0.0095
   40MOL   H20916667   4.229   2.487   6.602 -0.2177  0.2141  0.3762
   40MOL   H21016668   4.207   2.388   6.475 -0.7681  0.9338 -2.0948
   40MOL   H21116669   4.219   2.556   6.439 -0.2914  2.2581  2.4516
   40MOL   C21216670   4.752   2.058   6.391  0.5356  1.1180 -0.2408
   40MOL   C21316671   4.625   2.007   6.321  0.2573 -0.1431  0.6283
   40MOL   C21416672   4.616   2.085   6.186 -0.0427  1.0581  0.6424
   40MOL   C21516673   4.510   2.044   6.083 -0.1833 -0.1491  0.1502
   40MOL   C21616674   4.371   2.072   6.135 -0.0481 -0.0894  0.3671
   40MOL   C21716675   4.261   2.048   6.031  0.4942  0.1710  0.5198
   40MOL   C21816676   4.127   2.099   6.094  0.3771 -0.3731 -0.3825
   40MOL   H21916677   4.839   1.997   6.367  1.3806  1.3949  1.9187
   40MOL   H22016678   4.787   2.150   6.344  1.0126 -0.1760 -2.4880
   40MOL   H22116679   4.535   2.040   6.374  1.6568  1.2037  2.2189
   40MOL   H22216680   4.596   2.186   6.220  2.3480  1.9834 -0.6103
   40MOL   H22316681   4.715   2.077   6.141  0.9300 -0.0875  2.8735
   40MOL   H22416682   4.515   1.937   6.068 -0.5839 -0.1975  0.3676
   40MOL   H22516683   4.526   2.094   5.987  0.5554  1.3234  1.0203
   40MOL   H22616684   4.357   2.008   6.221  2.0656 -0.3149  0.5580
   40MOL   H22716685   4.363   2.174   6.173 -0.2858 -1.2606  3.5244
   40MOL   H22816686   4.276   2.094   5.933 -0.4867  1.8189  1.1244
   40MOL   H22916687   4.253   1.942   6.008 -1.0897  0.2311  0.6988
   40MOL   H23016688   4.110   2.047   6.188 -0.8832  1.4171  0.4096
   40MOL   H23116689   4.046   2.083   6.024 -0.3544  0.7953  0.1809
   40MOL   H23216690   4.128   2.205   6.119  0.6059 -0.3737 -0.3845
   40MOL   C23316691   4.633   1.857   6.305 -0.6615 -0.0125 -0.1333
   40MOL   C23416692   4.607   1.772   6.428 -0.4446 -0.0569  0.9320
   40MOL   C23516693   4.473   1.797   6.501 -0.5530  0.1413 -0.5349
   40MOL   C23616694   4.347   1.752   6.429  0.8598  0.4816 -0.0498
   40MOL   C23716695   4.222   1.828   6.475 -0.1284 -0.2621  0.4057
   40MOL   C23816696   4.101   1.756   6.425  0.6238  0.3126  0.2032
   40MOL   C23916697   3.965   1.833   6.452 -0.2985 -0.2449  0.7988
   40MOL   H24016698   4.728   1.833   6.256  0.6295  1.4006  1.6238
   40MOL   H24116699   4.553   1.838   6.234 -1.5975  2.2197  0.2755
   40MOL   H24216700   4.680   1.798   6.505 -0.2438 -2.8462  1.7457
   40MOL   H24316701   4.470   1.905   6.508 -2.7923 -0.0112  1.6353
   40MOL   H24416702   4.481   1.760   6.604  1.4073 -0.8495 -1.0231
   40MOL   H24516703   4.340   1.643   6.427 -1.5199  0.5530  1.9419
   40MOL   H24616704   4.354   1.779   6.324 -2.1026  1.5432 -0.0304
   40MOL   H24716705   4.227   1.935   6.452 -2.1923  0.0700  1.3776
   40MOL   H24816706   4.212   1.822   6.583 -0.1874 -1.6759  0.3247
   40MOL   H24916707   4.103   1.734   6.318 -0.4984 -0.3942  0.3116
   40MOL   H25016708   4.095   1.656   6.468 -0.2369  0.5936  0.7375
   40MOL   H25116709   3.885   1.790   6.391  0.9627 -1.4459 -0.0453
   40MOL   H25216710   3.941   1.821   6.558 -0.3377 -0.4953  0.7629
   40MOL   H25316711   3.966   1.939   6.428  3.2522 -0.6407 -1.1966
   40MOL   C25416712   4.643   1.624   6.394  0.5728  0.2439  0.0651
   40MOL   C25516713   4.770   1.565   6.457  0.2651  0.2959 -0.1708
   40MOL   C25616714   4.764   1.539   6.612 -0.1930 -0.5452 -0.0432
   40MOL   C25716715   4.636   1.469   6.667 -0.5697  0.5316 -0.4475
   40MOL   C25816716   4.652   1.421   6.816 -0.0400  0.4165 -0.6386
   40MOL   C25916717   4.529   1.343   6.869 -0.7239  0.2290  0.6313
   40MOL   C26016718   4.543   1.305   7.011 -0.4660 -0.7035 -1.2191
   40MOL   H26116719   4.646   1.621   6.285  1.3069 -1.3812  0.1147
   40MOL   H26216720   4.561   1.556   6.416 -0.6860  1.4155 -0.9220
   40MOL   H26316721   4.780   1.462   6.424  0.8887  0.5555 -0.8113
   40MOL   H26416722   4.761   1.636   6.662  2.5280 -0.9035  0.9530
   40MOL   H26516723   4.856   1.495   6.653  0.9277  0.9172 -0.9228
   40MOL   H26616724   4.543   1.525   6.656 -0.7523  0.5833  1.2321
   40MOL   H26716725   4.612   1.381   6.608  0.6926 -1.1575  1.5195
   40MOL   H26816726   4.654   1.513   6.874 -1.6191  0.1575 -0.1545
   40MOL   H26916727   4.752   1.383   6.834 -1.2945 -2.5490  0.2793
   40MOL   H27016728   4.442   1.406   6.849 -0.6242 -0.6009 -2.7356
   40MOL   H27116729   4.522   1.247   6.817  1.9054 -0.1024  0.8151
   40MOL   H27216730   4.463   1.252   7.062  1.4161 -0.8916  1.6917
   40MOL   H27316731   4.640   1.254   7.014  0.9777  1.9913  0.4390
   40MOL   H27416732   4.558   1.393   7.074  0.2008 -2.3063  0.9511
   40MOL   C27516733   4.894   1.646   6.413 -0.2966  0.9863 -0.3015
   40MOL   C27616734   4.934   1.615   6.263  0.2519  0.2003 -0.4701
   40MOL   C27716735   4.983   1.472   6.241 -0.4205  0.5604  0.1773
   40MOL   C27816736   5.113   1.423   6.315  0.3692 -0.1424 -0.1039
   40MOL   C27916737   5.145   1.281   6.288 -0.2199  0.1755  0.1819
   40MOL   C28016738   5.274   1.232   6.352 -0.3868  0.2176  0.0233
   40MOL   C28116739   5.300   1.083   6.316 -0.3524  0.2047  0.4814
   40MOL   H28216740   4.970   1.605   6.478  0.5438  0.7724 -1.3994
   40MOL   H28316741   4.884   1.752   6.439  0.5200  0.7976  0.7685
   40MOL   H28416742   4.843   1.631   6.205 -1.4295 -0.5824  1.8749
   40MOL   H28516743   4.911   1.397   6.272  0.5275 -0.1762  0.6252
   40MOL   H28616744   5.001   1.449   6.137  1.0050 -0.5147  0.6493
   40MOL   H28716745   5.118   1.443   6.422  1.8787  0.1652 -0.2199
   40MOL   H28816746   5.192   1.488   6.278  1.2482 -1.5664 -0.7737
   40MOL   H28916747   5.148   1.271   6.180 -0.4333  2.4804 -0.0669
   40MOL   H29016748   5.064   1.219   6.327  1.2183 -0.3671  2.4326
   40MOL   H29116749   5.348   1.306   6.322  0.6439 -0.4771  0.8265
   40MOL   H29216750   5.277   1.249   6.459  1.0037  2.1505 -0.2966
   40MOL   H29316751   5.403   1.061   6.343 -0.8633 -2.0555  0.6965
   40MOL   H29416752   5.278   1.068   6.210  0.1482  0.2801  0.3647
   40MOL   H29516753   5.239   1.003   6.360  1.3826  0.3945  3.3327
   40MOL   C29616754   5.027   1.724   6.222 -0.2545 -0.2482  0.1144
   40MOL   C29716755   5.071   1.728   6.071  0.7938  0.7988  0.9474
   40MOL   C29816756   5.187   1.831   6.065 -0.3792  0.0620 -0.0598
   40MOL   C29916757   5.263   1.844   5.938 -0.5430  0.2554  0.4910
   40MOL   C30016758   5.343   1.978   5.934  0.6117  0.1938  0.1087
   40MOL   C30116759   5.477   1.966   5.869  0.4212  0.3654  0.0119
   40MOL   C30216760   5.472   1.939   5.719 -0.3648  0.2703  0.3453
   40MOL   H30316761   4.979   1.817   6.253  2.2056  1.1282 -0.0609
   40MOL   H30416762   5.117   1.710   6.283  0.7525  0.7639 -1.1082
   40MOL   H30516763   5.110   1.627   6.060  1.4121  0.5148  4.9331
   40MOL   H30616764   5.145   1.929   6.088  0.0483 -0.0547  1.3032
   40MOL   H30716765   5.257   1.801   6.144 -0.0921  1.9279  0.4154
   40MOL   H30816766   5.201   1.847   5.849  1.4648  0.8395 -0.9282
   40MOL   H30916767   5.334   1.762   5.926 -2.8969 -1.8393  0.7577
   40MOL   H31016768   5.354   2.019   6.035 -0.8880 -1.7033  1.0636
   40MOL   H31116769   5.283   2.056   5.888 -1.7734 -3.2592 -2.8097
   40MOL   H31216770   5.517   2.067   5.869  0.4185  0.3797 -1.4516
   40MOL   H31316771   5.537   1.899   5.929  1.6160  2.6967  1.4969
   40MOL   H31416772   5.415   2.011   5.661 -0.9136  0.8213  1.5619
   40MOL   H31516773   5.572   1.933   5.675 -0.1125 -2.9442  1.2098
   40MOL   H31616774   5.444   1.836   5.698 -0.5610  0.4689 -0.3777
   40MOL   C31716775   4.956   1.764   5.976 -0.5290 -0.3660  0.0811
   40MOL   C31816776   4.864   1.651   5.929 -0.0579 -0.1906  0.8167
   40MOL   C31916777   4.722   1.688   5.955  0.9680 -0.3811 -0.1906
   40MOL   C32016778   4.617   1.571   5.935 -0.6466 -0.0746 -0.0744
   40MOL   C32116779   4.477   1.600   5.991  0.0682  0.5258  1.1141
   40MOL   C32216780   4.381   1.484   5.954 -0.3232 -0.3287 -0.2585
   40MOL   C32316781   4.247   1.481   6.028  0.2719  0.4243 -0.4082
   40MOL   H32416782   5.006   1.804   5.888  1.3184 -0.0615  1.2528
   40MOL   H32516783   4.894   1.843   6.019  3.1734  3.5227 -1.3834
   40MOL   H32616784   4.887   1.557   5.979  0.3440 -1.5095 -1.7716
   40MOL   H32716785   4.685   1.769   5.892  1.1347 -1.1064 -1.2521
   40MOL   H32816786   4.706   1.733   6.053  1.2211 -0.5730 -0.0617
   40MOL   H32916787   4.659   1.480   5.977 -1.1247 -0.6430 -0.8032
   40MOL   H33016788   4.604   1.550   5.829  0.0475  2.4895 -0.7178
   40MOL   H33116789   4.425   1.690   5.959 -1.0958 -0.4488  0.2379
   40MOL   H33216790   4.480   1.624   6.098 -1.5058 -0.1176  1.3136
   40MOL   H33316791   4.429   1.392   5.987  0.7511  0.1755 -0.4014
   40MOL   H33416792   4.365   1.477   5.846  2.1307 -0.2052 -0.6504
   40MOL   H33516793   4.253   1.492   6.136  0.4111 -0.5048 -0.3166
   40MOL   H33616794   4.198   1.385   6.015 -2.4470  1.3017  2.6169
   40MOL   H33716795   4.177   1.561   6.002  0.0602  1.4265  3.0293
   40MOL   C33816796   4.889   1.617   5.780 -0.2656  0.2189  0.5135
   40MOL   C33916797   5.024   1.552   5.743  0.0702  0.4546  0.4629
   40MOL   C34016798   5.045   1.550   5.590 -0.0912 -0.1499 -0.5454
   40MOL   C34116799   5.089   1.691   5.542  0.8838  1.0766 -0.1587
   40MOL   C34216800   5.130   1.692   5.394  0.2709 -0.2387 -0.0338
   40MOL   C34316801   4.997   1.702   5.314 -0.3054  0.2058 -0.3034
   40MOL   C34416802   5.000   1.705   5.167 -0.3730 -0.4956  0.5668
   40MOL   H34516803   4.880   1.707   5.719  1.4608  0.0098 -0.0861
   40MOL   H34616804   4.812   1.557   5.732 -1.4832  2.3627 -0.2755
   40MOL   H34716805   5.109   1.602   5.788 -0.3464  0.6269  1.0673
   40MOL   H34816806   5.110   1.466   5.565  0.6556  0.3512 -0.3021
   40MOL   H34916807   4.949   1.528   5.544 -0.2917  0.0872 -0.2400
   40MOL   H35016808   5.181   1.716   5.594  1.1014  4.0669 -1.8444
   40MOL   H35116809   5.026   1.777   5.564  0.5697  0.8456 -0.1318
   40MOL   H35216810   5.199   1.774   5.375  0.0213 -0.1266 -0.4714
   40MOL   H35316811   5.172   1.598   5.360 -2.7996 -1.2825 -1.1190
   40MOL   H35416812   4.947   1.608   5.336  1.3064 -0.0545  2.5191
   40MOL   H35516813   4.933   1.780   5.357  0.1520 -0.1528  1.0581
   40MOL   H35616814   5.066   1.784   5.131 -0.6942 -1.2017 -1.6884
   40MOL   H35716815   4.909   1.720   5.107 -0.0727  2.6866  0.8165
   40MOL   H35816816   5.041   1.611   5.131 -0.6994 -0.0579 -0.9856
   40MOL   C35916817   5.024   1.407   5.801 -0.7181  0.9377 -0.6005
   40MOL   C36016818   5.135   1.303   5.759 -0.5632  0.7428 -0.3945
   40MOL   C36116819   5.285   1.360   5.771 -0.0799 -0.0990  0.0656
   40MOL   C36216820   5.343   1.410   5.907  0.5534  0.6586 -0.6714
   40MOL   C36316821   5.482   1.468   5.898 -0.2492 -0.5553  0.3902
   40MOL   C36416822   5.536   1.540   6.022  0.1082 -0.3321 -1.0546
   40MOL   C36516823   5.570   1.439   6.137 -0.3543 -0.1468 -0.6221
   40MOL   H36616824   4.926   1.364   5.777  0.1109 -1.4656  0.1183
   40MOL   H36716825   5.031   1.414   5.910  1.3648  2.6854 -0.8257
   40MOL   H36816826   5.128   1.275   5.653  0.8548  1.1314 -0.5935
   40MOL   H36916827   5.358   1.285   5.740 -2.0961 -1.0681 -2.5438
   40MOL   H37016828   5.293   1.441   5.698  0.0204 -1.4184 -1.4294
   40MOL   H37116829   5.271   1.480   5.950  0.2798 -0.9325  1.5342
   40MOL   H37216830   5.347   1.321   5.970 -2.6317  0.1010 -1.1357
   40MOL   H37316831   5.558   1.392   5.877  2.9282  2.9942 -1.7219
   40MOL   H37416832   5.481   1.537   5.814  0.8154 -1.6261 -0.5313
   40MOL   H37516833   5.623   1.599   5.995  0.9046 -0.8986  0.2266
   40MOL   H37616834   5.464   1.613   6.059 -0.1364 -1.3288  0.4965
   40MOL   H37716835   5.623   1.488   6.219 -0.8881 -1.9003  0.7881
   40MOL   H37816836   5.477   1.408   6.185 -2.6593  3.9511 -2.1292
   40MOL   H37916837   5.632   1.356   6.104  0.5130 -0.1567  0.9866
   40MOL   C38016838   5.121   1.168   5.831 -0.5013  0.5849 -0.0542
   40MOL   C38116839   5.003   1.075   5.807  0.2240  1.0475 -1.1378
   40MOL   C38216840   4.995   1.026   5.667 -0.4573  0.3666 -0.4941
   40MOL   C38316841   4.868   0.954   5.625 -1.0071  0.5511 -0.1904
   40MOL   C38416842   4.836   0.951   5.476 -0.1743 -0.5816 -0.0880
   40MOL   C38516843   4.885   0.807   5.430  0.1018  0.2922 -0.2525
   40MOL   C38616844   4.914   0.798   5.276  0.3194 -0.3721 -0.4202
   40MOL   H38716845   5.206   1.113   5.793 -2.0029 -0.8629 -1.4299
   40MOL   H38816846   5.142   1.177   5.937  0.2305 -2.4484  0.0768
   40MOL   H38916847   4.921   1.146   5.821  1.1271  1.7644  0.6478
   40MOL   H39016848   5.078   0.957   5.653 -1.1007 -0.8019  1.3773
   40MOL   H39116849   5.009   1.114   5.603  0.9344  2.2403  2.2923
   40MOL   H39216850   4.850   0.854   5.664 -0.5712  1.1895  1.7244
   40MOL   H39316851   4.777   1.003   5.661  1.3549  3.4363  2.0877
   40MOL   H39416852   4.728   0.954   5.462  0.1057 -1.6120 -2.8361
   40MOL   H39516853   4.879   1.045   5.440 -1.6267 -0.2957 -1.0933
   40MOL   H39616854   4.809   0.729   5.435  1.0580 -0.7933 -2.2954
   40MOL   H39716855   4.972   0.763   5.478  0.0323 -0.6707 -1.0008
   40MOL   H39816856   4.830   0.840   5.221  0.3154  3.2307  2.1585
   40MOL   H39916857   4.927   0.692   5.254 -3.0597 -1.2152  1.4328
   40MOL   H40016858   4.997   0.859   5.241 -0.6352  1.5775  0.6616
   40MOL   C40116859   5.013   0.943   5.901 -0.3812 -0.5863  0.3137
   40MOL   C40216860   5.154   0.878   5.931 -1.1341  0.6827 -0.9238
   40MOL   C40316861   5.144   0.770   6.038  0.2708 -0.4512 -0.2444
   40MOL   C40416862   5.267   0.670   6.024 -0.0628  0.2706  0.0361
   40MOL   C40516863   5.386   0.719   6.105  0.1356 -0.0809  0.4611
   40MOL   C40616864   5.518   0.638   6.094  0.1580 -0.1934 -0.6159
   40MOL   C40716865   5.631   0.694   6.180 -0.0214  0.1185  0.1229
   40MOL   H40816866   4.946   0.862   5.873  1.5693 -2.2635  0.3241
   40MOL   H40916867   4.976   0.971   5.999  1.6377  0.5730  0.7806
   40MOL   H41016868   5.230   0.953   5.953  0.7967 -0.9063 -1.9916
   40MOL   H41116869   5.056   0.705   6.029 -1.0210  0.8719  2.1892
   40MOL   H41216870   5.153   0.829   6.130  1.3541  1.2386 -1.4036
   40MOL   H41316871   5.271   0.649   5.917  0.5549 -0.8314  0.2784
   40MOL   H41416872   5.248   0.571   6.064  1.2564 -0.3738 -0.8995
   40MOL   H41516873   5.404   0.827   6.101  0.7978 -0.2033  0.1931
   40MOL   H41616874   5.354   0.712   6.209  2.7763  0.2168  1.3187
   40MOL   H41716875   5.495   0.535   6.120  1.6180 -0.5740 -0.7469
   40MOL   H41816876   5.551   0.644   5.990 -1.6985  2.0616 -1.1261
   40MOL   H41916877   5.724   0.639   6.169  0.2140  0.4605  0.4099
   40MOL   H42016878   5.612   0.697   6.288 -1.8084 -0.6362 -0.1470
   40MOL   H42116879   5.652   0.797   6.154 -3.3870  1.5340  2.6053
   40MOL   H42216880   5.194   0.831   5.841 -1.2267 -0.6787 -0.2639
   41MOL     C116881   2.040   3.409   6.127 -0.2788 -0.0740  0.5952
   41MOL     C216882   2.137   3.294   6.163  0.0267  0.5814 -0.1724
   41MOL     C316883   2.180   3.299   6.309 -0.9155  0.6804 -0.2445
   41MOL     C416884   2.090   3.215   6.410 -0.8758  0.5066  0.8810
   41MOL     C516885   2.081   3.281   6.547 -0.2159  0.4853 -1.1836
   41MOL     C616886   2.216   3.274   6.639  0.1582  0.8638  0.2744
   41MOL     C716887   2.195   3.350   6.765 -0.3076 -0.8831  0.1974
   41MOL     H816888   1.957   3.428   6.195 -1.1999  1.3258 -0.8864
   41MOL     H916889   1.978   3.417   6.037  1.0543  0.5593 -0.2809
   41MOL    H1016890   2.079   3.203   6.148 -1.9646  1.9119 -0.7548
   41MOL    H1116891   2.286   3.279   6.328 -0.4312  1.5911 -1.8667
   41MOL    H1216892   2.159   3.403   6.333 -2.2282  0.8390 -1.9539
   41MOL    H1316893   1.995   3.202   6.359 -0.7064 -1.2205  0.9904
   41MOL    H1416894   2.144   3.121   6.426  0.7407  1.2422 -0.0576
   41MOL    H1516895   2.001   3.230   6.601  1.6351 -2.4010 -1.0495
   41MOL    H1616896   2.051   3.386   6.542 -0.2099  0.5310 -0.3529
   41MOL    H1716897   2.307   3.301   6.586 -0.7286  0.5420 -1.4454
   41MOL    H1816898   2.229   3.168   6.657 -4.0909  0.5174  2.0170
   41MOL    H1916899   2.216   3.457   6.755  2.4077 -1.5135 -1.2931
   41MOL    H2016900   2.260   3.322   6.848 -1.6426  0.5792  1.7937
   41MOL    H2116901   2.090   3.343   6.793 -0.2853  1.2400  0.8734
   41MOL    H2216902   2.097   3.501   6.138  1.4543 -1.3215  2.4176
   41MOL    C2316903   2.260   3.287   6.070 -0.2071  0.4249 -0.1565
   41MOL    C2416904   2.231   3.320   5.919  0.9448  0.0389 -0.1405
   41MOL    C2516905   2.199   3.183   5.843 -0.4701 -0.3008  0.1069
   41MOL    C2616906   2.131   3.187   5.707  0.2793 -0.0733 -0.0750
   41MOL    C2716907   2.011   3.284   5.705 -0.3577  0.0470 -0.1073
   41MOL    C2816908   1.933   3.258   5.578 -0.1598 -0.2220 -0.2033
   41MOL    C2916909   1.796   3.324   5.575  0.3865 -0.2794 -0.0846
   41MOL    H3016910   2.339   3.349   6.112 -0.2097 -0.4860  1.2284
   41MOL    H3116911   2.302   3.187   6.082  0.8570  0.8985  0.1791
   41MOL    H3216912   2.144   3.385   5.915  0.6112 -0.5136 -2.2158
   41MOL    H3316913   2.133   3.124   5.906 -2.7257  1.0601 -0.8970
   41MOL    H3416914   2.292   3.127   5.837 -1.4212 -2.2714  2.6642
   41MOL    H3516915   2.109   3.086   5.672  1.1067 -0.2188 -0.1837
   41MOL    H3616916   2.203   3.216   5.630 -0.6837 -2.1911 -1.8026
   41MOL    H3716917   2.042   3.387   5.718  0.5507 -0.1164 -0.8871
   41MOL    H3816918   1.946   3.252   5.786  3.7784 -1.0014  2.9264
   41MOL    H3916919   1.918   3.155   5.544  2.0829 -0.2705 -1.0967
   41MOL    H4016920   1.994   3.289   5.493 -0.2083 -0.4705 -0.3321
   41MOL    H4116921   1.717   3.269   5.625  0.9371 -1.5573 -0.6035
   41MOL    H4216922   1.801   3.426   5.614  1.1718  0.2040 -1.4112
   41MOL    H4316923   1.754   3.339   5.475 -0.6214  0.7516  0.4848
   41MOL    C4416924   2.352   3.401   5.850 -0.3759  0.0935  0.3619
   41MOL    C4516925   2.384   3.538   5.919  0.1281  0.5416 -0.2700
   41MOL    C4616926   2.540   3.565   5.932 -0.3226 -0.2388 -0.2094
   41MOL    C4716927   2.640   3.468   5.994 -0.0772 -0.1629  0.3297
   41MOL    C4816928   2.658   3.475   6.142 -0.3586 -0.3287  0.5869
   41MOL    C4916929   2.716   3.352   6.203 -0.0774  0.4261 -0.0158
   41MOL    C5016930   2.607   3.249   6.240  0.0191  0.3217 -0.0034
   41MOL    H5116931   2.327   3.403   5.744  0.3870 -2.6235  0.0812
   41MOL    H5216932   2.437   3.333   5.853 -0.4866 -0.0273  0.7902
   41MOL    H5316933   2.341   3.526   6.018 -0.6552 -1.4273 -0.8289
   41MOL    H5416934   2.535   3.652   5.998 -1.2015  0.2040 -0.8461
   41MOL    H5516935   2.573   3.600   5.834  1.0054  0.3807  0.4366
   41MOL    H5616936   2.617   3.366   5.966 -0.2004 -0.4366  1.4173
   41MOL    H5716937   2.736   3.488   5.945  0.2819  1.5196  1.6800
   41MOL    H5816938   2.561   3.496   6.186  0.5408  0.3604  2.2858
   41MOL    H5916939   2.728   3.557   6.162  0.1665 -0.5424 -0.3340
   41MOL    H6016940   2.765   3.393   6.292 -1.1631  0.8005  0.4208
   41MOL    H6116941   2.789   3.314   6.132  1.1165 -0.7302  1.8025
   41MOL    H6216942   2.566   3.210   6.146  1.4101 -0.0487 -0.4750
   41MOL    H6316943   2.521   3.289   6.292 -0.0290 -0.1188  0.2527
   41MOL    H6416944   2.647   3.155   6.279  0.1322 -0.1050 -1.1015
   41MOL    C6516945   2.309   3.645   5.842 -0.4848  0.0230  0.1116
   41MOL    C6616946   2.324   3.792   5.888 -0.2113 -0.3764 -0.0456
   41MOL    C6716947   2.261   3.821   6.032  0.4121 -0.4957 -0.0768
   41MOL    C6816948   2.307   3.956   6.094  0.4645  0.2930 -0.6743
   41MOL    C6916949   2.226   3.981   6.223 -0.6756  0.2686  0.3059
   41MOL    C7016950   2.269   4.100   6.298  0.3622  0.2366  0.3219
   41MOL    C7116951   2.418   4.095   6.345  0.0074  0.4444 -0.5234
   41MOL    H7216952   2.331   3.632   5.736 -0.0348  0.2088  0.1822
   41MOL    H7316953   2.200   3.641   5.847 -0.6007  3.1061  0.6058
   41MOL    H7416954   2.432   3.806   5.891 -0.5219  2.0377  0.9373
   41MOL    H7516955   2.152   3.817   6.033  0.3657  0.9111  2.1523
   41MOL    H7616956   2.290   3.744   6.103 -1.1354 -1.4996 -0.5046
   41MOL    H7716957   2.415   3.960   6.108  0.2772  0.0712  0.8456
   41MOL    H7816958   2.269   4.032   6.025  0.0245 -0.4927 -1.3013
   41MOL    H7916959   2.120   3.978   6.199 -0.3018  1.3968 -1.5969
   41MOL    H8016960   2.243   3.906   6.300  0.6703  1.3921  1.1252
   41MOL    H8116961   2.200   4.114   6.382 -1.6454 -0.4298 -1.1926
   41MOL    H8216962   2.264   4.195   6.245  0.1580 -0.9364 -1.7883
   41MOL    H8316963   2.487   4.069   6.265 -0.7917  0.8872 -1.3664
   41MOL    H8416964   2.445   4.193   6.384  0.6172  0.2341 -0.4045
   41MOL    H8516965   2.436   4.038   6.436 -0.4390  2.1379  0.6460
   41MOL    C8616966   2.268   3.890   5.780 -0.2210 -0.1052  0.4768
   41MOL    C8716967   2.304   3.868   5.625 -0.4476 -0.6389  0.2572
   41MOL    C8816968   2.262   3.984   5.540 -0.1787 -0.9005  0.9101
   41MOL    C8916969   2.111   3.999   5.507 -0.0519  0.1794 -0.2380
   41MOL    C9016970   2.079   4.131   5.437 -0.3270  0.9344 -0.0841
   41MOL    C9116971   1.934   4.146   5.391 -0.1456  0.0229  0.3045
   41MOL    C9216972   1.831   4.187   5.500  0.2074  0.1368  0.3161
   41MOL    H9316973   2.159   3.883   5.773 -0.1870  0.5618 -1.0343
   41MOL    H9416974   2.284   3.992   5.814 -1.4543 -0.0261  0.8351
   41MOL    H9516975   2.251   3.778   5.592 -1.5581  0.0097  0.2628
   41MOL    H9616976   2.296   4.071   5.595 -1.2793 -0.7140  1.3103
   41MOL    H9716977   2.315   3.985   5.444 -2.0471 -0.2426 -0.1466
   41MOL    H9816978   2.096   3.914   5.440 -0.3285  1.9341 -2.4837
   41MOL    H9916979   2.047   3.992   5.594 -1.4315 -0.2534 -1.2752
   41MOL   H10016980   2.144   4.125   5.350  0.0226 -0.4116  0.2548
   41MOL   H10116981   2.113   4.211   5.503 -0.2597  0.9816 -0.1762
   41MOL   H10216982   1.929   4.209   5.303  0.1413 -1.3918 -0.7422
   41MOL   H10316983   1.908   4.048   5.350  0.7692 -0.4419  0.8237
   41MOL   H10416984   1.839   4.288   5.540  1.2634 -0.1825  0.9422
   41MOL   H10516985   1.834   4.122   5.588  0.3451  0.9886  0.9410
   41MOL   H10616986   1.730   4.181   5.459 -0.8078  0.0547  2.7485
   41MOL   C10716987   2.457   3.834   5.599  0.3013 -0.2935 -0.0880
   41MOL   C10816988   2.489   3.773   5.465 -0.2286  0.1222 -0.2330
   41MOL   C10916989   2.635   3.780   5.437  0.2624  0.3311 -0.3401
   41MOL   C11016990   2.673   3.898   5.339 -0.8000  0.5996  0.0224
   41MOL   C11116991   2.689   4.032   5.404  1.4598 -0.3096 -0.0715
   41MOL   C11216992   2.724   4.145   5.310  0.2186 -0.4748  0.5416
   41MOL   C11316993   2.708   4.280   5.380 -0.3450  0.0457 -0.1085
   41MOL   H11416994   2.502   3.769   5.675  0.9906 -1.3001 -1.3336
   41MOL   H11516995   2.512   3.928   5.602 -0.0070 -0.0174 -2.5041
   41MOL   H11616996   2.437   3.830   5.388 -1.4311 -0.5942  0.0430
   41MOL   H11716997   2.683   3.698   5.384  1.5877  0.5603  0.4602
   41MOL   H11816998   2.688   3.792   5.532 -0.7834  3.2909 -0.0818
   41MOL   H11916999   2.774   3.869   5.308 -0.8148  1.4018 -0.7504
   41MOL   H12017000   2.612   3.903   5.249  0.7238  1.2794 -0.9854
   41MOL   H12117001   2.762   4.032   5.485  0.4151 -2.0144  0.9038
   41MOL   H12217002   2.596   4.063   5.452  0.6068 -2.9268  0.0298
   41MOL   H12317003   2.828   4.132   5.281 -0.1184  0.5801 -1.2075
   41MOL   H12417004   2.661   4.137   5.221 -0.8308  1.9796  1.0154
   41MOL   H12517005   2.756   4.359   5.321 -0.6542  2.1848  2.4003
   41MOL   H12617006   2.604   4.310   5.385 -0.8764 -1.7194 -0.5309
   41MOL   H12717007   2.750   4.282   5.480 -0.7876 -1.4690  0.1083
   41MOL   C12817008   2.435   3.626   5.450  0.1514  0.0742  0.4583
   41MOL   C12917009   2.434   3.572   5.300 -0.1718  0.5226  0.0371
   41MOL   C13017010   2.307   3.631   5.236 -0.4409  0.2021 -0.3648
   41MOL   C13117011   2.167   3.568   5.269  0.1650 -0.1928  0.3804
   41MOL   C13217012   2.050   3.641   5.192  0.2878 -0.1189 -0.0372
   41MOL   C13317013   1.907   3.583   5.215 -0.2572  0.5750  0.6399
   41MOL   C13417014   1.799   3.626   5.117  0.0551 -0.7614  0.1211
   41MOL   H13517015   2.502   3.560   5.505  0.0092  0.0946  0.6571
   41MOL   H13617016   2.337   3.602   5.492 -0.7064  1.1885 -0.8677
   41MOL   H13717017   2.506   3.623   5.236  0.8398  0.5394  1.1907
   41MOL   H13817018   2.321   3.624   5.128  0.9281 -0.7681 -0.1439
   41MOL   H13917019   2.307   3.739   5.251 -1.3105  0.2624 -0.7737
   41MOL   H14017020   2.152   3.565   5.377  1.0809 -0.3700  0.5068
   41MOL   H14117021   2.169   3.465   5.235 -2.0397 -0.3994  0.8028
   41MOL   H14217022   2.057   3.639   5.084  0.6960  1.1544 -0.0454
   41MOL   H14317023   2.026   3.746   5.209  0.4049 -0.2741  1.1376
   41MOL   H14417024   1.855   3.606   5.309 -0.9724  1.1842  0.0980
   41MOL   H14517025   1.925   3.476   5.212  1.1992  0.7588  2.1045
   41MOL   H14617026   1.700   3.585   5.139 -1.0674 -0.0021 -3.2241
   41MOL   H14717027   1.811   3.604   5.011 -2.2684 -1.1381 -0.0812
   41MOL   H14817028   1.780   3.732   5.133  0.5346 -0.9197  1.9672
   41MOL   C14917029   2.454   3.414   5.301  0.6737  0.0261  0.2769
   41MOL   C15017030   2.514   3.354   5.181 -0.3901 -0.5255  0.9339
   41MOL   C15117031   2.491   3.202   5.179  0.0975  0.4576  0.0309
   41MOL   C15217032   2.532   3.118   5.058 -0.3623  0.0445 -0.2635
   41MOL   C15317033   2.488   2.972   5.062  0.1383  0.2075 -0.0933
   41MOL   C15417034   2.575   2.868   4.982  0.3330 -0.3155 -0.1863
   41MOL   C15517035   2.571   2.898   4.830  0.2203  0.6296 -0.1088
   41MOL   H15617036   2.523   3.390   5.381 -0.2968 -4.1321 -0.0351
   41MOL   H15717037   2.362   3.363   5.329  0.3022 -0.3165 -1.4553
   41MOL   H15817038   2.466   3.390   5.090 -2.2697 -2.8932  0.9329
   41MOL   H15917039   2.536   3.160   5.268  0.8964  1.5764  0.1706
   41MOL   H16017040   2.386   3.180   5.200  0.3961 -0.3349  0.7016
   41MOL   H16117041   2.640   3.130   5.052 -0.3014 -0.4785 -0.2898
   41MOL   H16217042   2.494   3.161   4.966 -0.7218  0.0894 -0.0958
   41MOL   H16317043   2.380   2.969   5.045  0.4539  2.5507 -2.9874
   41MOL   H16417044   2.497   2.942   5.166 -0.1427  0.6701  0.0703
   41MOL   H16517045   2.553   2.764   5.005  2.2494 -0.6969  0.0160
   41MOL   H16617046   2.680   2.887   5.005  0.3713  0.1426 -0.7426
   41MOL   H16717047   2.610   2.996   4.802 -1.4211  0.4939 -3.0444
   41MOL   H16817048   2.467   2.884   4.804 -0.3652  1.7251  1.5413
   41MOL   H16917049   2.633   2.820   4.785  0.4814  0.9329 -0.2746
   41MOL   C17017050   2.664   3.395   5.163 -0.1674  0.1380 -0.2689
   41MOL   C17117051   2.715   3.446   5.022  0.7796 -0.1818  0.1341
   41MOL   C17217052   2.667   3.580   4.988  0.1946 -0.8636  0.4278
   41MOL   C17317053   2.710   3.649   4.861  0.5676  0.0696  0.0390
   41MOL   C17417054   2.631   3.777   4.835 -0.3324  0.0786  0.6896
   41MOL   C17517055   2.683   3.855   4.707  0.0677 -0.4476  0.1331
   41MOL   C17617056   2.619   3.992   4.686  0.2027 -1.2279 -0.3242
   41MOL   H17717057   2.721   3.308   5.195  2.0762  1.1219 -1.4555
   41MOL   H17817058   2.695   3.470   5.236 -1.9885  0.2836  0.3839
   41MOL   H17917059   2.678   3.365   4.960  1.4840 -0.8818  0.6140
   41MOL   H18017060   2.674   3.632   5.084 -0.6443 -2.1608  1.2158
   41MOL   H18117061   2.558   3.569   4.986  0.0141  1.0148 -1.2515
   41MOL   H18217062   2.680   3.591   4.774 -3.6226  1.4970  0.4293
   41MOL   H18317063   2.816   3.672   4.854  0.1236  1.7485 -1.3418
   41MOL   H18417064   2.632   3.825   4.933 -1.3087  0.8494  0.3339
   41MOL   H18517065   2.525   3.752   4.825 -0.7700  1.2861  1.9885
   41MOL   H18617066   2.686   3.797   4.615 -2.1551  1.1840 -1.0006
   41MOL   H18717067   2.785   3.888   4.728  0.8012 -0.6206 -2.9459
   41MOL   H18817068   2.516   3.981   4.652 -0.0108  0.5373 -0.2903
   41MOL   H18917069   2.670   4.048   4.607  0.1057  2.4629  2.1101
   41MOL   H19017070   2.627   4.054   4.775 -0.6331  0.5095 -1.4508
   41MOL   C19117071   2.868   3.435   5.022 -0.3193 -0.4588 -0.1514
   41MOL   C19217072   2.924   3.289   5.018  0.0725 -0.4900  0.7938
   41MOL   C19317073   2.924   3.237   4.875 -0.1778 -0.2859  0.1617
   41MOL   C19417074   2.896   3.085   4.876  0.2443  0.6093 -0.4437
   41MOL   C19517075   2.892   3.034   4.731 -0.1830 -0.3836 -0.3132
   41MOL   C19617076   3.031   3.029   4.669 -0.8083  0.7515 -0.5452
   41MOL   C19717077   3.030   2.988   4.522 -0.1860  0.3174 -0.0721
   41MOL   H19817078   2.905   3.484   5.112  0.0575 -0.5879 -0.2352
   41MOL   H19917079   2.916   3.481   4.935 -0.1658 -0.1201  0.1085
   41MOL   H20017080   2.851   3.230   5.072 -0.7406 -0.7977 -0.6008
   41MOL   H20117081   3.016   3.262   4.824 -0.5760  0.0854 -0.3780
   41MOL   H20217082   2.847   3.288   4.816 -0.1956 -0.0983  0.3426
   41MOL   H20317083   2.815   3.055   4.942  1.0728 -1.0836 -0.1735
   41MOL   H20417084   2.985   3.042   4.922  0.9066  2.0846 -0.3007
   41MOL   H20517085   2.863   2.929   4.732 -1.0195 -0.1647 -1.0509
   41MOL   H20617086   2.810   3.087   4.683 -0.7938 -0.9296  0.1242
   41MOL   H20717087   3.094   2.960   4.725 -1.1775  1.6399  0.9950
   41MOL   H20817088   3.070   3.131   4.679  0.0282  0.2062  2.2143
   41MOL   H20917089   3.134   2.991   4.488  0.6110 -0.7999  2.1347
   41MOL   H21017090   2.969   3.048   4.456 -1.1695  1.2437  1.6480
   41MOL   H21117091   3.013   2.881   4.515  1.2168  0.1369 -0.9626
   41MOL   C21217092   3.061   3.274   5.088 -0.8058  0.2778 -0.4460
   41MOL   C21317093   3.055   3.280   5.248 -0.5441  0.0311 -0.2629
   41MOL   C21417094   3.051   3.141   5.324 -0.1286  0.0830  0.2793
   41MOL   C21517095   2.923   3.071   5.284 -0.5835  0.1967 -0.5038
   41MOL   C21617096   2.921   2.922   5.329  0.3678  0.0208 -0.3012
   41MOL   C21717097   2.780   2.848   5.320 -0.0115  0.4956  0.0705
   41MOL   C21817098   2.811   2.702   5.354 -0.3360  0.1066  0.0813
   41MOL   H21917099   3.128   3.350   5.049 -1.4776  0.6366 -0.9077
   41MOL   H22017100   3.109   3.180   5.063  0.2339  0.9227 -0.8812
   41MOL   H22117101   2.969   3.344   5.270  0.4080 -0.2442  4.6540
   41MOL   H22217102   3.134   3.082   5.287  0.3714  1.0654 -0.1712
   41MOL   H22317103   3.064   3.153   5.432 -1.4036  3.2353  0.1279
   41MOL   H22417104   2.915   3.079   5.176  1.1517  0.0983 -0.6660
   41MOL   H22517105   2.845   3.131   5.330 -0.8347 -1.1767  0.9054
   41MOL   H22617106   2.995   2.855   5.285  0.2193 -0.9548  0.9083
   41MOL   H22717107   2.943   2.913   5.435  0.6029  1.5627 -0.2130
   41MOL   H22817108   2.697   2.877   5.384 -1.7704 -0.6106 -1.6694
   41MOL   H22917109   2.744   2.847   5.217 -0.5156  0.2369  0.2477
   41MOL   H23017110   2.868   2.659   5.272 -1.3978  0.9460 -1.1163
   41MOL   H23117111   2.726   2.635   5.366 -2.1667  2.5181  0.9840
   41MOL   H23217112   2.870   2.699   5.446 -0.4252  1.0219  0.1749
   41MOL   C23317113   3.191   3.351   5.292  0.2007 -0.3883 -0.6239
   41MOL   C23417114   3.195   3.404   5.441  0.1523  0.3867  0.0206
   41MOL   C23517115   3.333   3.473   5.465 -0.7555 -0.0453 -0.1185
   41MOL   C23617116   3.453   3.385   5.446  0.0711 -0.1669 -0.1315
   41MOL   C23717117   3.579   3.452   5.500 -0.6141 -0.2562 -0.3310
   41MOL   C23817118   3.716   3.391   5.466  0.0559 -0.0546  0.4713
   41MOL   C23917119   3.780   3.450   5.344 -0.4533 -0.7903  0.7888
   41MOL   H24017120   3.215   3.433   5.224  0.7658 -1.1936 -1.4175
   41MOL   H24117121   3.272   3.280   5.275  1.6059  0.6505  1.5731
   41MOL   H24217122   3.184   3.316   5.504 -2.6474 -0.7305 -1.9345
   41MOL   H24317123   3.325   3.507   5.568 -0.5900 -1.3584  0.3415
   41MOL   H24417124   3.337   3.567   5.409  0.2378 -0.5999 -0.9990
   41MOL   H24517125   3.482   3.384   5.341  1.3586  1.8647  0.1805
   41MOL   H24617126   3.436   3.283   5.481 -3.3897  0.1993 -0.6543
   41MOL   H24717127   3.568   3.460   5.609  0.7560  0.5742 -0.2509
   41MOL   H24817128   3.575   3.556   5.469 -0.6699 -0.1176  0.1305
   41MOL   H24917129   3.788   3.408   5.546  1.6628  1.2189 -1.1916
   41MOL   H25017130   3.699   3.284   5.454 -0.3830 -0.2507  2.6948
   41MOL   H25117131   3.708   3.459   5.262 -1.1376 -1.0757  1.3528
   41MOL   H25217132   3.805   3.555   5.359 -1.5014 -0.7041  2.0061
   41MOL   H25317133   3.874   3.405   5.315  0.3662 -0.1846  2.4419
   41MOL   C25417134   3.068   3.495   5.471 -0.6451 -0.1862 -0.4092
   41MOL   C25517135   3.042   3.509   5.621 -0.1735  0.2321 -0.4053
   41MOL   C25617136   2.924   3.418   5.665  0.6044 -1.4917  0.1479
   41MOL   C25717137   2.776   3.442   5.607 -0.5540  0.3725  0.6248
   41MOL   C25817138   2.663   3.332   5.631  0.4735  0.4404  0.4905
   41MOL   C25917139   2.685   3.216   5.530 -0.3818  0.4649  0.1225
   41MOL   C26017140   2.549   3.139   5.522  0.3000 -0.1548  0.3483
   41MOL   H26117141   2.971   3.475   5.425 -0.1722 -1.6858 -0.7752
   41MOL   H26217142   3.094   3.589   5.421 -1.5232 -0.3816 -1.2584
   41MOL   H26317143   3.132   3.478   5.675  0.0120 -0.0590 -0.8839
   41MOL   H26417144   2.908   3.421   5.773 -0.6080  1.8265 -0.0578
   41MOL   H26517145   2.947   3.317   5.632  0.2000 -1.7135  0.5447
   41MOL   H26617146   2.735   3.521   5.669  0.8535  1.1128  0.6337
   41MOL   H26717147   2.773   3.498   5.514  2.4731 -0.5877 -0.1168
   41MOL   H26817148   2.571   3.382   5.600 -0.1852 -1.5892 -0.9103
   41MOL   H26917149   2.661   3.305   5.737 -1.0697  1.9551  0.8917
   41MOL   H27017150   2.710   3.262   5.435  0.0764 -0.2047 -0.0827
   41MOL   H27117151   2.766   3.146   5.553  0.7185  1.2180 -1.3521
   41MOL   H27217152   2.467   3.199   5.482  0.3918  0.0734  0.5025
   41MOL   H27317153   2.539   3.045   5.468 -0.2448 -0.7375  1.4619
   41MOL   H27417154   2.528   3.105   5.623 -2.4669 -1.4477 -0.6155
   41MOL   C27517155   3.012   3.660   5.658  0.1190  0.0173 -0.3471
   41MOL   C27617156   3.121   3.760   5.655 -0.3567 -0.3231  0.1959
   41MOL   C27717157   3.245   3.729   5.752 -0.5958 -0.1013  0.3522
   41MOL   C27817158   3.202   3.725   5.902 -0.4943 -0.3351 -0.3192
   41MOL   C27917159   3.314   3.697   6.005 -0.1781  0.0961  0.2788
   41MOL   C28017160   3.427   3.797   6.015  0.1328  0.3901 -0.6019
   41MOL   C28117161   3.540   3.751   6.119  0.4498  0.6326 -0.8063
   41MOL   H28217162   2.950   3.670   5.747 -1.2768 -0.8502 -1.2027
   41MOL   H28317163   2.944   3.700   5.582  2.4584  2.5348 -1.1971
   41MOL   H28417164   3.166   3.750   5.557  0.7420 -3.1203  0.9171
   41MOL   H28517165   3.287   3.631   5.729  0.5124  0.7011 -1.1137
   41MOL   H28617166   3.321   3.803   5.727 -1.3728  0.4778 -0.3340
   41MOL   H28717167   3.131   3.645   5.925 -1.1822  0.0133 -1.1670
   41MOL   H28817168   3.147   3.815   5.928  1.1855  0.2558  1.2470
   41MOL   H28917169   3.359   3.599   5.988  0.2393  0.0434  1.6527
   41MOL   H29017170   3.259   3.690   6.099  1.0785 -0.5559  0.9891
   41MOL   H29117171   3.448   3.816   5.910 -1.3905  2.4997 -0.5702
   41MOL   H29217172   3.395   3.896   6.048  0.1924 -0.4912  2.3207
   41MOL   H29317173   3.622   3.822   6.111 -0.8607  2.2561 -0.1155
   41MOL   H29417174   3.573   3.647   6.114 -0.7809  0.1470  0.8276
   41MOL   H29517175   3.498   3.771   6.217  3.2138 -2.5993  1.1219
   41MOL   C29617176   3.064   3.907   5.681 -0.1780 -0.1901 -0.0568
   41MOL   C29717177   3.164   4.028   5.665 -0.4631 -0.4311  0.2584
   41MOL   C29817178   3.104   4.167   5.717 -0.1716  0.1256  0.0377
   41MOL   C29917179   3.054   4.178   5.864 -0.0050  0.2294 -0.2653
   41MOL   C30017180   3.165   4.161   5.974 -0.3632  0.5573 -0.2877
   41MOL   C30117181   3.244   4.293   6.014  0.6544  0.2809  0.1049
   41MOL   C30217182   3.395   4.290   5.972  0.2185  0.0249  0.3422
   41MOL   H30317183   2.984   3.920   5.608  0.0528  1.9363  0.0366
   41MOL   H30417184   3.010   3.913   5.775 -2.5154 -1.4001 -1.2746
   41MOL   H30517185   3.253   4.013   5.726  1.0113  0.8163 -1.5510
   41MOL   H30617186   3.179   4.245   5.706 -1.4976  1.4976  0.6950
   41MOL   H30717187   3.023   4.199   5.651 -1.8835 -1.9191  1.0774
   41MOL   H30817188   2.967   4.118   5.891 -0.2757  0.7438 -0.0037
   41MOL   H30917189   3.029   4.283   5.874 -1.5564 -0.2494  1.2503
   41MOL   H31017190   3.239   4.084   5.951  0.7981  1.6083 -0.1933
   41MOL   H31117191   3.114   4.125   6.063 -1.3814 -0.7030 -1.3563
   41MOL   H31217192   3.198   4.385   5.976  1.3125  0.3664 -0.4880
   41MOL   H31317193   3.253   4.300   6.123  0.0461 -1.3682  0.2648
   41MOL   H31417194   3.458   4.362   6.025  0.4424 -0.1579  0.3274
   41MOL   H31517195   3.435   4.189   5.981  0.6986 -0.0329 -2.1197
   41MOL   H31617196   3.399   4.320   5.867 -1.0417 -0.0831  0.2633
   41MOL   C31717197   3.209   4.038   5.516 -0.5411 -0.1741  0.4681
   41MOL   C31817198   3.325   4.146   5.496  0.3983  0.6127 -0.0268
   41MOL   C31917199   3.452   4.127   5.587  0.2655  0.1229 -0.3785
   41MOL   C32017200   3.523   3.992   5.585  0.1985 -0.3331  0.5789
   41MOL   C32117201   3.602   3.960   5.713 -0.2803 -0.1443  0.0754
   41MOL   C32217202   3.652   3.812   5.701  0.6725  0.5782  0.4594
   41MOL   C32317203   3.776   3.788   5.611  0.2168 -0.1013 -0.0589
   41MOL   H32417204   3.116   4.064   5.465 -0.0096  0.6259 -0.1009
   41MOL   H32517205   3.235   3.940   5.476 -1.2845 -0.0326 -0.3856
   41MOL   H32617206   3.300   4.250   5.516 -0.0770  0.6198 -0.6531
   41MOL   H32717207   3.429   4.158   5.689 -0.2445  0.7327 -0.6721
   41MOL   H32817208   3.527   4.206   5.574  0.7854  0.0704  2.0571
   41MOL   H32917209   3.581   3.985   5.493 -0.9968  0.0447 -0.2273
   41MOL   H33017210   3.453   3.908   5.587  0.2256 -0.3370  3.1072
   41MOL   H33117211   3.538   3.980   5.798  0.5873  1.5573  0.3608
   41MOL   H33217212   3.692   4.017   5.739 -0.2813 -0.6363  1.1906
   41MOL   H33317213   3.564   3.750   5.682 -0.7310  2.3839  0.9706
   41MOL   H33417214   3.679   3.783   5.803  0.4348  2.0203  0.9335
   41MOL   H33517215   3.869   3.824   5.654 -0.3937  1.9649 -0.4060
   41MOL   H33617216   3.771   3.821   5.507  1.8853  0.0407 -0.1049
   41MOL   H33717217   3.792   3.680   5.612 -1.8405 -0.4220 -0.0236
   41MOL   C33817218   3.380   4.152   5.350 -0.3097 -0.3812 -0.6159
   41MOL   C33917219   3.265   4.208   5.259 -0.2145  0.6271  0.2935
   41MOL   C34017220   3.259   4.144   5.117  0.6871 -0.2103  0.2510
   41MOL   C34117221   3.218   3.993   5.120 -0.0673 -0.2756  0.8921
   41MOL   C34217222   3.223   3.936   4.976  0.3875  1.0447  0.0113
   41MOL   C34317223   3.158   3.792   4.971 -0.9577  0.5036 -0.5055
   41MOL   C34417224   3.141   3.745   4.832 -0.7144  0.3376  0.3226
   41MOL   H34517225   3.420   4.056   5.317 -2.0256 -0.8303 -1.4544
   41MOL   H34617226   3.463   4.222   5.346  0.0560 -0.7800 -0.1142
   41MOL   H34717227   3.173   4.182   5.312 -0.8324 -2.1201 -1.9926
   41MOL   H34817228   3.196   4.204   5.052  0.3137 -1.4525 -0.5498
   41MOL   H34917229   3.352   4.164   5.063  0.3466  1.8004  0.4020
   41MOL   H35017230   3.121   3.974   5.166 -0.7425  0.1219 -0.3500
   41MOL   H35117231   3.291   3.932   5.175  1.6618 -2.3494 -3.4908
   41MOL   H35217232   3.167   4.007   4.916 -1.1195  0.2122  0.3940
   41MOL   H35317233   3.325   3.923   4.940  0.5032 -4.0540  1.6522
   41MOL   H35417234   3.202   3.717   5.037 -1.9549 -0.5649 -1.0273
   41MOL   H35517235   3.061   3.795   5.020 -0.7831  0.9545 -0.1923
   41MOL   H35617236   3.062   3.794   4.775  0.3514 -0.6693 -2.0599
   41MOL   H35717237   3.099   3.645   4.845 -0.5439 -0.0078 -1.6796
   41MOL   H35817238   3.242   3.748   4.792 -0.3439 -0.9462  1.1068
   41MOL   C35917239   3.277   4.361   5.247 -0.2642 -0.7748 -0.5544
   41MOL   C36017240   3.147   4.441   5.216  0.2433  0.3725  0.5929
   41MOL   C36117241   3.045   4.444   5.336  0.0775 -0.4039  0.3249
   41MOL   C36217242   3.102   4.486   5.475  0.4285 -0.2700 -0.2249
   41MOL   C36317243   2.987   4.522   5.568  0.0046 -0.1267  0.2134
   41MOL   C36417244   3.040   4.561   5.706 -0.1064 -0.1155 -0.3135
   41MOL   C36517245   2.934   4.634   5.791  0.4422  0.3004  0.8066
   41MOL   H36617246   3.364   4.384   5.185  0.9415 -1.0213  1.0157
   41MOL   H36717247   3.314   4.393   5.344 -0.3079 -1.1576 -0.4098
   41MOL   H36817248   3.092   4.389   5.138  1.3927  1.1593 -0.7571
   41MOL   H36917249   2.954   4.497   5.310 -0.6584 -2.7384 -2.0975
   41MOL   H37017250   3.006   4.343   5.346 -2.2033  0.2654 -1.2932
   41MOL   H37117251   3.170   4.412   5.517  0.0607 -1.4325 -1.6423
   41MOL   H37217252   3.176   4.564   5.456  3.0719 -1.7648  3.2912
   41MOL   H37317253   2.915   4.593   5.526  0.0543  1.1462  2.1942
   41MOL   H37417254   2.933   4.428   5.581  2.3073 -1.8567 -2.2076
   41MOL   H37517255   3.078   4.475   5.761  1.9285  1.1491  0.3120
   41MOL   H37617256   3.126   4.627   5.709  1.3771 -2.0752  2.6635
   41MOL   H37717257   2.889   4.714   5.732  1.2094 -0.9109 -1.4820
   41MOL   H37817258   2.849   4.569   5.811  0.9527  0.4786  3.7440
   41MOL   H37917259   2.973   4.673   5.885  3.7341  0.5280 -0.6119
   41MOL   C38017260   3.181   4.583   5.160 -0.0841 -0.2641  0.8017
   41MOL   C38117261   3.074   4.645   5.066 -0.8154 -0.0530  0.3758
   41MOL   C38217262   2.976   4.736   5.142 -0.1668 -0.1531 -0.3733
   41MOL   C38317263   2.844   4.766   5.068 -0.7514  0.0614  0.1165
   41MOL   C38417264   2.743   4.855   5.148 -0.0842  0.4348  0.5764
   41MOL   C38517265   2.603   4.868   5.087  0.0850 -0.8604 -0.0010
   41MOL   C38617266   2.508   4.951   5.181  0.3391 -0.0781 -0.3582
   41MOL   H38717267   3.224   4.647   5.237  1.1451 -1.5133  1.1608
   41MOL   H38817268   3.258   4.559   5.087 -1.7051 -2.8576 -0.1372
   41MOL   H38917269   3.014   4.559   5.035  1.8778 -1.9297  0.1819
   41MOL   H39017270   3.022   4.831   5.168  0.4686 -0.1538 -1.4701
   41MOL   H39117271   2.940   4.699   5.237  0.2701 -0.7244 -0.4314
   41MOL   H39217272   2.861   4.824   4.977 -1.4783  0.6426  0.3494
   41MOL   H39317273   2.804   4.669   5.037 -2.0877  1.1023 -1.4959
   41MOL   H39417274   2.717   4.805   5.241  1.4086 -1.5016 -0.0211
   41MOL   H39517275   2.778   4.955   5.174  1.0372  0.5612 -1.3495
   41MOL   H39617276   2.572   4.767   5.063  0.9072 -1.4795  1.4429
   41MOL   H39717277   2.610   4.932   4.999 -0.1606 -0.6784  0.1121
   41MOL   H39817278   2.556   5.045   5.206  0.7101  0.2123 -2.0564
   41MOL   H39917279   2.479   4.909   5.277 -1.1460  0.4003 -0.5843
   41MOL   H40017280   2.424   4.995   5.127  1.1272  1.1372 -0.6134
   41MOL   C40117281   3.124   4.707   4.931 -0.0232 -0.1649  0.1107
   41MOL   C40217282   3.197   4.841   4.949 -0.2184  0.2430 -0.2888
   41MOL   C40317283   3.253   4.882   4.814  0.2528  0.0749  0.7824
   41MOL   C40417284   3.342   5.011   4.834 -0.4071  0.1357 -0.3555
   41MOL   C40517285   3.464   4.988   4.922  0.3596  0.2726  0.1119
   41MOL   C40617286   3.545   5.111   4.947  0.7234  0.0509 -0.3439
   41MOL   C40717287   3.689   5.083   5.000  0.0354  0.1373 -0.5902
   41MOL   H40817288   3.034   4.718   4.871  1.0638 -1.8477 -1.8984
   41MOL   H40917289   3.184   4.637   4.872  0.8183  1.2442 -0.7502
   41MOL   H41017290   3.275   4.815   5.021 -1.0100 -1.4429 -0.0035
   41MOL   H41117291   3.168   4.906   4.750  1.2634 -0.4936 -0.7946
   41MOL   H41217292   3.309   4.800   4.770  0.5598 -0.4195  2.0544
   41MOL   H41317293   3.286   5.099   4.863  0.3184 -0.3987  2.8880
   41MOL   H41417294   3.383   5.035   4.737  0.0163  0.8292 -0.0079
   41MOL   H41517295   3.439   4.946   5.020  2.5549 -0.3639  0.4172
   41MOL   H41617296   3.528   4.919   4.868 -0.7918 -0.2052 -0.6629
   41MOL   H41717297   3.553   5.165   4.853  1.9006  0.7120  0.1254
   41MOL   H41817298   3.493   5.178   5.015  0.2966 -1.7496  1.1393
   41MOL   H41917299   3.684   5.037   5.099  2.4047  0.3123 -0.3405
   41MOL   H42017300   3.758   5.167   5.009 -0.9998  1.0350 -0.9268
   41MOL   H42117301   3.739   5.020   4.926  2.0562  0.6181  0.3107
   41MOL   H42217302   3.138   4.916   5.000 -1.2021 -0.6702 -0.0691
   42MOL     C117303   4.477   2.078   2.583 -0.6198  0.9720  1.1685
   42MOL     C217304   4.451   2.161   2.712 -0.2670  0.1838  0.6663
   42MOL     C317305   4.586   2.202   2.774 -0.5896  0.3818 -0.3606
   42MOL     C417306   4.572   2.308   2.892 -0.3694  0.5898  0.2943
   42MOL     C517307   4.708   2.356   2.955  0.0566 -0.1581 -0.2020
   42MOL     C617308   4.695   2.449   3.076 -0.4638 -1.0811 -0.0085
   42MOL     C717309   4.679   2.363   3.211 -0.5389  0.2096 -0.7801
   42MOL     H817310   4.519   1.981   2.612 -2.0448  0.8065  2.7679
   42MOL     H917311   4.535   2.130   2.507 -3.3015  1.5133 -0.5632
   42MOL    H1017312   4.391   2.249   2.687 -0.8668 -0.2141  0.7191
   42MOL    H1117313   4.631   2.111   2.813  0.2256  0.6505 -0.6634
   42MOL    H1217314   4.653   2.239   2.696 -0.7228  1.5356  0.0605
   42MOL    H1317315   4.515   2.395   2.859 -1.4174 -0.1006  0.2745
   42MOL    H1417316   4.524   2.259   2.977  0.3871 -1.8222 -0.6416
   42MOL    H1517317   4.762   2.399   2.871 -0.8093  2.1380  0.3753
   42MOL    H1617318   4.781   2.279   2.979 -0.0929 -1.1197 -2.6187
   42MOL    H1717319   4.613   2.516   3.049 -0.1621 -0.0098  1.6647
   42MOL    H1817320   4.784   2.511   3.082 -1.0646  0.1074 -2.4858
   42MOL    H1917321   4.593   2.296   3.215  0.4939 -1.0742  0.8044
   42MOL    H2017322   4.656   2.444   3.282 -0.0530 -1.9425  1.9081
   42MOL    H2117323   4.767   2.304   3.236 -0.0314  0.4968 -1.8855
   42MOL    H2217324   4.384   2.041   2.540  1.9245 -0.7540 -3.2156
   42MOL    C2317325   4.374   2.079   2.816  0.2102  0.2911  0.0353
   42MOL    C2417326   4.225   2.030   2.786 -0.1321 -0.4062  0.0329
   42MOL    C2517327   4.123   2.149   2.777  0.1656 -0.1105 -0.2200
   42MOL    C2617328   3.992   2.131   2.709  0.3455  0.2956  0.6713
   42MOL    C2717329   3.894   2.247   2.722 -0.0093 -0.2001  0.1096
   42MOL    C2817330   3.746   2.211   2.708 -0.3680 -0.4153 -1.1467
   42MOL    C2917331   3.653   2.326   2.671 -0.0974 -0.0106 -0.3969
   42MOL    H3017332   4.427   1.990   2.851  1.4649  0.5851 -1.0512
   42MOL    H3117333   4.361   2.133   2.910  0.7595 -2.0970  1.5243
   42MOL    H3217334   4.225   1.969   2.695  0.6698 -0.8555  0.3247
   42MOL    H3317335   4.177   2.241   2.756 -1.2481  0.8840  0.3981
   42MOL    H3417336   4.101   2.158   2.884 -0.8596  0.6367 -0.4804
   42MOL    H3517337   3.939   2.041   2.741  0.8868 -0.3891 -0.3385
   42MOL    H3617338   4.021   2.113   2.606 -0.3493  2.5286  0.0468
   42MOL    H3717339   3.930   2.321   2.650 -2.1510  3.1757  2.3344
   42MOL    H3817340   3.905   2.292   2.821 -0.8704  0.3097 -0.0221
   42MOL    H3917341   3.720   2.153   2.797 -0.4539 -0.1303 -0.9819
   42MOL    H4017342   3.722   2.148   2.622 -0.7395 -0.6493 -0.8748
   42MOL    H4117343   3.549   2.296   2.684  0.0036 -0.3674 -0.4117
   42MOL    H4217344   3.674   2.409   2.738 -1.8820  0.4680 -0.4010
   42MOL    H4317345   3.655   2.359   2.567 -1.3254 -0.2024 -0.4890
   42MOL    C4417346   4.185   1.937   2.899 -0.8150  0.5517  0.1213
   42MOL    C4517347   4.238   1.789   2.890  0.3863 -0.6690 -0.1750
   42MOL    C4617348   4.272   1.739   3.033 -0.0928 -0.0171  0.0379
   42MOL    C4717349   4.171   1.735   3.152  0.2605 -0.2708  0.3745
   42MOL    C4817350   4.232   1.731   3.292  0.2812 -0.0105 -0.8724
   42MOL    C4917351   4.131   1.755   3.412 -0.6371 -0.3375  0.0357
   42MOL    C5017352   4.070   1.897   3.427  0.1005  0.4794  0.8544
   42MOL    H5117353   4.076   1.933   2.892 -0.8868 -0.4147  1.5021
   42MOL    H5217354   4.202   1.984   2.995 -0.7792 -0.7954  0.7868
   42MOL    H5317355   4.324   1.789   2.823  0.9919 -0.0802  0.5955
   42MOL    H5417356   4.345   1.813   3.066 -0.6664  0.7104 -0.3353
   42MOL    H5517357   4.336   1.651   3.028  0.5223  0.2800  2.0080
   42MOL    H5617358   4.106   1.822   3.144 -0.4511 -0.9913 -2.0562
   42MOL    H5717359   4.096   1.656   3.154  0.2663 -0.2789  0.2822
   42MOL    H5817360   4.305   1.811   3.307 -0.2628  0.0184  1.8788
   42MOL    H5917361   4.282   1.635   3.301 -3.2543 -1.7586  1.0670
   42MOL    H6017362   4.193   1.746   3.501  0.7783 -0.4422 -0.9490
   42MOL    H6117363   4.054   1.677   3.414 -1.5113  0.5225  0.9446
   42MOL    H6217364   4.011   1.927   3.513  1.7623 -2.0965  2.9943
   42MOL    H6317365   3.994   1.910   3.350  0.9602  0.6039  0.0175
   42MOL    H6417366   4.148   1.967   3.398 -0.8137  0.1210 -2.7604
   42MOL    C6517367   4.134   1.691   2.836  0.2208  0.6718  0.3858
   42MOL    C6617368   4.082   1.707   2.694  0.1381  0.1330 -0.5051
   42MOL    C6717369   3.952   1.636   2.682  0.0150 -0.0123  0.1951
   42MOL    C6817370   3.818   1.714   2.719 -0.1193 -0.2877  0.0528
   42MOL    C6917371   3.696   1.647   2.662 -0.5399 -0.0148  1.0619
   42MOL    C7017372   3.566   1.689   2.722 -0.1999 -0.8056 -0.3307
   42MOL    C7117373   3.546   1.839   2.703 -0.2083 -0.7814 -0.3080
   42MOL    H7217374   4.168   1.588   2.841  1.2188  1.0861  3.2100
   42MOL    H7317375   4.048   1.703   2.902 -1.0788 -0.6491 -1.0104
   42MOL    H7417376   4.064   1.814   2.686  4.2351  0.7779 -2.0726
   42MOL    H7517377   3.941   1.622   2.575 -1.9766 -0.0999  0.3769
   42MOL    H7617378   3.954   1.536   2.726 -1.0964 -0.0266  0.2277
   42MOL    H7717379   3.809   1.705   2.828  0.0389  0.4749  0.1375
   42MOL    H7817380   3.810   1.816   2.680  2.1088 -1.0167 -2.4309
   42MOL    H7917381   3.699   1.673   2.556 -0.1980 -2.0860  0.5419
   42MOL    H8017382   3.713   1.539   2.670  1.2348  0.1903  0.3753
   42MOL    H8117383   3.556   1.645   2.821 -0.8552  0.8591  0.3670
   42MOL    H8217384   3.496   1.644   2.651 -0.9201 -3.2706  1.8445
   42MOL    H8317385   3.455   1.880   2.746 -0.1330 -0.8125 -0.1176
   42MOL    H8417386   3.625   1.889   2.759 -0.3434  0.8467 -1.5266
   42MOL    H8517387   3.564   1.877   2.602  2.4134  1.8757  1.0536
   42MOL    C8617388   4.193   1.678   2.578 -0.5632 -0.3565  0.4795
   42MOL    C8717389   4.187   1.773   2.455 -0.1834 -0.1540 -0.1104
   42MOL    C8817390   4.294   1.751   2.339 -0.0771  0.4150 -0.2556
   42MOL    C8917391   4.283   1.625   2.256  0.1093  0.0173 -0.1201
   42MOL    C9017392   4.273   1.632   2.103 -0.1507 -0.7741 -0.0163
   42MOL    C9117393   4.318   1.510   2.017 -0.5410 -0.1539  0.4033
   42MOL    C9217394   4.462   1.487   2.032 -0.1543 -0.6486 -0.9586
   42MOL    H9317395   4.296   1.672   2.613 -0.3419  0.3059 -0.0350
   42MOL    H9417396   4.179   1.574   2.550 -0.2425 -0.2270 -0.1704
   42MOL    H9517397   4.202   1.871   2.498 -0.6382  0.2794 -0.9237
   42MOL    H9617398   4.301   1.838   2.274 -0.5054 -0.4459 -1.4711
   42MOL    H9717399   4.390   1.749   2.391 -0.3940 -1.1211  0.2949
   42MOL    H9817400   4.367   1.561   2.283  0.9772  1.5090  0.7979
   42MOL    H9917401   4.205   1.562   2.298  1.1601 -1.3387 -0.1581
   42MOL   H10017402   4.339   1.715   2.077 -1.6848  0.5640  0.2885
   42MOL   H10117403   4.173   1.664   2.073 -1.3385 -2.2042  2.2869
   42MOL   H10217404   4.270   1.415   2.042  1.7392 -1.3153  0.5011
   42MOL   H10317405   4.288   1.516   1.913 -0.4970  1.5249  0.4730
   42MOL   H10417406   4.503   1.484   2.133  0.8786  3.5560 -1.1667
   42MOL   H10517407   4.509   1.576   1.989 -1.2060  1.3391  1.8835
   42MOL   H10617408   4.491   1.403   1.969 -0.9463 -1.7036  0.0630
   42MOL   C10717409   4.045   1.773   2.391 -0.7238 -0.5452 -0.2724
   42MOL   C10817410   4.017   1.873   2.277  0.2199 -0.9173  0.1329
   42MOL   C10917411   3.903   1.821   2.188  0.6402 -0.4337 -0.3377
   42MOL   C11017412   3.763   1.808   2.260 -0.0553  0.2037  0.2647
   42MOL   C11117413   3.652   1.767   2.170  0.5499 -0.0727  0.3892
   42MOL   C11217414   3.525   1.840   2.212  0.2104 -0.1246 -0.0365
   42MOL   C11317415   3.407   1.792   2.125  0.5602  0.2120 -0.2109
   42MOL   H11417416   3.976   1.806   2.468  1.7652 -0.5336  2.0036
   42MOL   H11517417   4.013   1.671   2.369  0.2061 -1.3027  1.7858
   42MOL   H11617418   4.095   1.850   2.204  1.0147  4.0735 -0.7432
   42MOL   H11717419   3.921   1.721   2.147  1.1328  1.0761 -4.0250
   42MOL   H11817420   3.888   1.889   2.104  2.1245 -0.2816 -0.4946
   42MOL   H11917421   3.770   1.743   2.347  1.6479 -0.3676 -0.2795
   42MOL   H12017422   3.739   1.903   2.306 -2.1904 -0.0706 -0.1975
   42MOL   H12117423   3.633   1.660   2.178 -0.6772 -0.1180 -2.5198
   42MOL   H12217424   3.680   1.783   2.066 -2.4554 -0.3292 -0.4916
   42MOL   H12317425   3.495   1.827   2.315  0.5396  0.4000  0.1291
   42MOL   H12417426   3.549   1.946   2.200 -1.0889  0.2706  0.8275
   42MOL   H12517427   3.417   1.801   2.017 -0.9885 -3.4172 -0.7484
   42MOL   H12617428   3.381   1.686   2.134 -1.8890  0.9748  2.2223
   42MOL   H12717429   3.323   1.856   2.148 -0.6640 -1.6332  0.5387
   42MOL   C12817430   4.008   2.019   2.316 -0.3274 -0.1428  0.2726
   42MOL   C12917431   4.028   2.125   2.201  0.3072  0.1245 -0.3625
   42MOL   C13017432   4.154   2.099   2.113 -0.6760  0.7058  0.0142
   42MOL   C13117433   4.291   2.121   2.181  0.5810 -0.6915  0.0276
   42MOL   C13217434   4.420   2.080   2.097 -0.6528 -0.5726 -0.5168
   42MOL   C13317435   4.543   2.126   2.177 -0.4837 -0.1387  0.1114
   42MOL   C13417436   4.680   2.090   2.116  0.4100  0.7209  0.5144
   42MOL   H13517437   3.912   2.037   2.363  0.1752 -0.9634  1.6536
   42MOL   H13617438   4.088   2.026   2.390 -2.1070 -0.7255  2.2895
   42MOL   H13717439   3.936   2.109   2.145  0.3069  2.5729 -1.0966
   42MOL   H13817440   4.150   2.156   2.020  0.1355  1.2741  0.3180
   42MOL   H13917441   4.166   1.998   2.073 -0.5966  1.1853 -1.2013
   42MOL   H14017442   4.287   2.058   2.270 -1.7277  1.7568  1.7339
   42MOL   H14117443   4.311   2.222   2.217  0.6106 -1.1517  1.3317
   42MOL   H14217444   4.432   2.124   1.998  0.5493  3.8684  1.4941
   42MOL   H14317445   4.429   1.971   2.091 -0.0751 -0.4273 -2.5460
   42MOL   H14417446   4.541   2.089   2.279 -0.6749  0.8986  0.4951
   42MOL   H14517447   4.547   2.234   2.195  0.0353 -0.1015 -0.2203
   42MOL   H14617448   4.702   1.983   2.124  1.9283  0.7865 -2.2634
   42MOL   H14717449   4.758   2.139   2.173  0.4797 -1.4518  2.3722
   42MOL   H14817450   4.685   2.116   2.010 -0.4057 -1.1225 -0.0063
   42MOL   C14917451   4.033   2.266   2.272 -0.3964  0.4006 -0.1533
   42MOL   C15017452   3.997   2.386   2.175 -0.0315 -0.1522 -0.0973
   42MOL   C15117453   4.130   2.436   2.112  0.2829 -1.0878 -0.3868
   42MOL   C15217454   4.127   2.562   2.032 -0.5645  0.5371  0.9717
   42MOL   C15317455   4.271   2.597   1.983 -0.5901  0.2255  0.2516
   42MOL   C15417456   4.291   2.723   1.903  1.0715  0.5367  0.8329
   42MOL   C15517457   4.230   2.733   1.769  0.3331 -0.3024 -0.4700
   42MOL   H15617458   3.963   2.257   2.355 -0.2606 -0.6115 -0.1401
   42MOL   H15717459   4.132   2.281   2.317  1.0277 -0.9042 -2.7094
   42MOL   H15817460   3.941   2.350   2.089 -0.8294 -0.8069  0.6834
   42MOL   H15917461   4.191   2.464   2.199  1.7613 -1.8000 -1.1669
   42MOL   H16017462   4.184   2.359   2.056  1.5161  0.8521 -1.9359
   42MOL   H16117463   4.090   2.648   2.088 -1.9759  1.8050 -1.8133
   42MOL   H16217464   4.065   2.563   1.942  2.7760  0.8089 -1.4101
   42MOL   H16317465   4.298   2.514   1.917 -0.0934  0.7078 -0.1607
   42MOL   H16417466   4.344   2.596   2.064  2.1773  0.6623 -2.1342
   42MOL   H16517467   4.400   2.728   1.901  1.0230  1.2648 -2.5504
   42MOL   H16617468   4.259   2.809   1.962 -1.7600  1.0412 -1.3530
   42MOL   H16717469   4.126   2.704   1.780 -0.0354  0.8272 -0.9397
   42MOL   H16817470   4.269   2.660   1.698 -0.7893 -0.5546 -0.8335
   42MOL   H16917471   4.231   2.836   1.735  1.2285  0.0749  0.6700
   42MOL   C17017472   3.920   2.498   2.253 -0.0583 -0.6321  0.4758
   42MOL   C17117473   3.816   2.567   2.152  0.1325 -0.5388  0.2877
   42MOL   C17217474   3.697   2.480   2.118  0.0684 -0.3062  0.6319
   42MOL   C17317475   3.594   2.462   2.231 -0.6549  0.0722 -0.3660
   42MOL   C17417476   3.472   2.397   2.173  0.4241 -0.1071  0.5714
   42MOL   C17517477   3.345   2.367   2.267 -0.3518  0.1539 -0.1238
   42MOL   C17617478   3.372   2.234   2.339 -0.3518  0.5376 -0.1420
   42MOL   H17717479   3.987   2.568   2.303 -1.1142  0.2389  0.6993
   42MOL   H17817480   3.852   2.473   2.334  0.0527 -2.3849  0.0347
   42MOL   H17917481   3.863   2.573   2.054 -1.7759 -2.2438 -0.7686
   42MOL   H18017482   3.741   2.384   2.087 -0.6242 -0.8934  1.4587
   42MOL   H18117483   3.655   2.514   2.024  1.5146  0.3206  0.1936
   42MOL   H18217484   3.560   2.560   2.264  0.8692  1.0695 -1.6550
   42MOL   H18317485   3.642   2.418   2.319  1.4764  0.1510 -1.4468
   42MOL   H18417486   3.503   2.296   2.147  0.2905 -0.4710  1.7858
   42MOL   H18517487   3.455   2.447   2.078  0.2955 -0.7940  0.2322
   42MOL   H18617488   3.251   2.368   2.211 -0.4241 -0.5080 -0.0126
   42MOL   H18717489   3.338   2.449   2.339 -0.0340 -0.3854  0.5241
   42MOL   H18817490   3.308   2.214   2.425  2.5432  2.1491  2.5164
   42MOL   H18917491   3.470   2.212   2.381 -1.8949 -2.1935  2.1861
   42MOL   H19017492   3.374   2.148   2.272 -1.6840 -1.1103  1.8733
   42MOL   C19117493   3.783   2.706   2.186  0.5275 -0.0330  0.3678
   42MOL   C19217494   3.746   2.806   2.073 -0.0008  0.3732 -0.2242
   42MOL   C19317495   3.683   2.933   2.125  0.1478 -0.1737  0.0014
   42MOL   C19417496   3.544   2.906   2.191 -0.4825 -0.0505  0.4435
   42MOL   C19517497   3.467   3.039   2.201  0.0247 -0.2621  0.2896
   42MOL   C19617498   3.523   3.147   2.304 -0.7206  0.2844  0.2275
   42MOL   C19717499   3.426   3.261   2.325 -0.0813  0.0792  0.3605
   42MOL   H19817500   3.873   2.753   2.227  1.0738  0.1493 -1.0221
   42MOL   H19917501   3.704   2.713   2.260  0.9988  0.5710  0.8227
   42MOL   H20017502   3.658   2.763   2.025 -0.4345  0.8681  0.1146
   42MOL   H20117503   3.659   2.991   2.036 -0.3887 -0.5079 -0.0731
   42MOL   H20217504   3.758   3.001   2.165 -1.0590  2.3116 -1.8869
   42MOL   H20317505   3.550   2.873   2.294 -0.7922  0.0854  0.5070
   42MOL   H20417506   3.483   2.835   2.136  1.9895 -2.1357  0.2811
   42MOL   H20517507   3.462   3.089   2.104 -0.8655 -1.9889 -0.5716
   42MOL   H20617508   3.365   3.021   2.235  0.7162 -2.1732  1.4021
   42MOL   H20717509   3.613   3.189   2.259 -0.6030 -0.8500 -0.6174
   42MOL   H20817510   3.551   3.096   2.396 -0.5820  1.7326  1.0022
   42MOL   H20917511   3.331   3.222   2.362 -0.7179  0.5143 -0.8126
   42MOL   H21017512   3.399   3.309   2.231 -0.4725  0.4218  0.6458
   42MOL   H21117513   3.446   3.330   2.407  2.1669 -1.5975  1.2728
   42MOL   C21217514   3.859   2.833   1.963  0.1828  0.1075 -0.7411
   42MOL   C21317515   3.811   2.827   1.812  0.0206 -0.0725 -0.1191
   42MOL   C21417516   3.897   2.899   1.710  0.0453  0.1778 -0.0738
   42MOL   C21517517   3.836   3.044   1.682  0.0048  0.1930  0.2472
   42MOL   C21617518   3.711   3.043   1.588  0.2801  0.4710  0.5195
   42MOL   C21717519   3.658   3.180   1.556  0.2359 -0.7555 -1.1196
   42MOL   C21817520   3.507   3.193   1.531  0.4797  0.9777 -0.1157
   42MOL   H21917521   3.951   2.776   1.975 -1.0605 -1.3224  2.2778
   42MOL   H22017522   3.899   2.933   1.981 -0.5547  0.1309  0.7760
   42MOL   H22117523   3.706   2.854   1.803  0.0603 -0.3341 -1.4321
   42MOL   H22217524   3.993   2.921   1.756  0.5324 -0.1511 -0.8979
   42MOL   H22317525   3.924   2.834   1.626 -1.9051  0.6511 -1.1125
   42MOL   H22417526   3.912   3.112   1.645 -0.2490 -0.2146 -1.0479
   42MOL   H22517527   3.804   3.093   1.774 -1.6281 -1.2691  0.4879
   42MOL   H22617528   3.718   2.983   1.498  0.5666  0.4818  0.5341
   42MOL   H22717529   3.636   2.986   1.643  1.0414 -2.2919 -1.2104
   42MOL   H22817530   3.680   3.253   1.634 -0.0323 -1.0098 -0.8040
   42MOL   H22917531   3.713   3.215   1.469  0.7845  1.3790  0.0611
   42MOL   H23017532   3.481   3.115   1.459  2.4352  1.1063 -0.9894
   42MOL   H23117533   3.494   3.285   1.474 -0.0764  0.1615 -1.3284
   42MOL   H23217534   3.449   3.175   1.622  0.3653 -1.2755 -0.6028
   42MOL   C23317535   3.805   2.676   1.769 -0.0989 -0.3120 -0.1591
   42MOL   C23417536   3.709   2.650   1.649  0.3041 -0.0409  0.2308
   42MOL   C23517537   3.736   2.517   1.580  0.4288 -0.0516  1.1380
   42MOL   C23617538   3.719   2.401   1.681 -0.7403  0.7277 -0.1251
   42MOL   C23717539   3.778   2.263   1.643  0.1257  0.2002  0.2516
   42MOL   C23817540   3.740   2.145   1.732  0.0316 -0.6678 -0.3696
   42MOL   C23917541   3.807   2.139   1.871  0.6352  0.8531 -0.4990
   42MOL   H24017542   3.776   2.621   1.859 -0.2495  0.4748  0.2733
   42MOL   H24117543   3.904   2.646   1.735 -0.1930 -0.4747 -0.2899
   42MOL   H24217544   3.726   2.730   1.576  0.5558  0.3966  0.7636
   42MOL   H24317545   3.836   2.518   1.536 -0.5213 -2.7431 -1.1935
   42MOL   H24417546   3.673   2.512   1.492 -3.1990 -1.1559  3.6845
   42MOL   H24517547   3.617   2.379   1.712 -0.0308  0.3091  2.0531
   42MOL   H24617548   3.772   2.423   1.774 -1.4241  1.8911  0.0050
   42MOL   H24717549   3.887   2.273   1.633  0.2664 -2.0384 -0.7163
   42MOL   H24817550   3.746   2.225   1.546 -2.7700  0.7224  0.9554
   42MOL   H24917551   3.633   2.159   1.749  0.6462  4.1064  0.2301
   42MOL   H25017552   3.752   2.051   1.678 -0.9670 -0.8608 -0.2680
   42MOL   H25117553   3.778   2.230   1.923  0.5403  0.5177  0.0356
   42MOL   H25217554   3.762   2.048   1.912  0.4457  0.2607 -2.0037
   42MOL   H25317555   3.916   2.136   1.864  0.4901  0.6866 -3.3725
   42MOL   C25417556   3.565   2.653   1.713 -1.0499  0.2749 -0.5030
   42MOL   C25517557   3.436   2.641   1.638 -0.0791  0.4085 -0.3011
   42MOL   C25617558   3.427   2.738   1.522 -0.6338  0.2210  0.2364
   42MOL   C25717559   3.307   2.742   1.421  0.2054  0.3600 -0.6453
   42MOL   C25817560   3.345   2.820   1.291  0.6302  0.4329 -0.7634
   42MOL   C25917561   3.244   2.796   1.187  0.5626  0.4410 -0.1541
   42MOL   C26017562   3.246   2.655   1.132  0.2064 -0.2094 -0.8466
   42MOL   H26117563   3.556   2.751   1.760  0.1289 -0.0352  0.4221
   42MOL   H26217564   3.561   2.573   1.787  1.3362 -0.7159 -1.3978
   42MOL   H26317565   3.433   2.544   1.587  0.2591  0.1414  0.1742
   42MOL   H26417566   3.519   2.723   1.466 -2.4931 -1.0407 -2.6137
   42MOL   H26517567   3.430   2.837   1.568 -1.4137  0.6579 -0.6232
   42MOL   H26617568   3.291   2.634   1.419  1.1328  0.2262 -1.0874
   42MOL   H26717569   3.217   2.786   1.464 -2.7437 -1.4015 -4.6377
   42MOL   H26817570   3.447   2.803   1.255  0.7728 -2.3556  0.7740
   42MOL   H26917571   3.353   2.923   1.326  0.5381 -0.3386  1.6610
   42MOL   H27017572   3.142   2.824   1.217  0.6960  0.9544 -0.1680
   42MOL   H27117573   3.263   2.863   1.103  0.8715  1.0915  0.4277
   42MOL   H27217574   3.337   2.635   1.075 -0.0399  0.3189 -1.4271
   42MOL   H27317575   3.245   2.570   1.202  0.6442 -0.6026 -1.3142
   42MOL   H27417576   3.163   2.634   1.065 -0.3678  0.0838 -0.2244
   42MOL   C27517577   3.313   2.647   1.724 -0.1032  0.6265  0.3826
   42MOL   C27617578   3.290   2.531   1.833 -0.0542  0.2799  0.4855
   42MOL   C27717579   3.216   2.408   1.752  0.2754  0.1403  0.3612
   42MOL   C27817580   3.265   2.270   1.797  0.4328 -0.0918 -0.1340
   42MOL   C27917581   3.205   2.169   1.706 -0.0954  0.4358  0.5255
   42MOL   C28017582   3.217   2.026   1.756 -0.7672  0.2161  0.2121
   42MOL   C28117583   3.178   1.909   1.660 -0.1952 -0.1893 -0.2058
   42MOL   H28217584   3.229   2.646   1.655  0.3377 -0.9340 -0.1436
   42MOL   H28317585   3.313   2.736   1.788  0.0452  1.2065 -0.4183
   42MOL   H28417586   3.386   2.491   1.868 -0.5708 -0.8821  0.5901
   42MOL   H28517587   3.108   2.406   1.769  0.0875 -0.2914 -0.8317
   42MOL   H28617588   3.227   2.418   1.645  0.9625  1.8795  0.5820
   42MOL   H28717589   3.225   2.270   1.898 -0.0043  2.7032 -0.2594
   42MOL   H28817590   3.372   2.261   1.811  0.3069 -2.1376 -0.4132
   42MOL   H28917591   3.238   2.168   1.602 -0.5229 -3.0418  0.3534
   42MOL   H29017592   3.098   2.187   1.702 -0.2649 -0.5877  0.3289
   42MOL   H29117593   3.321   2.007   1.784 -1.0412 -2.7430 -0.6593
   42MOL   H29217594   3.155   2.008   1.844 -1.3846  1.6841  0.1029
   42MOL   H29317595   3.238   1.922   1.569 -0.3762  0.5042 -0.2337
   42MOL   H29417596   3.074   1.921   1.628  0.0566  1.5896 -0.4345
   42MOL   H29517597   3.195   1.806   1.690  2.0203  0.5087  1.0274
   42MOL   C29617598   3.216   2.575   1.965  0.2563 -0.0789  0.3483
   42MOL   C29717599   3.066   2.622   1.947 -0.5855  0.5769 -0.1948
   42MOL   C29817600   3.058   2.756   1.875  0.6538  0.0974  0.1787
   42MOL   C29917601   3.125   2.871   1.942 -0.3328 -0.2024  0.0241
   42MOL   C30017602   3.135   2.995   1.853  0.4193 -0.0679 -1.3320
   42MOL   C30117603   3.196   3.117   1.922  0.2606  0.5254 -0.1076
   42MOL   C30217604   3.230   3.227   1.835  0.3121  0.0102  0.2450
   42MOL   H30317605   3.213   2.481   2.020  1.2052  1.0558  2.4189
   42MOL   H30417606   3.281   2.634   2.030 -0.8831  1.6508 -0.0426
   42MOL   H30517607   3.010   2.558   1.879  1.3984 -0.8410 -0.5466
   42MOL   H30617608   3.093   2.752   1.772  0.3667  2.3474 -0.0248
   42MOL   H30717609   2.954   2.779   1.854  0.3843 -0.1812  1.1825
   42MOL   H30817610   3.223   2.846   1.982 -0.5389 -1.6753 -0.3645
   42MOL   H30917611   3.065   2.890   2.031  0.2839  1.9974 -0.0150
   42MOL   H31017612   3.036   3.014   1.812 -0.1959 -0.8046 -0.2267
   42MOL   H31117613   3.199   2.976   1.767 -1.2225 -0.5937 -2.4506
   42MOL   H31217614   3.126   3.149   1.999 -0.5810  2.5584 -1.6892
   42MOL   H31317615   3.280   3.077   1.979 -1.1170 -3.1030 -0.5134
   42MOL   H31417616   3.316   3.287   1.866 -0.6278  0.4090  2.1753
   42MOL   H31517617   3.268   3.188   1.740  0.1849  1.8503 -0.5862
   42MOL   H31617618   3.147   3.295   1.817 -0.4092 -0.8157  0.4351
   42MOL   C31717619   2.994   2.622   2.076  0.8333  0.0668 -0.2680
   42MOL   C31817620   2.894   2.505   2.101 -0.7273  0.0049  0.4979
   42MOL   C31917621   2.846   2.512   2.252 -0.1280  1.0010  0.9293
   42MOL   C32017622   2.954   2.466   2.348 -0.6354  0.0484 -0.5836
   42MOL   C32117623   2.899   2.415   2.480 -0.4983  0.2747  0.2213
   42MOL   C32217624   3.002   2.368   2.588  0.1466 -0.0680 -0.0104
   42MOL   C32317625   3.073   2.497   2.636 -0.1145  0.7458  0.0903
   42MOL   H32417626   2.930   2.708   2.096 -0.2582 -0.6296 -0.7062
   42MOL   H32517627   3.063   2.629   2.160  1.5725  0.1270 -0.8838
   42MOL   H32617628   2.947   2.409   2.099 -0.5054  0.0920  1.7762
   42MOL   H32717629   2.759   2.448   2.263 -0.5133  1.3997  0.2829
   42MOL   H32817630   2.807   2.612   2.274 -1.7199  0.4844  0.5537
   42MOL   H32917631   3.030   2.543   2.361 -1.8086  1.6100 -2.6772
   42MOL   H33017632   3.005   2.380   2.305  0.1524  0.2390 -0.0423
   42MOL   H33117633   2.824   2.337   2.469 -2.3689  1.4596  3.8758
   42MOL   H33217634   2.839   2.495   2.524 -0.5627 -0.5200  1.5927
   42MOL   H33317635   3.069   2.290   2.552 -0.0034 -0.3924  0.4080
   42MOL   H33417636   2.945   2.320   2.668  0.5604 -0.3997  0.0816
   42MOL   H33517637   3.157   2.469   2.699 -1.5041 -1.1684  1.1231
   42MOL   H33617638   2.998   2.556   2.689 -0.1111 -0.6301  1.6435
   42MOL   H33717639   3.109   2.562   2.557  1.3164 -1.0845 -0.7940
   42MOL   C33817640   2.780   2.524   1.994 -0.2306 -0.4939 -0.2314
   42MOL   C33917641   2.678   2.407   1.987 -0.2909  0.0188 -0.3648
   42MOL   C34017642   2.709   2.290   1.892 -0.4436 -0.3002  0.5982
   42MOL   C34117643   2.848   2.210   1.911  0.5552  0.2063 -0.1715
   42MOL   C34217644   2.851   2.133   2.043  0.5862 -0.0957 -0.0487
   42MOL   C34317645   2.953   2.017   2.053 -0.0320  0.0043  0.2422
   42MOL   C34417646   2.948   1.933   2.182  0.3650  0.2090  0.1648
   42MOL   H34517647   2.814   2.557   1.896  0.1421 -1.1837 -0.3411
   42MOL   H34617648   2.728   2.617   2.015 -2.7467 -1.9701  0.3150
   42MOL   H34717649   2.675   2.365   2.087 -0.1727 -0.6039 -0.6213
   42MOL   H34817650   2.631   2.214   1.889 -1.0218  0.3056 -0.1106
   42MOL   H34917651   2.726   2.324   1.789  0.0455 -0.0530  0.7577
   42MOL   H35017652   2.930   2.280   1.897 -0.7576  1.6412 -0.9233
   42MOL   H35117653   2.863   2.140   1.828  0.0715  0.8512 -0.8079
   42MOL   H35217654   2.866   2.200   2.128  2.6843  0.2254 -0.6398
   42MOL   H35317655   2.752   2.090   2.052  0.4952  0.0712 -0.2510
   42MOL   H35417656   2.944   1.949   1.968  1.1664 -0.4853  0.4972
   42MOL   H35517657   3.054   2.058   2.051  0.6068 -1.5785 -1.5643
   42MOL   H35617658   3.038   1.874   2.167  0.5272  0.5421 -0.1862
   42MOL   H35717659   2.859   1.874   2.200  0.6321 -0.0342  0.6735
   42MOL   H35817660   2.961   1.993   2.272 -0.4020 -1.9789  1.7749
   42MOL   C35917661   2.541   2.467   1.943  0.2048  0.8696 -0.7970
   42MOL   C36017662   2.412   2.383   1.968 -0.2293  0.3526  0.3327
   42MOL   C36117663   2.397   2.361   2.120  0.2075  0.1653 -0.3164
   42MOL   C36217664   2.292   2.269   2.180 -0.2644 -0.4660 -0.1882
   42MOL   C36317665   2.297   2.123   2.132 -0.1176 -0.1616  0.7171
   42MOL   C36417666   2.211   2.023   2.213  0.5170 -0.0795 -0.2973
   42MOL   C36517667   2.225   1.882   2.160 -0.6036 -0.0273 -0.2403
   42MOL   H36617668   2.538   2.484   1.836  0.1394 -0.7848 -1.0792
   42MOL   H36717669   2.520   2.560   1.995  1.4257 -0.0579  1.4690
   42MOL   H36817670   2.430   2.283   1.927 -1.5601  0.2460 -0.0245
   42MOL   H36917671   2.485   2.322   2.169  1.6726  0.6812 -2.4859
   42MOL   H37017672   2.385   2.455   2.174  4.0475  0.5340  0.0128
   42MOL   H37117673   2.298   2.280   2.288  2.3552  1.8364 -0.5268
   42MOL   H37217674   2.190   2.302   2.162 -0.0224  1.0699  1.1071
   42MOL   H37317675   2.274   2.117   2.026  0.4436  0.2522  0.5706
   42MOL   H37417676   2.399   2.086   2.142 -0.8479 -2.7851 -1.0572
   42MOL   H37517677   2.252   2.035   2.314  0.5230  1.4701 -0.4713
   42MOL   H37617678   2.105   2.046   2.208  0.2721 -1.1250  0.1170
   42MOL   H37717679   2.323   1.849   2.194 -0.0563 -0.1618 -1.8942
   42MOL   H37817680   2.153   1.814   2.206  0.2829 -0.7414  0.1161
   42MOL   H37917681   2.208   1.871   2.053  1.4746 -0.7021 -0.5230
   42MOL   C38017682   2.288   2.449   1.904  0.1731 -0.3456  0.1058
   42MOL   C38117683   2.287   2.470   1.752  0.0503 -0.0503 -0.7153
   42MOL   C38217684   2.336   2.350   1.669  0.2521  0.3352 -0.9012
   42MOL   C38317685   2.367   2.381   1.523 -0.8037 -0.1107 -0.4317
   42MOL   C38417686   2.423   2.263   1.439 -0.5444 -0.1070  0.2664
   42MOL   C38517687   2.471   2.295   1.298 -0.2639  0.4770 -0.1930
   42MOL   C38617688   2.503   2.168   1.215 -0.7804  0.3538  0.1185
   42MOL   H38717689   2.205   2.380   1.923  0.0311 -1.5196 -4.1815
   42MOL   H38817690   2.273   2.546   1.951  1.7591 -0.3052  0.5510
   42MOL   H38917691   2.355   2.553   1.732  1.0789 -0.2401  1.8319
   42MOL   H39017692   2.269   2.265   1.679  2.7552 -1.4945  1.0452
   42MOL   H39117693   2.430   2.312   1.709 -0.5893 -1.5583 -0.6599
   42MOL   H39217694   2.281   2.419   1.468 -1.8421 -2.6280 -0.6242
   42MOL   H39317695   2.448   2.454   1.512  0.4075 -1.5371 -1.2086
   42MOL   H39417696   2.502   2.227   1.505 -0.1976 -0.7952 -0.5153
   42MOL   H39517697   2.353   2.180   1.423  0.2243 -0.7163  0.0321
   42MOL   H39617698   2.561   2.355   1.299 -0.3754  0.6545 -0.6314
   42MOL   H39717699   2.389   2.355   1.258 -0.6262  1.1876  1.5738
   42MOL   H39817700   2.585   2.116   1.263 -1.2506  0.3095  0.8858
   42MOL   H39917701   2.547   2.187   1.117  0.1297 -1.7391  0.1103
   42MOL   H40017702   2.424   2.093   1.203 -0.8686  0.3967  0.4453
   42MOL   C40117703   2.147   2.504   1.702 -0.2770 -0.5307  0.4175
   42MOL   C40217704   2.095   2.633   1.770  0.6503  0.1116  0.3234
   42MOL   C40317705   1.964   2.686   1.713 -0.6364  0.3285  0.7611
   42MOL   C40417706   1.847   2.609   1.761 -0.5964 -0.6061  0.0691
   42MOL   C40517707   1.716   2.667   1.698 -0.9345  0.1301 -0.2668
   42MOL   C40617708   1.597   2.576   1.711 -0.5080 -0.2017 -0.0023
   42MOL   C40717709   1.595   2.448   1.624  0.1607  0.1687  0.1884
   42MOL   H40817710   2.076   2.421   1.698  1.1030 -1.8752  2.5306
   42MOL   H40917711   2.160   2.539   1.600 -1.0009 -2.1012 -0.2284
   42MOL   H41017712   2.173   2.708   1.759  0.0681  0.8402  1.0623
   42MOL   H41117713   1.965   2.689   1.604 -0.6694  1.2981  0.7832
   42MOL   H41217714   1.950   2.791   1.738 -3.1371  0.1270  0.2717
   42MOL   H41317715   1.837   2.608   1.870 -0.6197  1.5824  0.1108
   42MOL   H41417716   1.858   2.508   1.723  2.1447  0.2817 -1.6161
   42MOL   H41517717   1.697   2.761   1.750 -1.8660  0.6398 -1.4899
   42MOL   H41617718   1.741   2.696   1.596  1.0055 -2.0024 -0.4366
   42MOL   H41717719   1.605   2.532   1.810 -2.6858  1.2583  0.8378
   42MOL   H41817720   1.499   2.623   1.702  0.0825  1.0702  0.1441
   42MOL   H41917721   1.680   2.381   1.635 -0.9724 -1.1801  0.9046
   42MOL   H42017722   1.580   2.473   1.519 -0.8340 -0.6821  0.1210
   42MOL   H42117723   1.515   2.389   1.669 -0.1981 -0.3513 -1.1092
   42MOL   H42217724   2.086   2.603   1.875  0.7518  0.8547  0.5522
   43MOL     C117725   7.103   6.622   6.805  0.0006  0.1315 -0.3868
   43MOL     C217726   7.064   6.513   6.699  0.6127  0.4508 -0.0573
   43MOL     C317727   7.081   6.372   6.769  0.6682  0.7003  0.5792
   43MOL     C417728   7.214   6.342   6.841  0.5787  0.1026  0.3484
   43MOL     C517729   7.228   6.197   6.880 -0.0874 -0.1125  0.0679
   43MOL     C617730   7.379   6.160   6.914 -0.0098 -0.0913 -0.5360
   43MOL     C717731   7.382   6.016   6.969 -0.1916 -0.3248 -0.5816
   43MOL     H817732   7.211   6.617   6.822 -0.0685 -0.4750 -0.1259
   43MOL     H917733   7.036   6.610   6.890  0.1860 -0.8567 -0.3655
   43MOL    H1017734   6.958   6.532   6.679  0.6444  2.2719  1.3840
   43MOL    H1117735   7.008   6.361   6.849 -1.5962 -0.6012 -1.6267
   43MOL    H1217736   7.064   6.305   6.686  0.6255  0.8430  0.4728
   43MOL    H1317737   7.303   6.369   6.784  0.3509  0.3715  0.1162
   43MOL    H1417738   7.229   6.397   6.934  0.0818 -0.7498  0.9373
   43MOL    H1517739   7.199   6.137   6.795  0.9718 -1.3273  0.5514
   43MOL    H1617740   7.160   6.174   6.962  0.9273 -3.4204  0.0301
   43MOL    H1717741   7.423   6.231   6.984  2.0312  0.1493 -2.0410
   43MOL    H1817742   7.447   6.165   6.830  1.2429 -1.1916  0.3933
   43MOL    H1917743   7.335   5.954   6.893  0.8241  1.9042 -3.1336
   43MOL    H2017744   7.327   6.020   7.063  1.2127 -0.0122  0.2339
   43MOL    H2117745   7.486   5.991   6.988 -0.4900  1.2413  3.6249
   43MOL    H2217746   7.084   6.725   6.776  0.8246  0.7972  1.3599
   43MOL    C2317747   7.144   6.530   6.568  0.0049 -0.0842  0.2175
   43MOL    C2417748   7.125   6.677   6.510  0.1998 -0.0058 -0.1312
   43MOL    C2517749   6.980   6.700   6.450 -0.1223  0.0529  0.3673
   43MOL    C2617750   6.876   6.783   6.526  0.1802  0.0246 -0.0746
   43MOL    C2717751   6.728   6.760   6.494 -0.1022  0.2644 -1.1062
   43MOL    C2817752   6.637   6.834   6.599  0.0004  0.8759  0.3845
   43MOL    C2917753   6.487   6.799   6.563 -0.4606  0.1554  0.7882
   43MOL    H3017754   7.250   6.514   6.582 -0.1612  0.2504  1.9579
   43MOL    H3117755   7.110   6.457   6.495  0.9660  0.4391 -0.7732
   43MOL    H3217756   7.128   6.759   6.581  0.2222 -0.4191  0.3444
   43MOL    H3317757   6.936   6.600   6.446  0.9719 -0.3644 -1.3301
   43MOL    H3417758   6.982   6.733   6.346  1.8100 -0.2021  0.3177
   43MOL    H3517759   6.897   6.890   6.532 -0.9655  0.1482  2.3675
   43MOL    H3617760   6.890   6.760   6.632 -1.6519  3.3546  0.9673
   43MOL    H3717761   6.714   6.652   6.495  2.5334 -0.1116  0.9687
   43MOL    H3817762   6.718   6.805   6.395 -0.4678  0.0992 -1.1459
   43MOL    H3917763   6.649   6.942   6.594  4.3800  0.4600  0.5196
   43MOL    H4017764   6.658   6.804   6.701  2.3248 -0.5062 -0.4815
   43MOL    H4117765   6.498   6.777   6.457  1.9022  1.8301  0.6486
   43MOL    H4217766   6.459   6.704   6.609  0.7847 -1.2212 -1.1658
   43MOL    H4317767   6.415   6.880   6.571 -1.2752 -0.4128 -0.6035
   43MOL    C4417768   7.244   6.686   6.414 -0.3418 -0.4893 -0.4925
   43MOL    C4517769   7.247   6.803   6.306 -0.0359  0.1704  0.6063
   43MOL    C4617770   7.175   6.765   6.172 -0.5461 -0.2065 -0.1192
   43MOL    C4717771   7.201   6.626   6.120  0.9232  0.4324  0.6587
   43MOL    C4817772   7.177   6.617   5.963  0.0966  0.0840 -0.3814
   43MOL    C4917773   7.305   6.655   5.889 -0.1218 -0.0015  0.6981
   43MOL    C5017774   7.284   6.640   5.738 -0.2062 -0.3011  0.5447
   43MOL    H5117775   7.258   6.589   6.366  0.6157 -0.9419  0.6812
   43MOL    H5217776   7.325   6.714   6.481 -0.9737 -0.2068  0.1661
   43MOL    H5317777   7.350   6.808   6.271  0.3951  0.6990  1.9461
   43MOL    H5417778   7.203   6.839   6.097 -1.7274 -0.2929 -0.6637
   43MOL    H5517779   7.066   6.770   6.175 -0.5056  0.9079 -0.1911
   43MOL    H5617780   7.303   6.595   6.144 -0.3760 -2.0165  3.3051
   43MOL    H5717781   7.146   6.549   6.175 -3.2693  1.8148 -1.3713
   43MOL    H5817782   7.086   6.674   5.945  0.4467  1.2431  1.3990
   43MOL    H5917783   7.146   6.517   5.931  0.1517  0.4889 -1.7222
   43MOL    H6017784   7.389   6.599   5.931  0.0878 -0.2544 -0.0585
   43MOL    H6117785   7.350   6.751   5.916 -0.6051  0.5949 -0.5635
   43MOL    H6217786   7.240   6.541   5.722  0.9617 -0.6771 -0.4178
   43MOL    H6317787   7.370   6.640   5.672 -0.0750 -0.4269  0.7152
   43MOL    H6417788   7.207   6.707   5.700 -1.1359 -1.8517 -0.3762
   43MOL    C6517789   7.216   6.953   6.346 -0.2035 -0.4138  0.4128
   43MOL    C6617790   7.317   7.005   6.450 -0.1695 -0.2384  0.2961
   43MOL    C6717791   7.261   7.136   6.522  0.5140 -0.1125 -0.2000
   43MOL    C6817792   7.123   7.129   6.592 -0.0771  0.1571 -0.1052
   43MOL    C6917793   7.088   7.273   6.640  0.3979 -0.1983 -0.0692
   43MOL    C7017794   6.946   7.288   6.707 -1.2011 -0.0550 -0.2584
   43MOL    C7117795   6.922   7.439   6.744 -0.0077  0.1595 -0.1827
   43MOL    H7217796   7.202   7.021   6.262  1.6812  1.1966  1.3448
   43MOL    H7317797   7.118   6.961   6.394  0.3841  0.9203  1.4353
   43MOL    H7417798   7.332   6.934   6.532  0.7787 -0.8141 -0.3704
   43MOL    H7517799   7.330   7.189   6.588 -0.5759 -0.0678  0.9217
   43MOL    H7617800   7.260   7.211   6.443  0.9518 -0.4812 -0.5597
   43MOL    H7717801   7.042   7.090   6.529  1.9086 -0.5845 -2.2679
   43MOL    H7817802   7.135   7.059   6.675 -3.0402 -0.0019  0.2772
   43MOL    H7917803   7.157   7.313   6.715 -1.9742  0.1706  1.9816
   43MOL    H8017804   7.087   7.335   6.551 -0.0803 -1.7746 -1.1759
   43MOL    H8117805   6.929   7.214   6.785  2.0713 -2.2448 -1.5293
   43MOL    H8217806   6.869   7.241   6.646 -2.1260 -0.3353  1.1030
   43MOL    H8317807   6.834   7.444   6.809  0.9274  1.4904  1.0077
   43MOL    H8417808   7.010   7.470   6.800 -0.9791  1.0420  0.8757
   43MOL    H8517809   6.915   7.501   6.655  0.8937 -1.3396 -1.3044
   43MOL    C8617810   7.455   7.044   6.379 -0.0643  0.2743 -0.1031
   43MOL    C8717811   7.571   7.093   6.473  0.5687  0.3760 -0.1307
   43MOL    C8817812   7.600   7.001   6.594  0.0615 -0.3978  1.2600
   43MOL    C8917813   7.596   6.845   6.577  0.1294 -0.7876  0.2475
   43MOL    C9017814   7.586   6.772   6.709  0.2165  0.0711 -0.3369
   43MOL    C9117815   7.578   6.617   6.704  0.1743 -0.0612  0.5947
   43MOL    C9217816   7.554   6.548   6.842 -0.1732  0.0254  0.1570
   43MOL    H9317817   7.504   6.966   6.320  0.2201  0.9204 -0.7310
   43MOL    H9417818   7.434   7.127   6.311  2.8134 -1.1475 -2.8484
   43MOL    H9517819   7.526   7.184   6.513  3.0265  1.7000 -0.2744
   43MOL    H9617820   7.692   7.029   6.647  0.8916 -2.7630  1.0969
   43MOL    H9717821   7.529   7.021   6.675  1.1738  1.1325  1.8940
   43MOL    H9817822   7.515   6.809   6.514 -2.3201  0.9594  2.2674
   43MOL    H9917823   7.687   6.811   6.528 -0.0519  0.3554 -0.8996
   43MOL   H10017824   7.498   6.808   6.761 -0.7948 -1.8640 -0.6877
   43MOL   H10117825   7.674   6.803   6.766 -1.2752  1.8926  1.0516
   43MOL   H10217826   7.499   6.578   6.640 -1.0503 -1.2800  2.8041
   43MOL   H10317827   7.666   6.573   6.657  0.0734 -0.5826  0.8932
   43MOL   H10417828   7.552   6.441   6.823 -1.0211  0.0168  0.3078
   43MOL   H10517829   7.461   6.587   6.883  0.3683  0.1420  1.2904
   43MOL   H10617830   7.632   6.563   6.917  0.5579 -0.5697 -0.4860
   43MOL   C10717831   7.697   7.132   6.395  0.2796 -0.4880  0.1869
   43MOL   C10817832   7.669   7.237   6.291  0.2539  0.0617  0.5362
   43MOL   C10917833   7.620   7.377   6.333 -0.4082  0.2900  0.0357
   43MOL   C11017834   0.018   7.441   6.419  0.7433  0.0802  0.6766
   43MOL   C11117835   0.002   7.598   6.418 -0.0668 -0.3622  0.0008
   43MOL   C11217836   0.118   7.665   6.496 -0.2535 -0.1687 -0.0564
   43MOL   C11317837   0.156   0.091   6.442  1.5854  0.9397 -0.6180
   43MOL   H11417838   0.025   7.046   6.342  1.7399  0.5506 -0.4214
   43MOL   H11517839   0.064   7.161   6.463  1.2906  0.4464 -1.3596
   43MOL   H11617840   7.588   7.211   6.223  1.2949  0.2998 -0.7975
   43MOL   H11717841   7.524   7.380   6.385  0.3579 -2.5469  1.7071
   43MOL   H11817842   7.613   7.448   6.250  0.2577  2.1749  1.5520
   43MOL   H11917843   0.012   7.404   6.521  0.1534  0.2147  0.6895
   43MOL   H12017844   0.114   7.424   6.370  0.1033 -0.2206 -0.4803
   43MOL   H12117845   7.619   7.622   6.463 -0.4946  0.0256 -1.1137
   43MOL   H12217846   0.005   7.633   6.315 -0.1316 -3.1304 -0.9887
   43MOL   H12317847   0.081   7.679   6.598  1.0213  0.9729  0.2619
   43MOL   H12417848   0.200   7.592   6.498 -0.9126 -0.8977  1.1281
   43MOL   H12517849   0.072   0.155   6.413  1.8597  1.0969 -1.0735
   43MOL   H12617850   0.216   0.143   6.516  0.0269 -0.4100  1.6455
   43MOL   H12717851   0.230   0.077   6.363  3.4863  1.2224  1.0500
   43MOL   C12817852   0.080   7.243   6.189  0.7355 -0.0250 -0.1952
   43MOL   C12917853   0.070   7.330   6.056 -0.3439 -0.4062 -0.6876
   43MOL   C13017854   7.662   7.307   5.973 -0.0987  0.2806 -0.1833
   43MOL   C13117855   7.636   7.160   5.922  0.1767  0.7063 -0.1638
   43MOL   C13217856   7.518   7.138   5.826 -0.3584  0.0105  0.3691
   43MOL   C13317857   7.380   7.173   5.883 -0.2123 -0.4461 -0.2235
   43MOL   C13417858   7.318   7.066   5.981  0.3004 -0.1088  0.1696
   43MOL   H13517859   0.171   7.266   6.244  1.1888 -0.7785 -0.6334
   43MOL   H13617860   0.103   7.139   6.167  0.2325  0.1073 -1.3583
   43MOL   H13717861   0.062   7.433   6.092  0.1517  0.3101 -2.5706
   43MOL   H13817862   7.668   7.371   5.885 -1.1647 -0.7859 -1.0437
   43MOL   H13917863   7.577   7.339   6.033 -1.6919 -4.5096  0.3201
   43MOL   H14017864   7.635   7.089   6.004 -3.0471  0.0170 -0.7235
   43MOL   H14117865   0.007   7.140   5.856  0.1001 -1.1550  0.2766
   43MOL   H14217866   7.512   7.034   5.796  1.5086 -1.2118  3.9399
   43MOL   H14317867   7.530   7.193   5.732  0.4999 -3.4904 -1.6331
   43MOL   H14417868   7.306   7.181   5.802  0.8540 -0.6322 -1.2255
   43MOL   H14517869   7.386   7.276   5.919 -1.0360 -0.0679 -1.1187
   43MOL   H14617870   7.378   7.076   6.072 -1.6577  0.7411  1.3939
   43MOL   H14717871   7.311   6.961   5.950 -2.1220  0.1432 -0.2137
   43MOL   H14817872   7.223   7.107   6.016  1.4079  0.0060  3.1741
   43MOL   C14917873   0.204   7.334   5.977 -0.0255  0.6405 -0.6829
   43MOL   C15017874   0.274   7.474   5.979 -0.5030  0.0587  0.1315
   43MOL   C15117875   0.330   7.528   6.114  0.2719 -0.4353  0.2279
   43MOL   C15217876   0.433   7.431   6.182 -0.4536  0.2133 -0.1142
   43MOL   C15317877   0.485   7.482   6.317 -0.6137  0.4834  0.2568
   43MOL   C15417878   0.570   7.389   6.399  0.5155  0.0392  0.0752
   43MOL   C15517879   0.646   7.451   6.512  0.0310 -0.1290 -0.8431
   43MOL   H15617880   0.276   7.260   6.011  0.7953  2.6082  1.9844
   43MOL   H15717881   0.193   7.302   5.873  1.4673  0.8011 -0.8869
   43MOL   H15817882   0.370   7.451   5.932 -0.6722 -3.1412  1.2170
   43MOL   H15917883   0.374   7.627   6.100  2.7800 -1.6530 -0.8738
   43MOL   H16017884   0.244   7.527   6.180 -2.6932 -1.0855 -3.5014
   43MOL   H16117885   0.524   7.423   6.122  0.5074  1.0980  1.2036
   43MOL   H16217886   0.396   7.329   6.199 -0.3844 -0.1032 -1.7237
   43MOL   H16317887   0.402   7.509   6.382 -1.7560 -1.7316 -0.2437
   43MOL   H16417888   0.531   7.581   6.313 -0.7199  0.4730 -1.7057
   43MOL   H16517889   0.643   7.328   6.347  1.0274  1.6284 -1.1196
   43MOL   H16617890   0.514   7.305   6.439  0.4037  0.4219  0.7382
   43MOL   H16717891   0.725   7.380   6.540  1.0086  1.4477  0.4933
   43MOL   H16817892   0.576   7.490   6.584  1.6200 -0.4389  0.9052
   43MOL   H16917893   0.691   7.541   6.469  1.6897 -0.2773  0.5481
   43MOL   C17017894   0.203   7.586   5.891  0.7424  0.7689  0.0157
   43MOL   C17117895   0.244   7.579   5.743 -0.1884  0.2133  0.2259
   43MOL   C17217896   0.118   7.571   5.650  0.4991 -0.0045 -0.1232
   43MOL   C17317897   0.052   7.711   5.629  0.2531 -0.1271 -0.9569
   43MOL   C17417898   7.616   7.703   5.609  0.4150 -0.6038  0.3964
   43MOL   C17517899   7.558   0.110   5.535 -0.1221  0.0373 -0.1306
   43MOL   C17617900   7.589   0.117   5.385 -0.8074  0.0631  0.0271
   43MOL   H17717901   0.231   7.684   5.928  1.7217  1.2340 -1.8970
   43MOL   H17817902   0.095   7.573   5.898  0.8698 -0.2829  0.0854
   43MOL   H17917903   0.294   7.483   5.735 -0.4783  0.1504 -0.9355
   43MOL   H18017904   0.048   7.500   5.693 -1.0604  0.9983 -0.9469
   43MOL   H18117905   0.139   7.540   5.548  2.2935  0.4213  0.0882
   43MOL   H18217906   0.103   0.050   5.548  2.8001 -2.1875 -0.7479
   43MOL   H18317907   0.073   0.066   5.711  2.0558 -2.2326  0.3934
   43MOL   H18417908   7.575   7.700   5.709  2.1548 -0.4065  1.1357
   43MOL   H18517909   7.598   7.606   5.562  3.2550 -0.8941 -0.1897
   43MOL   H18617910   7.588   0.200   5.588 -1.6363  1.1072 -1.0506
   43MOL   H18717911   7.450   0.114   5.549 -0.1204  1.3712 -0.4198
   43MOL   H18817912   7.533   0.043   5.327  0.0012 -1.3387  1.0162
   43MOL   H18917913   7.697   0.114   5.369 -1.2302 -1.8632 -2.8064
   43MOL   H19017914   7.555   0.211   5.340  3.3772  1.2948 -0.7920
   43MOL   C19117915   0.349   7.692   5.696  0.6704  0.8065  0.7702
   43MOL   C19217916   0.448   7.650   5.582 -0.2498 -0.0845  0.5679
   43MOL   C19317917   0.479   0.059   5.487  0.0082  0.0281 -0.0896
   43MOL   C19417918   0.546   0.178   5.561  0.0869 -0.0592  0.3018
   43MOL   C19517919   0.576   0.295   5.467  0.8385 -0.4892 -0.3562
   43MOL   C19617920   0.465   0.354   5.368  0.4185 -0.0174 -0.0154
   43MOL   C19717921   0.502   0.480   5.296  0.2289 -0.3040  0.0398
   43MOL   H19817922   0.412   0.007   5.780 -1.3217 -1.4762  3.1307
   43MOL   H19917923   0.292   0.067   5.670  0.8680  0.3550 -1.2728
   43MOL   H20017924   0.396   7.571   5.526  0.9503  0.6792 -1.6687
   43MOL   H20117925   0.378   0.083   5.453 -1.2404 -1.0219  2.7050
   43MOL   H20217926   0.539   0.024   5.403 -0.5805 -1.4331  0.0811
   43MOL   H20317927   0.640   0.147   5.607  0.0032 -0.7071  0.0361
   43MOL   H20417928   0.483   0.225   5.638  0.9861 -0.4118  1.2614
   43MOL   H20517929   0.628   0.381   5.508  0.9533 -0.4299 -0.6288
   43MOL   H20617930   0.644   0.253   5.392  1.5863 -1.3412  0.7814
   43MOL   H20717931   0.379   0.366   5.433  0.4636  0.1698  0.0098
   43MOL   H20817932   0.443   0.278   5.293  1.4724 -0.0760 -0.2663
   43MOL   H20917933   0.594   0.483   5.239  0.5136  0.7773  0.5469
   43MOL   H21017934   0.521   0.549   5.378 -0.1781 -0.8257  0.5756
   43MOL   H21117935   0.416   0.524   5.244 -1.1039 -0.6151  1.9270
   43MOL   C21217936   0.572   7.588   5.649  0.8362 -0.1111 -0.1028
   43MOL   C21317937   0.675   7.523   5.556 -0.1272 -0.0315  0.0268
   43MOL   C21417938   0.817   7.520   5.611 -0.3166  0.7578  0.2356
   43MOL   C21517939   0.885   7.655   5.621  0.6686 -0.1577  0.2527
   43MOL   C21617940   1.024   7.644   5.683 -0.6618 -0.2337  0.2514
   43MOL   C21717941   1.092   0.064   5.711  0.4245 -0.0857 -0.7544
   43MOL   C21817942   1.220   0.061   5.799  0.0671  0.2483  0.5246
   43MOL   H21917943   0.555   7.504   5.717 -0.2333  1.0557  1.1071
   43MOL   H22017944   0.606   7.668   5.715  1.0630 -1.6948  1.7481
   43MOL   H22117945   0.682   7.581   5.464 -1.4425  1.8385  1.0724
   43MOL   H22217946   0.830   7.451   5.694  1.8325 -1.2564 -1.6940
   43MOL   H22317947   0.875   7.474   5.531 -1.3215 -0.3494  0.1172
   43MOL   H22417948   0.821   0.010   5.676  0.7963 -0.8928  1.3320
   43MOL   H22517949   0.886   7.710   5.527 -0.8594  1.8878  1.3940
   43MOL   H22617950   1.020   7.595   5.781 -1.2821  2.0382  1.3884
   43MOL   H22717951   1.096   7.589   5.622 -0.8800  2.0236 -2.1443
   43MOL   H22817952   1.124   0.113   5.619  1.7617 -1.6336 -1.1345
   43MOL   H22917953   1.026   0.137   5.758  0.2865  0.1145 -1.2591
   43MOL   H23017954   1.194   0.054   5.905  1.3910 -2.7556  0.6936
   43MOL   H23117955   1.281   0.149   5.777  2.3174 -1.4878 -0.3535
   43MOL   H23217956   1.278   7.685   5.777  1.0067  1.4484 -2.0933
   43MOL   C23317957   0.621   7.384   5.510 -0.1755  0.4038  0.7201
   43MOL   C23417958   0.673   7.335   5.371 -0.1375 -0.6615 -0.1281
   43MOL   C23517959   0.667   7.180   5.370 -0.1591  1.1978 -0.3338
   43MOL   C23617960   0.534   7.113   5.416  0.3144 -0.1013  0.5854
   43MOL   C23717961   0.558   6.969   5.410 -0.1806  0.4534  0.1287
   43MOL   C23817962   0.445   6.869   5.460  0.1445  0.0215  0.2230
   43MOL   C23917963   0.481   6.720   5.433 -0.1799  0.4100  0.4552
   43MOL   H24017964   0.513   7.380   5.521 -0.5479  0.0058 -2.4944
   43MOL   H24117965   0.657   7.317   5.588 -0.9923 -1.6691 -0.6210
   43MOL   H24217966   0.779   7.359   5.370  0.1895 -1.9022  2.0150
   43MOL   H24317967   0.730   7.143   5.451 -0.4725 -0.2855 -0.7422
   43MOL   H24417968   0.705   7.138   5.277  0.0340  0.8218 -0.0894
   43MOL   H24517969   0.448   7.148   5.358 -0.8586 -1.3053  1.5567
   43MOL   H24617970   0.519   7.139   5.521 -0.2611  0.8932  0.2659
   43MOL   H24717971   0.641   6.944   5.477 -0.9975 -1.4952  0.4494
   43MOL   H24817972   0.592   6.948   5.309  2.0406 -2.6460  1.4374
   43MOL   H24917973   0.433   6.884   5.568  0.4171  0.5061  0.1902
   43MOL   H25017974   0.349   6.895   5.415  1.3064  1.2545 -1.5833
   43MOL   H25117975   0.442   6.639   5.495  2.6915  1.3112  3.5522
   43MOL   H25217976   0.467   6.690   5.329  0.1148  0.8860  0.2789
   43MOL   H25317977   0.587   6.715   5.458 -0.4058 -1.3338  1.1270
   43MOL   C25417978   0.608   7.403   5.253  0.3459  0.3110 -0.0574
   43MOL   C25517979   0.700   7.494   5.167 -0.1007  0.7095 -0.2185
   43MOL   C25617980   0.621   7.615   5.099 -0.4686 -0.6175 -0.5006
   43MOL   C25717981   0.526   7.582   4.994  0.0541  0.5853 -0.0815
   43MOL   C25817982   0.429   7.698   4.967  0.0536  0.6849  0.3324
   43MOL   C25917983   0.314   7.663   4.867  0.4828 -0.3114 -0.3613
   43MOL   C26017984   0.365   7.634   4.725  0.5742  0.6849 -0.4700
   43MOL   H26117985   0.531   7.471   5.290 -0.4643 -0.6294  0.0018
   43MOL   H26217986   0.558   7.324   5.197  0.2808 -1.8351  2.9444
   43MOL   H26317987   0.775   7.543   5.229  1.7266 -0.3584 -1.5494
   43MOL   H26417988   0.693   7.684   5.054 -1.1792  0.3207 -0.2355
   43MOL   H26517989   0.571   7.663   5.184 -1.3553 -2.3791 -0.0108
   43MOL   H26617990   0.586   7.561   4.905 -1.1915  0.7032 -0.9778
   43MOL   H26717991   0.465   7.498   5.029  1.3325 -0.0177  0.7018
   43MOL   H26817992   0.484   0.063   4.914  0.8174  1.5851  2.4242
   43MOL   H26917993   0.387   0.026   5.058  2.0759 -0.6335  1.9052
   43MOL   H27017994   0.247   7.581   4.892  0.0918 -0.3031 -1.3880
   43MOL   H27117995   0.252   0.038   4.857  1.4508  0.7216  2.2858
   43MOL   H27217996   0.429   7.547   4.717  2.2997  1.8657  0.2838
   43MOL   H27317997   0.282   7.612   4.658 -0.6364  1.8738  0.6010
   43MOL   H27417998   0.410   0.005   4.673  0.3431  0.6926 -0.6625
   43MOL   C27517999   0.783   7.403   5.070  0.1362  0.0242  0.0988
   43MOL   C27618000   0.890   7.466   4.969  0.0886  0.2269 -0.3330
   43MOL   C27718001   0.918   7.388   4.833 -0.5123  0.0020 -0.9819
   43MOL   C27818002   0.801   7.402   4.736 -0.4120  0.3545  1.2065
   43MOL   C27918003   0.795   7.537   4.665  0.5744 -0.1787  0.7078
   43MOL   C28018004   0.719   7.534   4.537  0.3079  0.2078  0.0554
   43MOL   C28118005   0.715   7.677   4.470 -0.0851 -0.5809 -0.3543
   43MOL   H28218006   0.697   7.357   5.022 -1.3378  1.0061  1.7684
   43MOL   H28318007   0.841   7.326   5.121 -1.8671 -0.1101  2.2275
   43MOL   H28418008   0.843   7.557   4.930 -0.3186 -0.1649 -0.7624
   43MOL   H28518009   1.010   7.426   4.789  1.1495 -2.5680  0.2081
   43MOL   H28618010   0.940   7.283   4.852  0.8766  0.6644  1.3091
   43MOL   H28718011   0.706   7.382   4.784 -0.0404 -1.8575  1.0698
   43MOL   H28818012   0.806   7.325   4.659 -1.7852 -0.6979  2.1389
   43MOL   H28918013   0.896   7.570   4.643  0.7361 -0.9899  0.2203
   43MOL   H29018014   0.742   7.602   4.735  1.3353  2.0549 -0.7653
   43MOL   H29118015   0.762   7.466   4.464 -1.8052 -1.2978  0.1755
   43MOL   H29218016   0.621   7.488   4.548 -0.3049  0.5695 -3.5434
   43MOL   H29318017   0.682   0.034   4.546  3.5461  1.5574 -0.6300
   43MOL   H29418018   0.648   7.678   4.385 -0.3878 -1.0734 -0.1208
   43MOL   H29518019   0.816   7.708   4.441 -0.3286 -0.7967 -1.4475
   43MOL   C29618020   1.030   7.496   5.033 -0.1043 -0.7846  0.3388
   43MOL   C29718021   1.097   7.622   4.975 -0.0752  0.6000 -0.3163
   43MOL   C29818022   1.251   7.617   4.982  0.2062  0.9986  0.5972
   43MOL   C29918023   1.322   7.492   4.923 -0.2738 -0.4414 -0.5716
   43MOL   C30018024   1.466   7.522   4.882 -0.4277 -0.0535 -0.1185
   43MOL   C30118025   1.481   7.599   4.751 -0.3507  0.0856 -0.5065
   43MOL   C30218026   1.589   7.705   4.755 -0.9704  0.5202  0.4750
   43MOL   H30318027   1.018   7.516   5.140 -0.0179  2.3759 -0.2094
   43MOL   H30418028   1.098   7.411   5.025  0.6936 -0.2225  1.0294
   43MOL   H30518029   1.068   7.613   4.870 -0.7027  2.3029 -0.2965
   43MOL   H30618030   1.293   7.706   4.936 -1.2830  2.7041  2.4310
   43MOL   H30718031   1.287   7.629   5.085  1.5259 -0.5018  0.3346
   43MOL   H30818032   1.276   7.449   4.834 -0.7281  1.1090 -1.0981
   43MOL   H30918033   1.328   7.413   4.999 -0.2520  0.8210  0.7594
   43MOL   H31018034   1.529   7.433   4.890  1.1456  1.1345  0.8400
   43MOL   H31118035   1.511   7.583   4.959  0.4578  1.4867 -1.8290
   43MOL   H31218036   1.500   7.529   4.670  0.7652  0.5141 -0.6131
   43MOL   H31318037   1.390   7.652   4.721  1.2003  1.4389 -2.9699
   43MOL   H31418038   1.602   0.035   4.656 -0.4377 -1.7474 -0.4991
   43MOL   H31518039   1.590   0.072   4.829  3.9216 -0.0439  1.2443
   43MOL   H31618040   1.683   7.650   4.772 -2.6312 -1.9391  2.0766
   43MOL   C31718041   1.039   0.038   5.039  0.0736  0.0205  0.8874
   43MOL   C31818042   1.054   0.168   4.954 -0.5223  0.4265  0.4498
   43MOL   C31918043   1.003   0.153   4.805  0.1450 -0.9269  0.1320
   43MOL   C32018044   1.101   0.178   4.693  0.4136  0.2533 -0.0758
   43MOL   C32118045   1.040   0.153   4.557 -0.5400  0.1765 -0.2812
   43MOL   C32218046   1.148   0.180   4.449  0.0537 -0.0107  0.4010
   43MOL   C32318047   1.095   0.159   4.302  0.3148 -0.1402 -0.3310
   43MOL   H32418048   1.075   0.051   5.141  1.2036  3.1819  0.1603
   43MOL   H32518049   0.932   0.023   5.047 -0.1043  0.4290 -0.5914
   43MOL   H32618050   1.161   0.181   4.940 -0.5943  1.6163  0.9331
   43MOL   H32718051   0.910   0.210   4.794  0.4156 -0.3523  0.7565
   43MOL   H32818052   0.957   0.056   4.787  0.2179 -0.9379  0.0054
   43MOL   H32918053   1.200   0.135   4.700  0.3375  0.1019  0.0914
   43MOL   H33018054   1.126   0.284   4.689 -1.6445  0.8223  1.1364
   43MOL   H33118055   0.964   0.231   4.544 -2.6825 -1.6486  1.0872
   43MOL   H33218056   0.980   0.063   4.548  0.3359 -0.5496  0.9769
   43MOL   H33318057   1.239   0.121   4.463  0.1122 -0.0599 -0.1723
   43MOL   H33418058   1.182   0.283   4.463  2.4485 -0.4036 -2.0704
   43MOL   H33518059   1.009   0.223   4.280 -0.3076 -1.7983 -2.9895
   43MOL   H33618060   1.052   0.059   4.296  1.2095 -0.4529 -1.5479
   43MOL   H33718061   1.162   0.184   4.220 -1.2992  2.4528 -0.9300
   43MOL   C33818062   1.008   0.293   5.032 -0.4170 -0.2826  0.3623
   43MOL   C33918063   1.105   0.350   5.137  0.6592 -0.5280 -0.0147
   43MOL   C34018064   1.032   0.447   5.235  0.0276 -0.5554  0.0604
   43MOL   C34118065   0.922   0.378   5.324  0.0465 -0.2342 -0.5925
   43MOL   C34218066   0.955   0.374   5.482  0.5358  0.0150  0.2240
   43MOL   C34318067   0.932   0.506   5.550  0.0992  0.1925 -0.0943
   43MOL   C34418068   0.932   0.504   5.697  0.1882  0.2490 -0.5560
   43MOL   H34518069   0.910   0.278   5.077 -0.9612  1.7633 -0.0726
   43MOL   H34618070   0.973   0.376   4.970  0.6131 -0.3788 -0.3583
   43MOL   H34718071   1.136   0.269   5.204 -0.0639 -0.0044  0.9733
   43MOL   H34818072   1.107   0.504   5.290  0.5656 -1.1100 -0.0981
   43MOL   H34918073   0.980   0.526   5.180 -1.7109 -1.4148  0.4293
   43MOL   H35018074   0.911   0.273   5.298  1.0218 -0.4090 -0.3089
   43MOL   H35118075   0.831   0.437   5.312 -0.3876 -0.6943  0.3729
   43MOL   H35218076   0.877   0.308   5.519  0.7121 -0.4770 -0.2803
   43MOL   H35318077   1.054   0.334   5.504  1.4628  2.8027  1.4077
   43MOL   H35418078   0.999   0.580   5.507  0.6102 -1.2875 -1.8631
   43MOL   H35518079   0.832   0.535   5.517 -0.0749  0.6326  0.7876
   43MOL   H35618080   0.871   0.426   5.743 -0.6534  0.6275 -1.0138
   43MOL   H35718081   0.883   0.590   5.743 -1.5793 -0.4940 -0.9932
   43MOL   H35818082   1.033   0.497   5.737 -0.2779  0.0195  0.6013
   43MOL   C35918083   1.231   0.405   5.060  0.2223 -0.1355 -0.3015
   43MOL   C36018084   1.355   0.319   5.096  0.2165 -0.6616  0.2056
   43MOL   C36118085   1.480   0.336   4.998 -0.1048  0.7586 -0.3715
   43MOL   C36218086   1.530   0.480   4.989 -0.5829 -0.4879  0.2406
   43MOL   C36318087   1.640   0.496   4.882 -1.0282  0.3834 -0.5542
   43MOL   C36418088   1.686   0.646   4.873  0.7653  0.8789 -0.3208
   43MOL   C36518089   1.730   0.682   4.733  0.6081  0.2818  0.1207
   43MOL   H36618090   1.245   0.511   5.082 -0.5365 -0.2756  0.9507
   43MOL   H36718091   1.222   0.395   4.952  1.1700 -0.2850 -0.3674
   43MOL   H36818092   1.338   0.212   5.112 -3.6467 -0.0409  0.7494
   43MOL   H36918093   1.558   0.272   5.040 -0.5230  0.4369 -0.0753
   43MOL   H37018094   1.442   0.304   4.901  0.0330 -0.0223 -0.1772
   43MOL   H37118095   1.444   0.544   4.971 -1.1892 -1.0771  1.0052
   43MOL   H37218096   1.570   0.509   5.086  0.0250 -0.7738  0.0790
   43MOL   H37318097   1.713   0.422   4.914 -0.9988  0.5969 -0.1243
   43MOL   H37418098   1.598   0.458   4.789  0.2302 -1.2182 -0.4875
   43MOL   H37518099   1.607   0.717   4.900  0.7663  1.3102 -1.4392
   43MOL   H37618100   1.780   0.660   4.926  0.9122 -2.2703  0.3580
   43MOL   H37718101   1.818   0.623   4.705  0.5571  0.4891 -0.4860
   43MOL   H37818102   1.651   0.655   4.663 -0.7462  2.5552  0.7469
   43MOL   H37918103   1.753   0.788   4.732 -0.9161  0.6836  2.9125
   43MOL   C38018104   1.393   0.375   5.238  0.2929 -0.3062 -0.1857
   43MOL   C38118105   1.523   0.333   5.307 -0.7657 -0.5349  0.2013
   43MOL   C38218106   1.554   0.413   5.430 -0.1449 -0.1401  0.6206
   43MOL   C38318107   1.453   0.413   5.555 -0.5511  0.3030  0.4693
   43MOL   C38418108   1.524   0.485   5.675 -0.4096  0.8048  0.0841
   43MOL   C38518109   1.433   0.511   5.792 -0.0220 -0.2430 -0.3302
   43MOL   C38618110   1.476   0.645   5.859  0.1081 -0.0792 -0.4266
   43MOL   H38718111   1.402   0.484   5.231  0.7468 -0.3321  0.0159
   43MOL   H38818112   1.310   0.357   5.306  2.5856  1.5130  3.2344
   43MOL   H38918113   1.608   0.361   5.244 -0.1193 -2.3901  0.2121
   43MOL   H39018114   1.583   0.514   5.398 -3.6379  0.2886 -1.5005
   43MOL   H39118115   1.645   0.373   5.473  0.1700  2.3955  2.4587
   43MOL   H39218116   1.358   0.461   5.531 -1.4520 -0.8730  1.6049
   43MOL   H39318117   1.429   0.312   5.588  1.2628 -0.1243  0.5183
   43MOL   H39418118   1.605   0.422   5.712 -0.9053 -0.7489 -1.4316
   43MOL   H39518119   1.561   0.580   5.635 -0.5692  0.4978 -0.7884
   43MOL   H39618120   1.437   0.431   5.865 -1.8396  0.8088  0.9586
   43MOL   H39718121   1.326   0.513   5.771  0.2893 -2.0876 -2.3155
   43MOL   H39818122   1.580   0.646   5.891  0.9391  0.0344 -3.0775
   43MOL   H39918123   1.412   0.665   5.945  0.8121 -1.3960  0.4315
   43MOL   H40018124   1.466   0.730   5.792 -2.3651  1.8611  2.2915
   43MOL   C40118125   1.536   0.178   5.325  0.0710 -0.0240 -0.3209
   43MOL   C40218126   1.412   0.104   5.382 -0.4913 -0.1242  0.0016
   43MOL   C40318127   1.446   7.670   5.367  0.0403 -0.1987  0.3615
   43MOL   C40418128   1.333   7.577   5.431 -0.3870 -0.6548 -0.6985
   43MOL   C40518129   1.366   7.430   5.402 -0.0021  1.2627 -0.0582
   43MOL   C40618130   1.256   7.328   5.442  0.7743  0.6783 -0.7068
   43MOL   C40718131   1.314   7.193   5.425 -0.1826 -0.0848 -0.3926
   43MOL   H40818132   1.620   0.161   5.393  2.1024  0.0102 -2.7747
   43MOL   H40918133   1.571   0.136   5.231 -0.4975  0.8964 -0.9512
   43MOL   H41018134   1.315   0.130   5.339  0.1116 -1.5150 -2.3053
   43MOL   H41118135   1.539   7.645   5.420  1.0574  0.5007 -1.0680
   43MOL   H41218136   1.464   7.648   5.262 -2.5966 -1.3394  0.1113
   43MOL   H41318137   1.235   7.600   5.389 -0.6531 -1.7967 -0.7191
   43MOL   H41418138   1.325   7.589   5.539  2.0209 -0.1515 -0.5436
   43MOL   H41518139   1.393   7.421   5.297 -0.0463  1.0496 -0.0521
   43MOL   H41618140   1.459   7.415   5.456 -0.6402 -0.9017  0.4920
   43MOL   H41718141   1.230   7.342   5.547  1.0884 -0.1157 -0.5176
   43MOL   H41818142   1.163   7.341   5.388  0.0056 -1.0903  0.1463
   43MOL   H41918143   1.409   7.176   5.476 -0.0894  0.3989 -0.4084
   43MOL   H42018144   1.326   7.181   5.318 -0.1176 -2.2408 -0.1813
   43MOL   H42118145   1.242   7.120   5.463  0.9008 -0.9642  0.0456
   43MOL   H42218146   1.411   0.121   5.489  1.2685 -1.3909  0.2424
   44MOL     C118147   3.391   2.521   0.760  0.0056  0.0268 -0.5524
   44MOL     C218148   3.323   2.391   0.716  0.5151 -0.3254  0.6409
   44MOL     C318149   3.235   2.423   0.589 -0.3945 -0.2477  0.8561
   44MOL     C418150   3.167   2.305   0.525 -1.1056 -0.1431 -0.4504
   44MOL     C518151   3.108   2.344   0.391 -0.1502 -0.0289 -0.0939
   44MOL     C618152   3.038   2.230   0.315  0.1825  0.0742 -0.0157
   44MOL     C718153   2.885   2.210   0.351 -0.7605 -0.5230 -0.4076
   44MOL     H818154   3.456   2.511   0.847 -0.3276  1.0457 -0.1819
   44MOL     H918155   3.320   2.599   0.788 -1.8853 -2.3005  1.3506
   44MOL    H1018156   3.397   2.314   0.693 -1.7529 -2.1624 -0.7713
   44MOL    H1118157   3.163   2.499   0.621 -0.0838  0.5843 -0.3888
   44MOL    H1218158   3.299   2.473   0.517 -0.5940  1.3691  1.7698
   44MOL    H1318159   3.235   2.221   0.515  0.4353  1.3430 -3.2636
   44MOL    H1418160   3.106   2.270   0.608 -0.9020 -2.9461 -1.4363
   44MOL    H1518161   3.194   2.368   0.328  1.1331 -0.9238  1.2767
   44MOL    H1618162   3.041   2.430   0.402 -1.2426 -0.7310 -1.2234
   44MOL    H1718163   3.101   2.141   0.320 -0.9922 -0.8652 -1.6302
   44MOL    H1818164   3.045   2.254   0.209 -2.3864  1.3057  0.0638
   44MOL    H1918165   2.853   2.151   0.265  1.0837  0.5596 -1.8980
   44MOL    H2018166   2.842   2.308   0.371  1.9348  0.6851 -0.3066
   44MOL    H2118167   2.887   2.147   0.440 -1.4580  1.0737  0.7616
   44MOL    H2218168   3.472   2.543   0.690  0.9318  1.2327  0.8658
   44MOL    C2318169   3.240   2.340   0.839 -0.0644  0.7560  0.5854
   44MOL    C2418170   3.317   2.298   0.966 -0.2219  0.4249  0.2894
   44MOL    C2518171   3.429   2.199   0.926  0.3569 -0.1735 -0.2832
   44MOL    C2618172   3.384   2.063   0.858  0.6607 -0.5862  0.2673
   44MOL    C2718173   3.502   1.989   0.800 -0.2782  0.1349  0.4508
   44MOL    C2818174   3.461   1.873   0.721 -0.8779 -0.8034 -0.6963
   44MOL    C2918175   3.575   1.801   0.647 -0.4542 -0.5839 -0.2863
   44MOL    H3018176   3.191   2.431   0.873  0.3489  1.4020 -0.5007
   44MOL    H3118177   3.180   2.252   0.817  0.8726 -0.0912  1.3943
   44MOL    H3218178   3.359   2.388   1.011 -1.3210 -0.1278  2.5034
   44MOL    H3318179   3.482   2.188   1.021 -0.1469 -1.8922 -0.1908
   44MOL    H3418180   3.497   2.261   0.868  1.2762 -1.2898 -0.4240
   44MOL    H3518181   3.309   2.083   0.782  0.8319  1.1798  0.5423
   44MOL    H3618182   3.336   1.994   0.928 -0.6722  0.0393 -0.0119
   44MOL    H3718183   3.573   1.960   0.877 -1.8451  1.1281  2.2907
   44MOL    H3818184   3.559   2.064   0.745 -0.6976  0.8257  0.9620
   44MOL    H3918185   3.397   1.896   0.636  0.2940 -0.3011 -1.4460
   44MOL    H4018186   3.415   1.806   0.794 -0.5957  0.8672  1.0555
   44MOL    H4118187   3.645   1.863   0.590 -1.5789 -0.2751 -1.3432
   44MOL    H4218188   3.636   1.741   0.714 -3.1013 -2.4768  0.4963
   44MOL    H4318189   3.522   1.724   0.591 -2.2543  0.9870 -0.7945
   44MOL    C4418190   3.208   2.237   1.066 -0.0296 -0.4331 -0.5024
   44MOL    C4518191   3.257   2.163   1.192  0.2482  0.0880 -0.0893
   44MOL    C4618192   3.335   2.256   1.291 -0.1983  0.4146  0.1477
   44MOL    C4718193   3.418   2.183   1.392  0.3550  0.3354  0.1358
   44MOL    C4818194   3.557   2.140   1.330 -0.6202  0.9605  0.6288
   44MOL    C4918195   3.645   2.252   1.274  0.9158 -0.0732  0.1220
   44MOL    C5018196   3.763   2.192   1.207  0.5355 -0.5536  0.1436
   44MOL    H5118197   3.164   2.161   1.000  1.7897 -1.1968 -0.8688
   44MOL    H5218198   3.131   2.312   1.083  0.5138 -0.1575  0.7473
   44MOL    H5318199   3.325   2.087   1.152  0.2900 -0.2158  0.5503
   44MOL    H5418200   3.264   2.323   1.340  1.0849  0.1159  2.5035
   44MOL    H5518201   3.394   2.333   1.241  0.0005 -0.3892 -0.8511
   44MOL    H5618202   3.435   2.242   1.483  0.6294  0.2368  0.1467
   44MOL    H5718203   3.358   2.103   1.435 -1.0968  1.4876  0.3341
   44MOL    H5818204   3.529   2.081   1.243  0.5157  1.4496 -0.0860
   44MOL    H5918205   3.608   2.071   1.397 -2.1537 -1.3938 -0.5680
   44MOL    H6018206   3.669   2.320   1.356  0.8926 -0.7307  0.6798
   44MOL    H6118207   3.593   2.310   1.198 -1.8123 -1.0367  1.1772
   44MOL    H6218208   3.823   2.282   1.191 -0.2945  0.3705  2.0225
   44MOL    H6318209   3.737   2.136   1.118  2.3092 -2.1001  0.5759
   44MOL    H6418210   3.820   2.125   1.272 -1.1405 -0.2009  2.0461
   44MOL    C6518211   3.147   2.087   1.261  0.0614 -0.5147 -0.0061
   44MOL    C6618212   3.143   1.942   1.198  0.4497 -0.2649 -0.3677
   44MOL    C6718213   3.000   1.895   1.159 -0.5983  0.5355  0.9670
   44MOL    C6818214   2.908   1.888   1.283  0.1453  0.0265  0.0570
   44MOL    C6918215   2.773   1.818   1.265 -0.2911  0.1572  0.0519
   44MOL    C7018216   2.687   1.797   1.392 -0.5208  0.3730  0.1082
   44MOL    C7118217   2.620   1.663   1.384 -0.4290 -0.1795  0.0938
   44MOL    H7218218   3.164   2.097   1.369  0.4181 -0.9452 -0.0217
   44MOL    H7318219   3.064   2.151   1.233  1.1341  1.0296  0.2626
   44MOL    H7418220   3.186   1.938   1.098 -0.4455 -0.7088 -0.7469
   44MOL    H7518221   2.962   1.973   1.092 -0.3424 -1.6129 -1.7495
   44MOL    H7618222   2.995   1.806   1.096  2.3446  0.0031  1.4287
   44MOL    H7718223   2.958   1.828   1.360 -0.9691 -2.3102 -0.9767
   44MOL    H7818224   2.880   1.983   1.327  2.3968  0.3420  0.9035
   44MOL    H7918225   2.709   1.867   1.191  1.4842  1.1861 -0.8390
   44MOL    H8018226   2.798   1.723   1.218  0.4137  0.7916 -0.8841
   44MOL    H8118227   2.611   1.874   1.397 -0.8715 -0.1120  3.0834
   44MOL    H8218228   2.747   1.804   1.483 -2.2164 -1.9478  1.4747
   44MOL    H8318229   2.696   1.586   1.371 -0.0814  0.1290  0.2965
   44MOL    H8418230   2.568   1.646   1.477 -1.5640  3.4191  0.1807
   44MOL    H8518231   2.547   1.653   1.303 -2.0077 -0.4218  1.5351
   44MOL    C8618232   3.228   1.845   1.288  0.9279  0.7714 -0.2308
   44MOL    C8718233   3.295   1.735   1.195 -0.1948  0.3773 -0.6240
   44MOL    C8818234   3.443   1.764   1.153  0.2912 -0.6951  0.4134
   44MOL    C8918235   3.537   1.759   1.271  0.1190 -0.0046  0.4532
   44MOL    C9018236   3.678   1.809   1.246  0.4600  0.4589 -0.1540
   44MOL    C9118237   3.769   1.697   1.189  0.1865 -0.2821 -0.4777
   44MOL    C9218238   3.901   1.754   1.138 -0.3598 -0.1251  0.7794
   44MOL    H9318239   3.306   1.898   1.344  2.1258 -0.7665 -0.4164
   44MOL    H9418240   3.170   1.801   1.369  1.6337  2.1066  1.0297
   44MOL    H9518241   3.247   1.726   1.098 -0.6170  1.5944 -0.5272
   44MOL    H9618242   3.479   1.696   1.076 -1.2812  0.1539 -1.1054
   44MOL    H9718243   3.438   1.863   1.107  0.5472 -1.5208 -1.4208
   44MOL    H9818244   3.504   1.830   1.347  0.1502  1.2213 -0.6775
   44MOL    H9918245   3.539   1.666   1.329 -2.4670  0.8457  1.9604
   44MOL   H10018246   3.724   1.836   1.341  0.4048  0.5316 -0.1481
   44MOL   H10118247   3.677   1.896   1.179 -1.7825  2.0905  1.8981
   44MOL   H10218248   3.791   1.628   1.271 -2.1137 -0.3089  0.1747
   44MOL   H10318249   3.704   1.655   1.112 -1.1998  0.5964  0.1954
   44MOL   H10418250   3.911   1.794   1.037  1.9173  0.4431  1.2028
   44MOL   H10518251   3.974   1.674   1.144 -0.7435 -0.5626 -0.2731
   44MOL   H10618252   3.937   1.832   1.205 -0.7393  2.9288 -2.4219
   44MOL   C10718253   3.290   1.589   1.255 -0.3800 -0.3467  0.5704
   44MOL   C10818254   3.163   1.508   1.222 -0.7331 -0.1419  0.5445
   44MOL   C10918255   3.128   1.495   1.072 -0.1870 -0.4134  0.3586
   44MOL   C11018256   3.249   1.444   0.985  0.0201  0.0675  0.6436
   44MOL   C11118257   3.187   1.417   0.839  0.4849  0.0588  0.4336
   44MOL   C11218258   3.282   1.344   0.747  0.6649  0.0682  0.0069
   44MOL   C11318259   3.404   1.439   0.708 -0.7589 -0.7419  0.3884
   44MOL   H11418260   3.281   1.601   1.363  0.0857  2.9082  0.2991
   44MOL   H11518261   3.376   1.532   1.222 -1.0583 -0.6851 -0.6510
   44MOL   H11618262   3.087   1.579   1.256  0.6963  1.1734  1.0447
   44MOL   H11718263   3.097   1.592   1.032 -2.2857 -0.3777  1.9896
   44MOL   H11818264   3.042   1.429   1.065 -0.7184  0.2824  0.2861
   44MOL   H11918265   3.335   1.511   0.978 -0.2490  0.5252  1.5431
   44MOL   H12018266   3.271   1.347   1.029 -0.8659 -1.0291 -1.2479
   44MOL   H12118267   3.161   1.509   0.787  0.8495 -0.6552 -1.0387
   44MOL   H12218268   3.100   1.354   0.855  0.9116 -0.2913  1.4096
   44MOL   H12318269   3.328   1.253   0.787  1.3924  0.0994 -0.7507
   44MOL   H12418270   3.228   1.325   0.655 -0.2899  1.1080  0.3478
   44MOL   H12518271   3.375   1.543   0.692  0.6835  0.1845  3.4869
   44MOL   H12618272   3.487   1.436   0.777 -0.6488  0.3500  0.3000
   44MOL   H12718273   3.425   1.404   0.607 -2.4830 -0.9911  0.0923
   44MOL   C12818274   3.158   1.380   1.295  0.1001  0.4063  0.2558
   44MOL   C12918275   3.034   1.314   1.352  0.5240  0.2452  0.1057
   44MOL   C13018276   2.983   1.398   1.463  0.0775  0.0187  0.0762
   44MOL   C13118277   3.077   1.422   1.585  0.3580 -0.0178 -0.2799
   44MOL   C13218278   3.001   1.490   1.692  0.0925  1.0819 -0.2360
   44MOL   C13318279   3.096   1.542   1.803  0.5553 -0.6455 -0.1881
   44MOL   C13418280   3.018   1.640   1.881 -0.1108 -1.2491  0.3827
   44MOL   H13518281   3.200   1.302   1.233  0.6404  0.2095  0.8617
   44MOL   H13618282   3.232   1.374   1.375 -0.4354 -0.7578  0.6706
   44MOL   H13718283   2.953   1.301   1.279  1.1225  1.2198 -0.7386
   44MOL   H13818284   2.883   1.364   1.487  0.4575 -2.1232 -1.1972
   44MOL   H13918285   2.974   1.497   1.419 -1.9334  0.1609  0.7869
   44MOL   H14018286   3.162   1.485   1.560  0.3090  0.2182  0.1514
   44MOL   H14118287   3.122   1.330   1.622  1.2702 -0.1835 -1.7483
   44MOL   H14218288   2.947   1.409   1.742  0.6586  0.9666  0.1984
   44MOL   H14318289   2.925   1.559   1.656 -0.2778  1.5028  1.2794
   44MOL   H14418290   3.186   1.583   1.758  0.0948  0.1431 -0.3816
   44MOL   H14518291   3.128   1.460   1.867 -2.0293 -1.2350  0.4259
   44MOL   H14618292   2.983   1.726   1.823  1.5783 -0.6701  0.2059
   44MOL   H14718293   3.076   1.674   1.966 -0.1778  0.8162 -0.3821
   44MOL   H14818294   2.934   1.591   1.930  2.0666 -1.4512  4.0896
   44MOL   C14918295   3.059   1.164   1.403 -0.1250 -0.1256 -0.0460
   44MOL   C15018296   3.063   1.049   1.300  0.7416  0.2739  0.3239
   44MOL   C15118297   2.935   1.020   1.233 -0.2160 -0.2842  0.8262
   44MOL   C15218298   2.948   0.970   1.087  0.0770 -0.4352 -0.0396
   44MOL   C15318299   3.007   1.066   0.985 -0.1717  0.2068 -0.7147
   44MOL   C15418300   2.999   1.022   0.835  0.2966  0.0181  0.2801
   44MOL   C15518301   3.081   0.897   0.800  0.1672  0.1064 -0.2247
   44MOL   H15618302   3.159   1.169   1.444  1.1155  0.2601 -2.9991
   44MOL   H15718303   2.983   1.131   1.475  1.9375 -0.5117  1.9988
   44MOL   H15818304   3.136   1.084   1.227  0.1367  0.2828 -0.2739
   44MOL   H15918305   2.889   0.943   1.294  1.4825 -0.3244  2.0905
   44MOL   H16018306   2.864   1.101   1.219  1.1512  0.6056 -1.2174
   44MOL   H16118307   2.858   0.919   1.054  0.2260 -0.5991 -0.1990
   44MOL   H16218308   3.032   0.900   1.095  1.4707  1.1638 -0.2313
   44MOL   H16318309   3.109   1.095   1.013  0.1293 -3.3088  2.2721
   44MOL   H16418310   2.932   1.145   0.995 -1.2032 -0.5980 -2.1045
   44MOL   H16518311   3.048   1.107   0.788  2.6488 -0.8530  1.0995
   44MOL   H16618312   2.894   1.019   0.807  0.6887 -0.3278 -1.1615
   44MOL   H16718313   3.188   0.918   0.809  0.7019 -2.5504 -0.0766
   44MOL   H16818314   3.078   0.865   0.695 -1.6286 -0.5162  0.0011
   44MOL   H16918315   3.040   0.813   0.856  0.3499  1.0890  1.4120
   44MOL   C17018316   3.134   0.927   1.354  0.4608 -0.0446 -0.1867
   44MOL   C17118317   3.288   0.936   1.348  0.8486  0.4513  0.1376
   44MOL   C17218318   3.339   0.834   1.448  0.4642  0.0503 -0.4389
   44MOL   C17318319   3.323   0.862   1.599  0.8300  0.1840 -0.3820
   44MOL   C17418320   3.386   0.751   1.686  0.2228 -0.4803  0.8116
   44MOL   C17518321   3.407   0.795   1.830 -0.1839 -0.1236 -0.3352
   44MOL   C17618322   3.435   0.669   1.920 -0.5718 -0.1698  0.0494
   44MOL   H17718323   3.096   0.847   1.291 -0.9363  1.2520 -1.0337
   44MOL   H17818324   3.099   0.912   1.456  0.5273  0.0812 -0.1458
   44MOL   H17918325   3.320   1.035   1.382  1.1818  0.6113 -0.6329
   44MOL   H18018326   3.445   0.819   1.428  0.0169 -1.0932 -2.0272
   44MOL   H18118327   3.293   0.737   1.433 -1.3956  1.1861 -2.3727
   44MOL   H18218328   3.223   0.881   1.639  0.9955 -0.1333  0.1929
   44MOL   H18318329   3.372   0.953   1.630 -0.8992  2.1258 -3.1233
   44MOL   H18418330   3.483   0.723   1.646 -0.2318 -1.9838  0.7590
   44MOL   H18518331   3.319   0.666   1.681  0.9493 -0.9535 -1.6144
   44MOL   H18618332   3.317   0.844   1.869  1.2061  1.0003  1.5695
   44MOL   H18718333   3.481   0.875   1.828 -0.4272  0.0830 -1.1827
   44MOL   H18818334   3.536   0.633   1.904  0.1878  1.8962  0.0313
   44MOL   H18918335   3.365   0.588   1.898 -0.8660 -0.0914  0.6956
   44MOL   H19018336   3.421   0.690   2.026  0.0046  1.6671 -0.2164
   44MOL   C19118337   3.352   0.918   1.210  0.2218  0.5647  0.4351
   44MOL   C19218338   3.493   0.986   1.191  0.7499  0.2372  0.7361
   44MOL   C19318339   3.567   0.929   1.068 -0.6365 -0.0385  0.2458
   44MOL   C19418340   3.486   0.917   0.939  0.1695 -0.1382  0.6687
   44MOL   C19518341   3.554   0.857   0.818  0.3209 -0.2650 -0.0528
   44MOL   C19618342   3.459   0.857   0.695  0.1676 -0.3565  0.4311
   44MOL   C19718343   3.438   0.995   0.630  0.3254 -0.1061  0.1919
   44MOL   H19818344   3.278   0.952   1.138  0.8905  1.1280  0.0089
   44MOL   H19918345   3.362   0.812   1.188 -2.6717  0.1407  0.9573
   44MOL   H20018346   3.551   0.958   1.279  0.7801 -2.1225 -0.0166
   44MOL   H20118347   3.593   0.828   1.098 -0.4373 -0.5787 -1.6837
   44MOL   H20218348   3.665   0.974   1.053 -0.6004  0.4178  1.7300
   44MOL   H20318349   3.456   1.016   0.906  0.9144  0.0435  0.5132
   44MOL   H20418350   3.389   0.870   0.948  0.3392 -0.1823  2.7200
   44MOL   H20518351   3.651   0.901   0.795 -0.0646  1.9444  2.3280
   44MOL   H20618352   3.558   0.753   0.850 -1.3754 -0.0459  0.9609
   44MOL   H20718353   3.361   0.809   0.703 -1.5941  2.9217 -0.3633
   44MOL   H20818354   3.520   0.813   0.617  0.3457 -0.1519  0.4546
   44MOL   H20918355   3.387   0.983   0.534  2.0506  0.8866 -0.8598
   44MOL   H21018356   3.533   1.043   0.611  0.9794 -1.7856 -0.9197
   44MOL   H21118357   3.381   1.069   0.686 -1.7261  0.6286 -2.7439
   44MOL   C21218358   3.490   1.141   1.191  0.4575 -0.3215 -0.3357
   44MOL   C21318359   3.612   1.211   1.239 -0.5085 -0.2348  0.0121
   44MOL   C21418360   3.621   1.356   1.191  0.9471  0.8462 -0.3315
   44MOL   C21518361   3.632   1.364   1.039 -0.0933 -0.0391 -0.7006
   44MOL   C21618362   3.774   1.329   0.982 -0.2045  0.1835  0.1915
   44MOL   C21718363   3.776   1.278   0.828 -0.2125  0.4819 -0.4751
   44MOL   C21818364   3.818   1.393   0.732  0.0107  0.0299 -0.5190
   44MOL   H21918365   3.400   1.179   1.240  0.2037 -0.0921 -0.9615
   44MOL   H22018366   3.468   1.176   1.090  0.4110  2.4059  0.5793
   44MOL   H22118367   3.698   1.160   1.194  0.1751  0.7009  0.2524
   44MOL   H22218368   3.531   1.397   1.237  1.5722  0.3771  1.3440
   44MOL   H22318369   3.704   1.416   1.229  1.2911  0.8713 -1.1198
   44MOL   H22418370   3.610   1.466   1.006 -1.9745  0.3778  1.7066
   44MOL   H22518371   3.556   1.308   0.985  1.0620 -0.4682 -1.9021
   44MOL   H22618372   3.832   1.421   0.987 -1.7529  1.2154 -0.5371
   44MOL   H22718373   3.824   1.262   1.052 -0.7562 -3.0795 -2.3889
   44MOL   H22818374   3.845   1.195   0.814 -0.2448  0.4379 -0.3673
   44MOL   H22918375   3.679   1.238   0.801  0.9627 -1.7846 -1.4507
   44MOL   H23018376   3.912   1.436   0.765 -0.2225 -1.4911  2.2946
   44MOL   H23118377   3.741   1.470   0.743  1.0367  1.2875 -1.9353
   44MOL   H23218378   3.818   1.356   0.630  1.8783 -1.4603  0.0025
   44MOL   C23318379   3.619   1.210   1.390  0.3635 -0.1648 -1.2878
   44MOL   C23418380   3.750   1.254   1.462  0.7219  0.3447  0.0681
   44MOL   C23518381   3.724   1.354   1.575  0.3643 -0.0615  0.0503
   44MOL   C23618382   3.653   1.491   1.541  0.0550  0.9643 -0.5777
   44MOL   C23718383   3.654   1.582   1.666 -1.0811 -0.5452 -0.2990
   44MOL   C23818384   3.606   1.727   1.643  0.3938 -0.3145 -0.0819
   44MOL   C23918385   3.609   1.813   1.769 -0.1615  0.2494  0.9151
   44MOL   H24018386   3.573   1.122   1.436 -1.7460  0.3571 -2.3501
   44MOL   H24118387   3.545   1.282   1.424  1.3819  0.2657  0.0484
   44MOL   H24218388   3.809   1.302   1.383  0.5286 -0.5688 -0.6415
   44MOL   H24318389   3.826   1.371   1.609 -0.2124  1.9265  0.8496
   44MOL   H24418390   3.686   1.304   1.664 -0.6830  0.7302  0.0577
   44MOL   H24518391   3.546   1.478   1.525 -0.4420  2.1125  1.5761
   44MOL   H24618392   3.695   1.546   1.456 -0.0030 -0.1318 -1.3308
   44MOL   H24718393   3.762   1.592   1.683 -1.3573 -0.3124  1.3628
   44MOL   H24818394   3.604   1.528   1.746  0.8740  0.8857  1.9621
   44MOL   H24918395   3.675   1.786   1.582  0.8037  1.1736  1.7667
   44MOL   H25018396   3.511   1.727   1.590  0.8923 -2.3582 -1.0226
   44MOL   H25118397   3.705   1.804   1.820  1.4457  1.1219 -1.8579
   44MOL   H25218398   3.603   1.919   1.743  2.1289  0.6014  1.6600
   44MOL   H25318399   3.533   1.777   1.838 -2.1044  0.0907 -1.2636
   44MOL   C25418400   3.834   1.133   1.510 -0.2970 -0.5432  0.6389
   44MOL   C25518401   3.880   1.032   1.405  0.7057 -0.3472  0.6976
   44MOL   C25618402   3.889   0.891   1.468  0.7317  0.0037 -0.1889
   44MOL   C25718403   3.759   0.813   1.499 -0.0734  0.3590 -0.6241
   44MOL   C25818404   3.774   0.661   1.518  0.4980 -0.5095  0.6469
   44MOL   C25918405   3.840   0.618   1.646 -0.3244 -0.0371 -0.0032
   44MOL   C26018406   3.896   0.477   1.639  0.5196 -0.1416 -0.1043
   44MOL   H26118407   3.783   1.078   1.590 -0.0407 -0.7669  0.6500
   44MOL   H26218408   3.919   1.176   1.563  0.3752 -0.9344 -0.1217
   44MOL   H26318409   3.798   1.041   1.333  0.3287  2.5573  1.4117
   44MOL   H26418410   3.952   0.894   1.557  1.0594  1.0087 -0.4411
   44MOL   H26518411   3.944   0.825   1.401 -1.1028 -0.5932 -1.1214
   44MOL   H26618412   3.691   0.858   1.571  2.1962  1.4834  0.8708
   44MOL   H26718413   3.696   0.831   1.411  0.5790 -0.9813 -1.3871
   44MOL   H26818414   3.815   0.610   1.430 -1.4878 -1.1537  0.0724
   44MOL   H26918415   3.673   0.620   1.521  1.4819 -3.2255 -1.2155
   44MOL   H27018416   3.923   0.687   1.661 -0.7209  0.3771  0.2752
   44MOL   H27118417   3.772   0.614   1.731 -1.1331  0.4985 -0.6193
   44MOL   H27218418   3.817   0.406   1.613  0.3101 -0.6089  1.7221
   44MOL   H27318419   3.974   0.476   1.563 -0.8988 -1.0550 -1.5945
   44MOL   H27418420   3.945   0.443   1.730  1.3091 -0.7582 -0.7526
   44MOL   C27518421   4.015   1.087   1.352 -0.3807 -0.8080 -0.2212
   44MOL   C27618422   4.086   1.003   1.239  0.2228 -0.0812 -0.1433
   44MOL   C27718423   4.219   1.064   1.202 -0.2460 -0.5307 -0.1188
   44MOL   C27818424   4.327   1.047   1.309 -0.1190  0.0600 -0.0032
   44MOL   C27918425   4.465   1.105   1.265 -0.1007 -0.5547  0.4534
   44MOL   C28018426   4.592   1.034   1.326  0.2173 -0.4113  0.0400
   44MOL   C28118427   4.721   1.078   1.259 -0.2392 -0.1564  0.0461
   44MOL   H28218428   4.081   1.100   1.438 -1.7443  0.8501  0.6145
   44MOL   H28318429   3.998   1.187   1.311 -0.7880 -1.0365 -0.6116
   44MOL   H28418430   4.100   0.905   1.284  0.0430  0.1111  0.3363
   44MOL   H28518431   4.250   1.022   1.106  1.3440 -1.1556  0.6478
   44MOL   H28618432   4.215   1.172   1.191  0.7754 -0.5140 -0.4414
   44MOL   H28718433   4.331   0.940   1.328  1.5850  0.2852  1.0466
   44MOL   H28818434   4.297   1.092   1.403  2.9781 -0.4504  1.2990
   44MOL   H28918435   4.451   1.209   1.296 -1.1086 -0.8959  1.2127
   44MOL   H29018436   4.473   1.095   1.157  1.2389  3.5674  0.0892
   44MOL   H29118437   4.583   1.041   1.435 -1.1438  2.1353 -0.2147
   44MOL   H29218438   4.594   0.927   1.306  2.9573 -0.4167  0.0910
   44MOL   H29318439   4.749   1.183   1.270 -3.7023  0.9960 -1.4884
   44MOL   H29418440   4.706   1.073   1.151  1.8759  1.2456 -0.3334
   44MOL   H29518441   4.794   1.008   1.299 -0.1640 -0.9630 -1.4970
   44MOL   C29618442   3.988   0.978   1.115 -0.1135 -0.5078  0.3222
   44MOL   C29718443   4.019   0.854   1.022  0.4689 -0.7438 -0.1285
   44MOL   C29818444   4.000   0.892   0.874 -0.3972  0.5257  0.4008
   44MOL   C29918445   4.092   1.005   0.820 -0.6992  0.2624  0.0951
   44MOL   C30018446   4.060   1.029   0.668 -0.0736 -0.0962  0.1430
   44MOL   C30118447   4.180   1.094   0.598  0.3633 -0.5219  0.0992
   44MOL   C30218448   4.208   1.236   0.650  0.3865 -0.2310  0.6495
   44MOL   H30318449   3.884   0.968   1.147 -0.2608  0.5082  0.1863
   44MOL   H30418450   3.972   1.076   1.069 -1.2717 -0.2903  1.1664
   44MOL   H30518451   4.126   0.837   1.040  0.5490 -1.8712 -1.5578
   44MOL   H30618452   3.993   0.808   0.805 -0.2113  1.7129 -1.0904
   44MOL   H30718453   3.900   0.936   0.873 -0.8021 -0.3243  2.0318
   44MOL   H30818454   4.195   0.970   0.828 -0.2624  1.6600  0.7241
   44MOL   H30918455   4.099   1.087   0.891 -1.4712 -0.7258  1.3269
   44MOL   H31018456   3.970   1.086   0.644 -0.1368 -0.3769 -0.2919
   44MOL   H31118457   4.044   0.932   0.621  0.5005  0.9101 -2.2048
   44MOL   H31218458   4.271   1.041   0.625 -0.3567 -2.6623 -1.5381
   44MOL   H31318459   4.166   1.088   0.490 -2.9408  1.8077  0.3341
   44MOL   H31418460   4.122   1.302   0.637  0.8055  0.0426 -0.9164
   44MOL   H31518461   4.250   1.228   0.750  2.3934 -0.1581 -0.1779
   44MOL   H31618462   4.289   1.281   0.593 -2.5060  0.5104 -3.1233
   44MOL   C31718463   3.928   0.739   1.059  0.6349 -0.0890  0.2649
   44MOL   C31818464   3.968   0.595   1.018 -0.5293  0.6677 -0.3873
   44MOL   C31918465   4.114   0.562   1.047  0.0970 -0.6684 -0.5868
   44MOL   C32018466   4.142   0.556   1.196  0.3513  0.4566  0.9680
   44MOL   C32118467   4.293   0.538   1.224  0.6579 -0.2226 -0.2368
   44MOL   C32218468   4.323   0.489   1.369 -0.3893  0.3457 -0.1002
   44MOL   C32318469   4.469   0.501   1.399  0.3183 -0.0443  0.4254
   44MOL   H32418470   3.826   0.766   1.033 -0.0577 -1.9492  0.9656
   44MOL   H32518471   3.930   0.748   1.168 -1.1851  1.9381  0.1598
   44MOL   H32618472   3.951   0.586   0.910 -3.0497  0.5890 -0.0105
   44MOL   H32718473   4.183   0.629   0.995  0.4186  0.5090  1.2918
   44MOL   H32818474   4.138   0.463   1.009  1.7044 -0.1245 -1.0323
   44MOL   H32918475   4.087   0.473   1.241  1.3208  0.2016  1.7085
   44MOL   H33018476   4.110   0.644   1.253 -2.0111  0.7457 -0.7228
   44MOL   H33118477   4.356   0.617   1.184  1.3208 -0.8889 -0.5180
   44MOL   H33218478   4.340   0.457   1.169 -0.1023 -1.2825  0.6247
   44MOL   H33318479   4.281   0.391   1.393  1.6269 -0.5720 -0.2806
   44MOL   H33418480   4.268   0.560   1.432 -0.0382 -0.8879  1.6204
   44MOL   H33518481   4.525   0.463   1.314 -2.8151  0.4411 -1.9599
   44MOL   H33618482   4.496   0.442   1.486 -0.4400 -2.4191 -0.9080
   44MOL   H33718483   4.503   0.604   1.413  0.5356 -0.0034 -0.3737
   44MOL   C33818484   3.862   0.499   1.085  0.5554  0.0984 -0.1978
   44MOL   C33918485   3.860   0.354   1.056 -0.6737 -0.3867 -0.7548
   44MOL   C34018486   3.863   0.309   0.908 -0.4665  0.1303 -0.5215
   44MOL   C34118487   3.755   0.365   0.815 -0.1256 -1.2572 -0.0753
   44MOL   C34218488   3.747   0.281   0.687 -0.2828  0.1538 -0.4336
   44MOL   C34318489   3.629   0.329   0.600  0.2345 -0.1302  0.2354
   44MOL   C34418490   3.563   0.221   0.510 -1.0350 -0.2181 -0.2186
   44MOL   H34518491   3.762   0.540   1.068  0.4451  0.7022  1.7263
   44MOL   H34618492   3.877   0.509   1.192 -1.2698  2.3318 -0.0888
   44MOL   H34718493   3.943   0.324   1.120 -1.0236 -0.2904 -0.2507
   44MOL   H34818494   3.963   0.333   0.870 -0.1273 -0.5429 -0.0696
   44MOL   H34918495   3.849   0.201   0.913  0.4522 -0.0011 -0.5670
   44MOL   H35018496   3.775   0.471   0.806 -1.0028 -0.9094  1.8923
   44MOL   H35118497   3.661   0.353   0.868 -0.6663 -0.6110 -0.8770
   44MOL   H35218498   3.838   0.294   0.629 -0.5539  1.6803 -0.5428
   44MOL   H35318499   3.728   0.175   0.700 -0.1097 -0.0082 -1.4753
   44MOL   H35418500   3.552   0.390   0.648 -1.6979 -1.3848 -1.2239
   44MOL   H35518501   3.666   0.395   0.522  0.5968  0.9958  1.3318
   44MOL   H35618502   3.637   0.171   0.448 -0.4561  1.7140 -1.1165
   44MOL   H35718503   3.488   0.264   0.444 -2.5140 -1.3678  0.6731
   44MOL   H35818504   3.500   0.157   0.572  0.0317 -0.1084  1.0010
   44MOL   C35918505   3.741   0.275   1.127 -0.1188 -0.1744  0.0005
   44MOL   C36018506   3.778   0.138   1.184 -0.0818  0.0484 -0.5483
   44MOL   C36118507   3.841   0.147   1.325 -0.2574  0.4187  0.2445
   44MOL   C36218508   3.894   0.013   1.385  0.1991 -0.4783 -0.2620
   44MOL   C36318509   3.936   0.024   1.534  0.0854 -0.0861  0.4937
   44MOL   C36418510   3.995   7.610   1.596  0.0879  0.6197  0.4042
   44MOL   C36518511   4.041   7.633   1.737  0.0719  0.0366 -0.0243
   44MOL   H36618512   3.660   0.269   1.053  0.3728 -0.9953 -0.4820
   44MOL   H36718513   3.703   0.343   1.203  1.1563 -0.7875  1.2022
   44MOL   H36818514   3.857   0.097   1.123  0.2024  2.0210 -1.5519
   44MOL   H36918515   3.924   0.218   1.330  0.4595 -0.4777  1.6492
   44MOL   H37018516   3.769   0.179   1.401 -0.4263 -1.6796  1.0061
   44MOL   H37118517   3.824   7.644   1.376 -0.1068 -0.4556  1.5745
   44MOL   H37218518   3.989   7.703   1.336  2.0824 -1.8738  3.7930
   44MOL   H37318519   4.017   0.096   1.546 -0.7716  1.1626 -1.0425
   44MOL   H37418520   3.856   0.063   1.596 -0.4651 -0.3491 -0.0479
   44MOL   H37518521   3.924   7.528   1.590  1.9083 -1.0963  1.5282
   44MOL   H37618522   4.078   7.563   1.542  0.5007  0.3510  1.2693
   44MOL   H37718523   4.052   7.533   1.780 -2.1701 -0.7022 -1.1161
   44MOL   H37818524   4.123   7.704   1.744 -0.2411  0.4869 -0.8721
   44MOL   H37918525   3.956   7.675   1.791 -3.1458 -2.7097 -2.6887
   44MOL   C38018526   3.655   0.047   1.182  0.5273  0.0249 -0.8536
   44MOL   C38118527   3.608   7.707   1.040 -0.4886  1.0539 -0.2471
   44MOL   C38218528   3.649   7.563   1.018 -0.1194  0.3949  0.1308
   44MOL   C38318529   3.564   7.450   1.081  0.0301 -0.4619  0.3820
   44MOL   C38418530   3.635   7.310   1.083  0.7159  0.0274 -0.4271
   44MOL   C38518531   3.548   7.184   1.108 -0.0709  0.5282  0.0008
   44MOL   C38618532   3.445   7.159   1.003 -0.4555  0.2666  0.1990
   44MOL   H38718533   3.681   7.671   1.239 -0.0353  0.1241 -0.4407
   44MOL   H38818534   3.578   0.102   1.236  0.1715  0.0913 -1.4319
   44MOL   H38918535   3.664   0.043   0.961 -0.5462 -0.3706 -1.2094
   44MOL   H39018536   3.751   7.563   1.058  1.1663  1.7130 -2.9679
   44MOL   H39118537   3.669   7.541   0.913  0.1183  1.7034 -0.0999
   44MOL   H39218538   3.542   7.470   1.186 -0.9365  2.5550 -0.3649
   44MOL   H39318539   3.465   7.456   1.037 -0.5125  0.0785  1.6527
   44MOL   H39418540   3.700   7.297   0.996  1.2761 -2.3036  0.2988
   44MOL   H39518541   3.714   7.319   1.157  1.8115  0.7181 -1.6557
   44MOL   H39618542   3.509   7.185   1.210  1.7652 -2.4374  0.8094
   44MOL   H39718543   3.616   7.098   1.108 -2.6999 -1.6398 -3.4048
   44MOL   H39818544   3.360   7.226   1.015 -1.7900 -1.6725  1.7803
   44MOL   H39918545   3.405   7.059   1.014  1.4955 -0.5673 -0.1472
   44MOL   H40018546   3.484   7.156   0.901 -0.5916 -0.2866  0.1655
   44MOL   C40118547   3.464   0.025   1.018 -0.5584  0.1435 -0.5895
   44MOL   C40218548   3.416   0.032   0.874 -0.5438 -0.6690  0.0019
   44MOL   C40318549   3.271   0.070   0.857  0.2002 -0.1316  0.0625
   44MOL   C40418550   3.172   7.692   0.936  0.1948 -0.0864  0.0788
   44MOL   C40518551   3.155   7.557   0.866 -0.0858  0.7849  0.1930
   44MOL   C40618552   3.042   7.471   0.920 -0.0066 -0.2141  0.2554
   44MOL   C40718553   3.048   7.325   0.875  0.8569  1.2374  0.3389
   44MOL   H40818554   3.447   0.123   1.063 -0.6006 -0.8499  1.6209
   44MOL   H40918555   3.402   7.667   1.072  2.0296 -2.0885 -0.4988
   44MOL   H41018556   3.445   7.648   0.835  1.6598 -1.1308  2.6483
   44MOL   H41118557   3.248   0.055   0.752 -1.4543 -0.0060  0.3823
   44MOL   H41218558   3.268   0.176   0.883  0.4774 -0.2817  0.7105
   44MOL   H41318559   3.073   0.024   0.934  0.3563  0.2374 -0.6806
   44MOL   H41418560   3.197   7.666   1.039  1.6261 -0.6025 -0.3903
   44MOL   H41518561   3.142   7.574   0.760  3.6139  1.3697 -0.2368
   44MOL   H41618562   3.247   7.498   0.865 -2.9913 -3.9896 -2.3448
   44MOL   H41718563   3.040   7.473   1.029 -0.8067  0.6256  0.2286
   44MOL   H41818564   2.948   7.510   0.883  0.9371  1.1118 -0.8127
   44MOL   H41918565   3.137   7.287   0.925  0.0833  0.2448  0.9907
   44MOL   H42018566   3.034   7.302   0.769 -3.2432  0.2293  1.0164
   44MOL   H42118567   2.964   7.268   0.916  0.8716  0.5947 -0.5009
   44MOL   H42218568   3.465   0.112   0.818  0.6784 -0.6836  1.0237
   45MOL     C118569   2.496   7.005   3.615  0.3801  0.0734 -0.0619
   45MOL     C218570   2.499   6.873   3.532 -0.1697 -0.1358  0.3550
   45MOL     C318571   2.375   6.857   3.445 -0.7018 -0.7949 -0.6538
   45MOL     C418572   2.328   6.955   3.341 -0.5924  0.9268  0.1033
   45MOL     C518573   2.224   6.900   3.236 -0.4275  0.2307 -0.2075
   45MOL     C618574   2.075   6.907   3.282  0.1502 -0.2428 -0.4133
   45MOL     C718575   2.026   7.044   3.333  0.4054  0.0518 -0.1922
   45MOL     H818576   2.477   7.088   3.547 -0.2593 -1.5690 -1.9510
   45MOL     H918577   2.585   7.030   3.672 -0.7866  1.6890  1.0716
   45MOL    H1018578   2.579   6.880   3.458 -0.9404 -3.5725 -0.8760
   45MOL    H1118579   2.370   6.755   3.408  1.0582 -0.9094 -0.5987
   45MOL    H1218580   2.294   6.842   3.517  1.1560 -0.6034  1.5480
   45MOL    H1318581   2.306   7.057   3.371  0.4539  0.8599  1.0873
   45MOL    H1418582   2.415   6.977   3.279 -0.0425  2.7254  1.4943
   45MOL    H1518583   2.243   6.799   3.199 -2.5856  0.5421 -2.2767
   45MOL    H1618584   2.233   6.975   3.157  1.2414 -1.4661 -1.6896
   45MOL    H1718585   2.071   6.837   3.365 -1.7607  1.4048  0.9297
   45MOL    H1818586   2.010   6.873   3.201 -0.0270 -1.8384  0.3933
   45MOL    H1918587   1.986   7.096   3.246  0.6554  0.0612 -0.2994
   45MOL    H2018588   2.091   7.113   3.387  1.0223 -0.0072 -0.8565
   45MOL    H2118589   1.932   7.034   3.388 -0.9247 -2.4347 -2.7588
   45MOL    H2218590   2.414   7.001   3.686  0.3938 -0.0573 -0.0535
   45MOL    C2318591   2.513   6.757   3.628 -0.1301 -0.4910 -0.4704
   45MOL    C2418592   2.639   6.754   3.723  0.0650  0.3481 -0.0166
   45MOL    C2518593   2.767   6.758   3.641 -0.4208 -0.1422  0.4337
   45MOL    C2618594   2.808   6.643   3.546 -0.9351  0.3808 -0.3574
   45MOL    C2718595   2.931   6.676   3.455  0.3224  0.7866 -0.1318
   45MOL    C2818596   3.015   6.554   3.411  0.3342  0.1331 -0.4356
   45MOL    C2918597   3.112   6.590   3.297  0.9164  0.4214 -0.3403
   45MOL    H3018598   2.420   6.742   3.682  0.8719  1.9297  2.0684
   45MOL    H3118599   2.521   6.668   3.564 -0.1002  1.1167 -2.7694
   45MOL    H3218600   2.633   6.847   3.780  1.3007 -0.8790  2.2154
   45MOL    H3318601   2.849   6.800   3.700  0.1892 -0.6589 -0.0440
   45MOL    H3418602   2.760   6.843   3.574  0.1041  0.2959  0.9307
   45MOL    H3518603   2.731   6.604   3.480  0.5190 -1.6447 -0.9215
   45MOL    H3618604   2.835   6.558   3.609 -3.2530 -0.4454 -0.4437
   45MOL    H3718605   2.988   6.755   3.503  0.3846  0.7899 -0.2113
   45MOL    H3818606   2.903   6.734   3.366  0.3474  1.0743  0.0466
   45MOL    H3918607   2.947   6.483   3.363  1.9798 -1.7551 -0.0249
   45MOL    H4018608   3.052   6.497   3.497  2.9065  1.8070 -0.3774
   45MOL    H4118609   3.161   6.684   3.324 -0.4989  1.3029 -0.8240
   45MOL    H4218610   3.179   6.508   3.271  2.0103  0.7551  1.3167
   45MOL    H4318611   3.051   6.608   3.209 -1.2052 -2.6177  0.4524
   45MOL    C4418612   2.642   6.638   3.827  0.2804 -0.2766  0.5035
   45MOL    C4518613   2.760   6.650   3.929 -0.4371  0.5028  0.9226
   45MOL    C4618614   2.757   6.782   4.017  0.0982  0.0050 -0.9674
   45MOL    C4718615   2.612   6.810   4.084 -0.3472  0.2757  0.0401
   45MOL    C4818616   2.587   6.961   4.108  0.5681  0.1825  0.1972
   45MOL    C4918617   2.568   7.041   3.976 -0.0673 -0.1539 -0.0194
   45MOL    C5018618   2.503   7.176   3.998  0.0931  0.2370 -1.2314
   45MOL    H5118619   2.635   6.542   3.776 -0.5886  0.1491 -0.1908
   45MOL    H5218620   2.544   6.628   3.871 -0.0506  0.4916 -0.0576
   45MOL    H5318621   2.848   6.655   3.865 -0.6025  0.6169  0.7039
   45MOL    H5418622   2.782   6.864   3.951 -0.0365 -0.8030 -2.0290
   45MOL    H5518623   2.831   6.792   4.097 -0.5238  0.4071 -0.4357
   45MOL    H5618624   2.526   6.782   4.023 -0.7482  0.6468  0.4350
   45MOL    H5718625   2.591   6.755   4.176 -2.8851  1.0933 -0.0075
   45MOL    H5818626   2.665   7.013   4.164  1.4904 -1.4023  0.3988
   45MOL    H5918627   2.495   6.973   4.165 -0.7832 -1.2839 -1.5900
   45MOL    H6018628   2.491   6.988   3.920 -0.5629  1.4030 -0.8513
   45MOL    H6118629   2.657   7.050   3.914 -0.4983  0.2416 -0.5839
   45MOL    H6218630   2.499   7.234   3.905 -0.3171 -0.2285 -1.5070
   45MOL    H6318631   2.551   7.240   4.072  0.6600 -0.5629 -0.9123
   45MOL    H6418632   2.402   7.157   4.034  0.4013 -2.4103 -1.7098
   45MOL    C6518633   2.764   6.522   4.013  0.2865  0.3857  0.1810
   45MOL    C6618634   2.898   6.479   4.056 -0.0120  0.1540 -0.2934
   45MOL    C6718635   2.947   6.348   3.988  0.6140 -0.1166  0.6122
   45MOL    C6818636   2.971   6.350   3.838  0.1715  0.1515  0.2202
   45MOL    C6918637   2.984   6.206   3.784  0.1325  0.1973 -0.7873
   45MOL    C7018638   3.029   6.207   3.634 -0.2782 -0.1083 -0.4449
   45MOL    C7118639   3.167   6.264   3.599  0.1822 -0.1774 -0.5783
   45MOL    H7218640   2.691   6.527   4.094  0.1180 -1.7368  0.1754
   45MOL    H7318641   2.724   6.444   3.948 -0.8320  0.3289  0.9123
   45MOL    H7418642   2.959   6.566   4.031  1.6128 -0.8233  0.1469
   45MOL    H7518643   3.037   6.311   4.037 -0.9397 -1.2780  2.6781
   45MOL    H7618644   2.874   6.271   4.013 -0.2001  0.7619  0.9655
   45MOL    H7718645   2.889   6.406   3.792 -0.2958  0.6000  1.5920
   45MOL    H7818646   3.055   6.415   3.813 -0.2163  0.8630  0.7687
   45MOL    H7918647   3.054   6.153   3.848  1.3984  2.6155 -0.0928
   45MOL    H8018648   2.892   6.149   3.801  0.0960  0.2024 -0.9672
   45MOL    H8118649   2.964   6.266   3.569  0.3278  0.4032 -0.5930
   45MOL    H8218650   3.017   6.104   3.600  0.3815 -0.2446 -0.2704
   45MOL    H8318651   3.202   6.247   3.497  1.9899 -0.4909  0.0793
   45MOL    H8418652   3.173   6.369   3.625  1.4742 -0.4548  0.3082
   45MOL    H8518653   3.254   6.211   3.638  0.8944  0.7261 -0.9381
   45MOL    C8618654   2.909   6.450   4.211  0.0979  0.9496 -0.4658
   45MOL    C8718655   2.886   6.570   4.307 -0.2838 -0.7613 -0.5485
   45MOL    C8818656   2.844   6.534   4.452  0.1199 -0.0765 -0.1265
   45MOL    C8918657   2.704   6.463   4.462 -0.0513 -0.3947 -0.7050
   45MOL    C9018658   2.676   6.405   4.598  0.2698  0.2223 -0.1925
   45MOL    C9118659   2.563   6.301   4.592  0.6879  0.3038  0.2341
   45MOL    C9218660   2.566   6.210   4.709 -0.2148  0.5516 -0.3633
   45MOL    H9318661   2.833   6.374   4.230  2.1491 -0.2653  3.3204
   45MOL    H9418662   2.997   6.394   4.244 -1.6348 -0.6255  1.6443
   45MOL    H9518663   2.805   6.634   4.271 -0.3062 -0.1709  0.5515
   45MOL    H9618664   2.919   6.463   4.486  0.6337  0.0550 -0.9788
   45MOL    H9718665   2.859   6.627   4.508 -1.0397  0.7308 -1.1382
   45MOL    H9818666   2.630   6.531   4.422 -0.6163 -2.7808 -3.8978
   45MOL    H9918667   2.716   6.385   4.388  2.8358 -0.9149  0.2226
   45MOL   H10018668   2.656   6.484   4.670  1.7327  0.5912 -0.1695
   45MOL   H10118669   2.762   6.360   4.647 -0.3044  0.2193  0.8321
   45MOL   H10218670   2.474   6.364   4.590  1.2038  1.0286 -0.4731
   45MOL   H10318671   2.559   6.247   4.497 -1.8749  2.2788 -0.8279
   45MOL   H10418672   2.592   6.253   4.806 -1.3536 -2.5415  1.3809
   45MOL   H10518673   2.643   6.133   4.702 -1.2237 -0.4799 -0.2624
   45MOL   H10618674   2.476   6.151   4.727 -0.2148  0.5881 -0.2452
   45MOL   C10718675   3.024   6.652   4.309 -0.4594 -0.4478  0.7897
   45MOL   C10818676   3.043   6.783   4.392  0.3056  0.4104 -0.0148
   45MOL   C10918677   3.190   6.791   4.412 -0.4678  0.1758  0.8946
   45MOL   C11018678   3.253   6.727   4.542 -0.4039 -0.4398 -0.0209
   45MOL   C11118679   3.196   6.792   4.671 -0.3032  0.1214  0.0163
   45MOL   C11218680   3.221   6.696   4.788  0.1875  0.2590  0.2476
   45MOL   C11318681   3.135   6.568   4.794 -0.7652  0.9723  0.4005
   45MOL   H11418682   3.056   6.662   4.205 -3.6707  1.8675 -0.0645
   45MOL   H11518683   3.092   6.580   4.354  0.8054 -0.6925 -1.4300
   45MOL   H11618684   3.002   6.778   4.492  1.0856  0.4615  0.3125
   45MOL   H11718685   3.226   6.894   4.419  1.1416 -0.2444 -0.6622
   45MOL   H11818686   3.245   6.758   4.323  0.9774  0.7540  1.5516
   45MOL   H11918687   3.200   6.632   4.539 -0.0420 -0.6138 -1.3129
   45MOL   H12018688   3.362   6.726   4.546 -0.3751 -1.6615 -0.7753
   45MOL   H12118689   3.089   6.809   4.682  0.1843  2.0704  2.1341
   45MOL   H12218690   3.260   6.879   4.683 -0.4051  0.1935  0.0311
   45MOL   H12318691   3.325   6.663   4.784  0.0995  0.0778 -0.7708
   45MOL   H12418692   3.223   6.750   4.883  3.5574  0.6032  0.0330
   45MOL   H12518693   3.027   6.579   4.794 -0.8423  0.3787 -1.7303
   45MOL   H12618694   3.153   6.505   4.707 -0.5528 -1.8781  2.4255
   45MOL   H12718695   3.160   6.491   4.867  3.7219  1.5560 -0.3622
   45MOL   C12818696   2.975   6.903   4.321 -0.9014  0.4707  0.0837
   45MOL   C12918697   2.967   7.031   4.412  0.5945  0.2764 -0.3498
   45MOL   C13018698   2.845   7.010   4.500 -0.5436 -0.0572 -0.0428
   45MOL   C13118699   2.824   7.121   4.598  0.4365 -0.5224 -0.0927
   45MOL   C13218700   2.755   7.076   4.730  0.6728 -0.3559 -0.6615
   45MOL   C13318701   2.743   7.185   4.829 -0.5254 -0.0997 -0.5108
   45MOL   C13418702   2.636   7.291   4.788 -0.3504 -0.0895  0.1661
   45MOL   H13518703   3.028   6.918   4.228 -2.0627 -1.2860 -0.8999
   45MOL   H13618704   2.883   6.884   4.266  0.7511 -1.0405 -2.2476
   45MOL   H13718705   3.056   7.034   4.476  1.3198  0.0567 -1.3266
   45MOL   H13818706   2.863   6.922   4.562 -0.3942 -2.9050 -3.9792
   45MOL   H13918707   2.761   6.987   4.435  1.5792  0.3823 -3.0104
   45MOL   H14018708   2.766   7.191   4.538 -0.7719 -0.2189  1.4251
   45MOL   H14118709   2.918   7.170   4.624 -0.2719 -0.1676  1.8344
   45MOL   H14218710   2.833   7.008   4.764  0.7351 -0.6040 -1.2790
   45MOL   H14318711   2.661   7.022   4.715  0.8604 -0.6688 -0.7197
   45MOL   H14418712   2.844   7.227   4.828 -0.4999 -0.1477  0.0066
   45MOL   H14518713   2.726   7.148   4.930 -0.0681 -0.5623 -0.6016
   45MOL   H14618714   2.644   7.305   4.681  0.5308  0.4480  0.2974
   45MOL   H14718715   2.658   7.388   4.834  1.5126  0.1136 -1.0935
   45MOL   H14818716   2.533   7.268   4.812 -0.9719  2.6567  0.2858
   45MOL   C14918717   2.963   7.164   4.331  0.2643  0.1804  0.3374
   45MOL   C15018718   3.077   7.263   4.341 -0.5878 -0.1437 -0.4260
   45MOL   C15118719   3.032   7.404   4.307  0.3066  0.3705 -0.1249
   45MOL   C15218720   2.915   7.467   4.379 -0.6110  0.1350  0.5821
   45MOL   C15318721   2.912   7.618   4.362 -0.3641  0.0137  0.2685
   45MOL   C15418722   2.789   7.693   4.406 -0.5034 -0.6016 -0.3271
   45MOL   C15518723   2.675   7.668   4.313  0.5307  0.3162  0.8578
   45MOL   H15618724   2.957   7.132   4.227 -2.0832 -3.1245  1.4125
   45MOL   H15718725   2.874   7.221   4.356  0.6082  1.9238 -2.1660
   45MOL   H15818726   3.108   7.267   4.445  0.4092  3.4524 -0.7874
   45MOL   H15918727   3.114   7.467   4.342  0.2697  1.0806 -1.2921
   45MOL   H16018728   3.031   7.417   4.198 -1.3759 -3.9259 -0.7163
   45MOL   H16118729   2.922   7.442   4.484 -0.1025 -0.1425  0.4833
   45MOL   H16218730   2.819   7.422   4.353 -0.6804  1.4041 -1.5230
   45MOL   H16318731   2.944   7.643   4.261 -0.2252 -0.0812  0.2898
   45MOL   H16418732   2.995   7.660   4.419 -1.5484  2.1536  0.4826
   45MOL   H16518733   2.815   0.085   4.413 -0.9030 -0.4756 -0.7340
   45MOL   H16618734   2.773   7.667   4.510 -0.4745  1.0288  0.0877
   45MOL   H16718735   2.635   7.571   4.343 -0.2638 -0.1081 -1.4746
   45MOL   H16818736   2.699   7.671   4.206 -0.3166 -0.9622  0.6183
   45MOL   H16918737   2.590   0.021   4.330 -0.3507 -0.2143 -1.1940
   45MOL   C17018738   3.206   7.219   4.258 -0.8813  0.0161  0.0348
   45MOL   C17118739   3.340   7.274   4.315  0.4743  0.3682  0.1694
   45MOL   C17218740   3.417   7.183   4.409  0.2625 -0.1818  0.6457
   45MOL   C17318741   3.359   7.181   4.553  0.0808 -0.1949  0.4434
   45MOL   C17418742   3.444   7.121   4.665  0.7743 -0.1215 -0.1250
   45MOL   C17518743   3.389   7.138   4.808 -0.2607 -0.1125 -0.6071
   45MOL   C17618744   3.488   7.116   4.921  0.6524 -0.2982 -0.1552
   45MOL   H17718745   3.189   7.238   4.152 -0.5762  2.0255  0.3216
   45MOL   H17818746   3.214   7.111   4.269  3.4173  0.3593  1.2661
   45MOL   H17918747   3.308   7.364   4.369  3.4498 -0.1108  2.8240
   45MOL   H18018748   3.523   7.203   4.425  0.7364 -3.1137  1.4806
   45MOL   H18118749   3.414   7.082   4.366 -1.0725  0.4260 -0.7147
   45MOL   H18218750   3.272   7.116   4.546 -0.0512 -0.0147  0.4054
   45MOL   H18318751   3.327   7.281   4.585  0.0720 -0.2371  0.5695
   45MOL   H18418752   3.544   7.164   4.664  1.3789 -1.5153 -2.3490
   45MOL   H18518753   3.452   7.018   4.629  1.5682  0.0254 -0.3633
   45MOL   H18618754   3.300   7.078   4.829  0.1600 -1.3950 -2.3170
   45MOL   H18718755   3.363   7.244   4.813 -0.7919 -0.2998  0.8341
   45MOL   H18818756   3.439   7.133   5.016 -0.8711 -1.3612 -0.7142
   45MOL   H18918757   3.575   7.179   4.904 -0.3231  1.3674  0.9614
   45MOL   H19018758   3.510   7.009   4.916  1.0705 -0.1800 -1.1534
   45MOL   C19118759   3.432   7.331   4.205  0.1032 -0.0510  0.0994
   45MOL   C19218760   3.532   7.439   4.257  0.5021  0.4701  0.3914
   45MOL   C19318761   3.678   7.387   4.238 -0.2384 -0.6682  0.2838
   45MOL   C19418762   3.781   7.489   4.301  0.2332  1.5141 -0.5667
   45MOL   C19518763   3.925   7.440   4.287 -0.1249  0.7335 -0.1259
   45MOL   C19618764   3.988   7.459   4.152 -0.4437 -0.4365 -0.2904
   45MOL   C19718765   4.128   7.405   4.150 -0.7441 -0.3576  0.3123
   45MOL   H19818766   3.370   7.380   4.131 -1.1056 -0.2585  0.9587
   45MOL   H19918767   3.474   7.251   4.145 -2.7727 -0.8991 -0.8348
   45MOL   H20018768   3.516   7.454   4.364  0.2467  0.2915  0.3784
   45MOL   H20118769   3.710   7.373   4.135  0.4333  0.8288  0.2724
   45MOL   H20218770   3.680   7.290   4.287  0.2933  0.5696  2.8170
   45MOL   H20318771   3.739   7.488   4.401  3.7535 -1.6180  1.0010
   45MOL   H20418772   3.775   7.594   4.269 -1.3202  0.2917 -4.6330
   45MOL   H20518773   3.986   7.506   4.349 -1.5806  1.5277  0.4870
   45MOL   H20618774   3.945   7.339   4.321 -2.6676  1.2418  3.1129
   45MOL   H20718775   3.978   7.560   4.114  1.1942  0.4938  1.6901
   45MOL   H20818776   3.939   7.398   4.076 -0.9927  0.6634 -0.8233
   45MOL   H20918777   4.187   7.466   4.218  1.2333  0.5057 -2.1089
   45MOL   H21018778   4.173   7.399   4.051  2.1581  0.7867  1.5004
   45MOL   H21118779   4.125   7.304   4.189 -2.2096 -0.5412 -0.2453
   45MOL   C21218780   3.512   7.578   4.187 -0.8501  0.7040  0.2456
   45MOL   C21318781   3.373   7.645   4.211 -0.2575 -0.3278 -0.0494
   45MOL   C21418782   3.354   7.689   4.360 -0.0896 -0.4051 -0.1403
   45MOL   C21518783   3.469   0.052   4.432 -0.1757 -0.4750 -0.6146
   45MOL   C21618784   3.424   0.110   4.568  0.2437  0.1496  0.0062
   45MOL   C21718785   3.528   0.188   4.645  0.1015  1.0774 -0.3458
   45MOL   C21818786   3.486   0.183   4.792  0.0819  0.2473  0.0537
   45MOL   H21918787   3.526   7.577   4.079  1.3876  1.2598  0.5042
   45MOL   H22018788   3.589   7.653   4.204  1.4028 -1.6692  0.7520
   45MOL   H22118789   3.295   7.572   4.191 -1.1388  0.8165 -0.8759
   45MOL   H22218790   3.259   0.030   4.357 -0.6235 -1.3733 -1.4447
   45MOL   H22318791   3.327   7.610   4.430 -1.2008 -0.1681 -0.2860
   45MOL   H22418792   3.506   0.126   4.361 -1.7767 -1.9982 -3.1038
   45MOL   H22518793   3.557   7.702   4.440  0.1155 -0.0253 -0.2021
   45MOL   H22618794   3.346   0.183   4.549  0.4810  0.3540 -0.1896
   45MOL   H22718795   3.371   0.033   4.624  1.4099  0.2490  1.3055
   45MOL   H22818796   3.625   0.139   4.632 -0.4995  0.1821 -1.6188
   45MOL   H22918797   3.539   0.293   4.617  2.4033  1.4059  1.6109
   45MOL   H23018798   3.490   0.080   4.828  1.4828  0.1070 -0.4617
   45MOL   H23118799   3.388   0.230   4.803  0.6884  1.2722  1.2387
   45MOL   H23218800   3.559   0.237   4.852 -1.0515  1.6327  0.2034
   45MOL   C23318801   3.350   0.045   4.102 -0.7876  0.0560  0.1542
   45MOL   C23418802   3.296   7.700   3.962  0.1098 -0.2490  0.1432
   45MOL   C23518803   3.143   7.664   3.974  0.2738  0.2839  0.3153
   45MOL   C23618804   3.108   7.537   3.895 -0.2506  0.2041 -0.1160
   45MOL   C23718805   2.962   7.518   3.902  0.2046 -0.3196  0.6466
   45MOL   C23818806   2.921   7.372   3.886 -0.3898 -0.5513 -0.6806
   45MOL   C23918807   2.767   7.358   3.886  0.5054 -0.2932  0.1461
   45MOL   H24018808   3.447   0.093   4.083 -1.3531  1.8920  1.7210
   45MOL   H24118809   3.288   0.121   4.148 -0.2965 -0.1482  1.1773
   45MOL   H24218810   3.350   7.605   3.953  0.6782 -0.1487  2.1162
   45MOL   H24318811   3.088   0.033   3.929  2.7295  2.2863  0.8700
   45MOL   H24418812   3.114   7.665   4.079 -0.2365  0.8614  0.1781
   45MOL   H24518813   3.150   7.449   3.944 -0.2044  0.6088  0.5648
   45MOL   H24618814   3.152   7.538   3.795  1.3175  0.5441  0.5660
   45MOL   H24718815   2.920   7.576   3.820 -2.1166 -1.8526  0.7397
   45MOL   H24818816   2.917   7.573   3.985 -0.2161 -1.8680  1.4603
   45MOL   H24918817   2.956   7.338   3.788  1.8994  0.3292 -0.2067
   45MOL   H25018818   2.974   7.321   3.966  0.9897  1.4629 -0.2598
   45MOL   H25118819   2.737   7.256   3.862 -0.9716  0.4891 -1.4295
   45MOL   H25218820   2.723   7.389   3.981 -1.2900  1.1919 -1.1154
   45MOL   H25318821   2.726   7.432   3.817  2.9459  1.7029  0.8029
   45MOL   C25418822   3.317   0.072   3.831 -0.4471  0.5862 -0.2242
   45MOL   C25518823   3.454   0.141   3.819 -0.0968  0.2047 -0.2997
   45MOL   C25618824   3.456   0.217   3.681  0.1501 -0.1469  0.8079
   45MOL   C25718825   3.365   0.350   3.696 -0.3455 -0.4112  0.5298
   45MOL   C25818826   3.389   0.448   3.572  0.0802  0.2933 -0.1918
   45MOL   C25918827   3.302   0.574   3.593  0.6033  0.1847  0.0742
   45MOL   C26018828   3.342   0.685   3.499 -0.0556 -0.0303  0.0381
   45MOL   H26118829   3.241   0.150   3.839 -0.3763  0.7450 -1.1430
   45MOL   H26218830   3.295   0.012   3.744 -0.6881 -0.0837  0.2929
   45MOL   H26318831   3.459   0.214   3.899 -1.4803 -0.4715  0.4198
   45MOL   H26418832   3.414   0.162   3.597  0.3424  1.6109 -0.4581
   45MOL   H26518833   3.561   0.236   3.656  0.7230 -2.9236  0.8878
   45MOL   H26618834   3.258   0.337   3.715 -0.5150  1.7823  1.1410
   45MOL   H26718835   3.398   0.400   3.786  0.3843 -1.0323  0.6113
   45MOL   H26818836   3.347   0.393   3.487 -0.1250 -1.2344  0.8765
   45MOL   H26918837   3.495   0.469   3.564  0.1736 -0.6975 -1.7345
   45MOL   H27018838   3.203   0.540   3.564  0.0819  1.6665  0.1133
   45MOL   H27118839   3.304   0.610   3.696  2.0854 -1.1870  0.5505
   45MOL   H27218840   3.444   0.717   3.516  0.7591 -2.5479  0.2053
   45MOL   H27318841   3.332   0.641   3.400  0.2889  1.0273 -0.4619
   45MOL   H27418842   3.274   0.769   3.511  1.5069  0.8865  2.8733
   45MOL   C27518843   3.578   0.048   3.822  0.0350  0.2584 -0.0229
   45MOL   C27618844   3.717   0.108   3.840  0.2376 -0.8174 -0.0597
   45MOL   C27718845   3.825   0.017   3.774 -0.5444  0.4170 -0.4431
   45MOL   C27818846   3.812   0.012   3.619  0.3367 -1.1076 -0.0358
   45MOL   C27918847   3.934   0.006   3.529  0.5094  0.1261 -0.1266
   45MOL   C28018848   3.912   0.000   3.380  0.5455 -0.1304  0.3142
   45MOL   C28118849   4.037   0.015   3.296 -0.3031 -0.1296 -0.4753
   45MOL   H28218850   3.572   7.699   3.733  1.7054  0.6418 -0.4152
   45MOL   H28318851   3.563   7.697   3.908 -2.3452  0.4249 -0.2725
   45MOL   H28418852   3.715   0.204   3.789 -1.0867 -1.1683 -0.6987
   45MOL   H28518853   3.922   0.062   3.794 -0.1976 -0.4750 -0.0811
   45MOL   H28618854   3.825   7.632   3.820 -2.6305  1.1088  1.1196
   45MOL   H28718855   3.759   0.101   3.585  1.6174 -0.1311  0.4421
   45MOL   H28818856   3.756   7.639   3.585 -0.8077 -0.7230  0.8614
   45MOL   H28918857   3.994   7.632   3.552 -0.1705 -0.7843 -1.6804
   45MOL   H29018858   3.994   0.095   3.547 -1.0107  0.8985  1.1873
   45MOL   H29118859   3.863   7.620   3.355 -1.1088  0.6740  0.4941
   45MOL   H29218860   3.847   0.085   3.359  1.3916  0.5516  0.3797
   45MOL   H29318861   4.080   0.113   3.315 -1.3918  0.4774 -1.0725
   45MOL   H29418862   3.999   0.007   3.193 -1.6154  0.2926 -0.0397
   45MOL   H29518863   4.115   7.656   3.317 -1.6702 -1.0912  1.4444
   45MOL   C29618864   3.744   0.145   3.990 -1.0509  0.0968  0.3634
   45MOL   C29718865   3.862   0.245   4.013  0.0850 -0.6376  0.3123
   45MOL   C29818866   3.917   0.241   4.164  0.7500 -0.0225  0.9807
   45MOL   C29918867   3.807   0.239   4.265 -0.1831  0.7849  0.2924
   45MOL   C30018868   3.856   0.242   4.403  0.0338  0.2644 -0.8114
   45MOL   C30118869   3.913   0.108   4.450  0.0554 -0.3285  0.4604
   45MOL   C30218870   3.945   0.126   4.594 -0.1786 -0.4282 -0.2013
   45MOL   H30318871   3.656   0.197   4.030 -0.3940  1.3902  0.1624
   45MOL   H30418872   3.754   0.054   4.049  0.5149 -0.2627 -0.4395
   45MOL   H30518873   3.942   0.206   3.952  0.9369  0.7287  0.5370
   45MOL   H30618874   3.980   0.153   4.176  0.5759 -0.2259  0.4134
   45MOL   H30718875   3.992   0.316   4.190  0.4566  1.2399 -1.6525
   45MOL   H30818876   3.753   0.145   4.256  0.5055  0.4519 -0.3827
   45MOL   H30918877   3.732   0.316   4.247  1.3867  1.6785 -2.7037
   45MOL   H31018878   3.758   0.263   4.445 -0.2475  0.8881 -1.7590
   45MOL   H31118879   3.931   0.320   4.410  1.3689 -1.1304  0.6195
   45MOL   H31218880   3.829   0.039   4.451 -0.6913  0.5703  1.5952
   45MOL   H31318881   3.996   0.083   4.383 -0.3775  1.7755 -0.9147
   45MOL   H31418882   4.007   0.211   4.619 -0.6540 -0.9507  3.0286
   45MOL   H31518883   3.860   0.136   4.662  1.6128  0.3856  1.9915
   45MOL   H31618884   4.019   0.054   4.630  1.0198  0.5338 -0.7259
   45MOL   C31718885   3.828   0.392   3.967 -0.1503 -0.0676  0.1536
   45MOL   C31818886   3.947   0.489   3.964  0.2188 -0.8719 -0.2368
   45MOL   C31918887   4.071   0.423   3.887  0.2260  0.5476 -0.0987
   45MOL   C32018888   4.055   0.379   3.747  0.2812 -0.3987 -0.5905
   45MOL   C32118889   4.182   0.319   3.684 -0.3514 -0.2086 -0.2843
   45MOL   C32218890   4.239   0.193   3.751  0.4004 -0.1061  0.5290
   45MOL   C32318891   4.382   0.158   3.705 -0.7926 -0.4807 -0.3695
   45MOL   H32418892   3.757   0.436   4.037  0.1120 -0.5596  0.7385
   45MOL   H32518893   3.790   0.386   3.865 -1.5144 -0.4833  0.6651
   45MOL   H32618894   3.974   0.505   4.068  1.4528  2.4916 -1.0299
   45MOL   H32718895   4.094   0.332   3.943  0.9738 -1.2661 -3.2486
   45MOL   H32818896   4.166   0.475   3.900 -0.1572  1.6831 -1.7786
   45MOL   H32918897   4.020   0.463   3.688 -0.5060  0.0828  0.5323
   45MOL   H33018898   3.974   0.305   3.750 -0.0025 -0.0738 -0.1498
   45MOL   H33118899   4.260   0.394   3.676 -0.5389  0.1083  0.8541
   45MOL   H33218900   4.157   0.302   3.579  2.4845  0.3144 -1.0841
   45MOL   H33318901   4.172   0.108   3.738  1.9052 -1.0162 -1.4997
   45MOL   H33418902   4.248   0.207   3.859  0.1074  0.5954  0.4601
   45MOL   H33518903   4.423   0.071   3.758 -0.8565 -0.6465 -0.5898
   45MOL   H33618904   4.444   0.245   3.724 -1.0576 -0.5702  0.9822
   45MOL   H33718905   4.388   0.141   3.597  0.3424  0.0440 -0.3926
   45MOL   C33818906   3.898   0.622   3.898 -0.3231 -0.2860 -0.1850
   45MOL   C33918907   3.820   0.728   3.974 -0.0925  0.3444 -1.0719
   45MOL   C34018908   3.771   0.841   3.874  0.7943 -0.7052  0.1961
   45MOL   C34118909   3.667   0.934   3.941  0.2504  0.1546  0.0022
   45MOL   C34218910   3.575   1.010   3.845  0.7441  0.4317 -0.4262
   45MOL   C34318911   3.619   1.152   3.794 -0.0438  0.2191 -0.3816
   45MOL   C34418912   3.672   1.238   3.910 -0.3720 -0.7507  0.4645
   45MOL   H34518913   3.852   0.599   3.802 -0.4324 -0.5898 -0.0611
   45MOL   H34618914   3.987   0.670   3.859 -0.1511  1.2109  1.9522
   45MOL   H34718915   3.740   0.673   4.024 -0.0674 -1.4861 -2.9759
   45MOL   H34818916   3.854   0.900   3.834  0.5784  0.5870  1.5934
   45MOL   H34918917   3.727   0.797   3.785  1.1743 -0.5990 -0.0473
   45MOL   H35018918   3.721   1.000   4.008  0.1966 -0.6249  0.8217
   45MOL   H35118919   3.600   0.871   4.000  1.1498  0.7338  1.6567
   45MOL   H35218920   3.560   0.943   3.760  1.7089  0.1629 -0.3905
   45MOL   H35318921   3.478   1.016   3.894 -0.1172  0.3910 -2.0710
   45MOL   H35418922   3.695   1.141   3.716 -0.1874 -0.4190 -0.4278
   45MOL   H35518923   3.531   1.202   3.754 -1.3265  0.8302  3.0689
   45MOL   H35618924   3.692   1.339   3.875  1.1509 -0.6045  1.6835
   45MOL   H35718925   3.774   1.210   3.935 -0.3427 -0.8536  0.2294
   45MOL   H35818926   3.601   1.232   3.992 -0.1997  2.6316  0.9194
   45MOL   C35918927   3.915   0.784   4.081 -0.7330 -0.6270  0.0762
   45MOL   C36018928   3.889   0.764   4.240 -0.6550  0.0895 -0.0733
   45MOL   C36118929   3.990   0.848   4.319 -0.5689 -0.2673 -0.1497
   45MOL   C36218930   4.139   0.815   4.289  0.2384  0.4028  0.2941
   45MOL   C36318931   4.241   0.855   4.398  0.8756  0.0789 -0.3017
   45MOL   C36418932   4.371   0.771   4.385  0.7631  0.6443  0.2972
   45MOL   C36518933   4.455   0.821   4.263  0.2940  0.3549 -0.3611
   45MOL   H36618934   3.923   0.891   4.061 -0.1204 -0.5526  0.6889
   45MOL   H36718935   4.017   0.749   4.065 -0.0983 -0.1971  2.8770
   45MOL   H36818936   3.899   0.657   4.263 -0.6129  0.0588 -0.2317
   45MOL   H36918937   3.967   0.954   4.310  0.0931  0.0186  1.3692
   45MOL   H37018938   3.993   0.825   4.425  1.1469  1.9693  0.3364
   45MOL   H37118939   4.141   0.710   4.260 -4.1503  1.1728 -3.2989
   45MOL   H37218940   4.179   0.872   4.206 -1.0324  0.7483 -0.0809
   45MOL   H37318941   4.263   0.961   4.398  0.9556  0.0788  1.2764
   45MOL   H37418942   4.203   0.843   4.500 -1.3794  0.7892 -1.0326
   45MOL   H37518943   4.433   0.784   4.474 -0.2319 -0.4810  1.1703
   45MOL   H37618944   4.345   0.666   4.374 -1.7172  1.2322  0.2422
   45MOL   H37718945   4.549   0.771   4.240  0.1464  1.4067 -3.4837
   45MOL   H37818946   4.409   0.810   4.165 -0.5683 -0.7022  0.1515
   45MOL   H37918947   4.476   0.928   4.260 -1.1321  0.6308 -1.0308
   45MOL   C38018948   3.745   0.800   4.282 -0.0216  0.1681  0.3543
   45MOL   C38118949   3.671   0.707   4.369 -0.6751  0.2508 -0.7508
   45MOL   C38218950   3.647   0.568   4.304  0.0201 -0.2841 -0.2007
   45MOL   C38318951   3.498   0.536   4.288 -0.3501 -0.3229 -0.8781
   45MOL   C38418952   3.433   0.612   4.169 -0.2343 -0.2778 -0.3818
   45MOL   C38518953   3.291   0.578   4.138 -0.6444  0.5251  0.2799
   45MOL   C38618954   3.285   0.447   4.071 -0.7388  0.3080  0.2289
   45MOL   H38718955   3.731   0.898   4.328 -0.7600  0.6382 -0.8498
   45MOL   H38818956   3.686   0.816   4.192  0.8414  2.4181  0.1590
   45MOL   H38918957   3.572   0.749   4.386 -1.3245 -1.5261 -0.0682
   45MOL   H39018958   3.691   0.484   4.358  0.5325  0.4680  0.5698
   45MOL   H39118959   3.700   0.569   4.209  0.2066  3.8463 -0.1315
   45MOL   H39218960   3.487   0.428   4.281  1.7547 -0.7800  1.9511
   45MOL   H39318961   3.436   0.575   4.369  0.2357 -0.6018 -0.2962
   45MOL   H39418962   3.441   0.715   4.202  0.3472 -0.2621 -0.5648
   45MOL   H39518963   3.501   0.617   4.083 -0.4791  0.1697 -0.5509
   45MOL   H39618964   3.250   0.649   4.065 -0.3889  1.5802  1.1438
   45MOL   H39718965   3.223   0.596   4.222 -1.3776 -2.8559  0.4623
   45MOL   H39818966   3.186   0.427   4.030  0.1639 -2.1936 -0.7847
   45MOL   H39918967   3.308   0.369   4.144  2.1140  2.8387  2.1646
   45MOL   H40018968   3.359   0.447   3.991  1.3329 -1.7483  2.0788
   45MOL   C40118969   3.739   0.705   4.504 -1.0865  0.1794  0.1135
   45MOL   C40218970   3.656   0.627   4.609 -0.2820 -0.9186  0.2291
   45MOL   C40318971   3.740   0.631   4.739 -0.0487  0.2577 -0.3644
   45MOL   C40418972   3.739   0.502   4.817  0.4480  0.2336 -0.1456
   45MOL   C40518973   3.844   0.497   4.932  0.0169 -1.1189  0.3366
   45MOL   C40618974   3.865   0.359   5.001 -0.5940  0.3041  0.0251
   45MOL   C40718975   4.008   0.344   5.058  0.4205 -0.4649  0.4066
   45MOL   H40818976   3.758   0.802   4.548 -2.6723  0.3279  0.4959
   45MOL   H40918977   3.837   0.658   4.494  0.1002  2.7807 -0.8495
   45MOL   H41018978   3.605   0.534   4.583  0.3716 -0.6833 -2.0494
   45MOL   H41118979   3.718   0.709   4.812  0.7781  0.7339 -0.6190
   45MOL   H41218980   3.846   0.638   4.716  0.7704 -3.2973  1.8635
   45MOL   H41318981   3.765   0.421   4.750 -0.8521 -0.7416  0.5079
   45MOL   H41418982   3.641   0.489   4.864  1.0575 -0.3980  0.9645
   45MOL   H41518983   3.947   0.521   4.903 -0.2006 -0.9949 -0.3452
   45MOL   H41618984   3.838   0.568   5.014 -2.6987 -2.8001  1.6636
   45MOL   H41718985   3.796   0.346   5.084  0.2281  1.8557  0.9692
   45MOL   H41818986   3.855   0.285   4.921  0.0479  1.0690 -0.7733
   45MOL   H41918987   4.028   0.412   5.141 -1.8484  0.0400  0.5697
   45MOL   H42018988   4.075   0.357   4.974 -0.6415  1.3722 -0.1773
   45MOL   H42118989   4.022   0.244   5.100 -0.2137 -0.1405  1.4188
   45MOL   H42218990   3.571   0.693   4.629  1.1682  1.1335 -0.2361
   46MOL     C118991   1.854   1.932   3.936  0.2414 -0.1455  0.4177
   46MOL     C218992   1.995   1.995   3.923  0.3879  0.2153 -0.3655
   46MOL     C318993   1.977   2.149   3.908 -0.3634 -0.3201  0.9897
   46MOL     C418994   2.094   2.224   3.852  0.4281 -0.1945 -0.6221
   46MOL     C518995   2.079   2.375   3.848 -0.6046  0.1693  0.4477
   46MOL     C618996   2.189   2.446   3.759 -0.2480 -0.7088  0.8114
   46MOL     C718997   2.144   2.586   3.745  0.3555 -0.2643  0.0567
   46MOL     H818998   1.792   1.974   3.857  1.4872  0.8810 -0.0441
   46MOL     H918999   1.803   1.951   4.030  0.4619  1.1317  0.2893
   46MOL    H1019000   2.060   1.984   4.010  1.1289 -1.0690 -1.0637
   46MOL    H1119001   1.889   2.183   3.852  1.1352 -0.2082 -1.3766
   46MOL    H1219002   1.953   2.197   4.003 -2.7103  1.3536 -0.3825
   46MOL    H1319003   2.186   2.195   3.904 -0.8465 -1.7940  0.7724
   46MOL    H1419004   2.114   2.196   3.749  0.5476  1.3755 -1.0336
   46MOL    H1519005   2.075   2.404   3.953 -1.5705 -1.8040  0.9739
   46MOL    H1619006   1.984   2.406   3.805 -0.5704  1.0483  1.0016
   46MOL    H1719007   2.202   2.394   3.664  0.4785 -1.5353  1.3533
   46MOL    H1819008   2.284   2.458   3.810 -0.1297 -1.1333  0.6914
   46MOL    H1919009   2.215   2.656   3.702  0.4558 -1.4181 -1.7394
   46MOL    H2019010   2.112   2.622   3.842 -2.2081 -1.4536 -0.3036
   46MOL    H2119011   2.052   2.595   3.687  0.9721 -2.3811 -1.3447
   46MOL    H2219012   1.866   1.827   3.909 -1.1350 -0.8538  2.4364
   46MOL    C2319013   2.078   1.931   3.812 -0.1120 -0.3039 -0.0124
   46MOL    C2419014   2.131   1.789   3.845  0.8407 -0.9259 -0.5632
   46MOL    C2519015   2.209   1.778   3.973  0.6558 -0.2570  0.9072
   46MOL    C2619016   2.332   1.880   3.978  0.0200 -0.7711  0.1365
   46MOL    C2719017   2.403   1.884   4.113  0.2748  0.1418 -0.3288
   46MOL    C2819018   2.521   1.987   4.107 -0.3333 -0.3965 -0.6722
   46MOL    C2919019   2.653   1.928   4.062 -0.0963 -0.1141  0.2303
   46MOL    H3019020   2.015   1.930   3.723 -0.3923 -0.5772  0.1877
   46MOL    H3119021   2.154   2.002   3.780 -0.7074  1.1730  1.8164
   46MOL    H3219022   2.043   1.725   3.854 -0.1919  0.3626 -1.2783
   46MOL    H3319023   2.248   1.676   3.971 -0.0684 -0.5211 -0.1268
   46MOL    H3419024   2.137   1.771   4.054  1.3466  0.5856  1.5979
   46MOL    H3519025   2.297   1.982   3.961 -3.5501 -1.8683  0.5581
   46MOL    H3619026   2.398   1.853   3.896 -0.4652  0.1860 -0.5729
   46MOL    H3719027   2.432   1.782   4.139 -0.3074  0.0051 -0.1914
   46MOL    H3819028   2.325   1.913   4.184  1.1633 -1.5914  1.3878
   46MOL    H3919029   2.532   2.036   4.204  0.5830  1.8188 -1.8357
   46MOL    H4019030   2.505   2.083   4.057 -1.8400 -0.8283 -1.0345
   46MOL    H4119031   2.690   1.845   4.121 -1.5907 -0.8818  0.1233
   46MOL    H4219032   2.639   1.889   3.961  0.4285 -1.7134  0.7570
   46MOL    H4319033   2.734   2.000   4.061  0.0267 -0.2306  1.2454
   46MOL    C4419034   2.206   1.725   3.733 -0.1770 -0.3421  0.4662
   46MOL    C4519035   2.121   1.666   3.618  0.1853 -0.1675 -0.2948
   46MOL    C4619036   2.207   1.658   3.486 -0.0375  0.0041 -0.4919
   46MOL    C4719037   2.228   1.794   3.410  0.0607  0.5267 -0.4748
   46MOL    C4819038   2.322   1.783   3.285  0.4754 -0.7348 -0.2942
   46MOL    C4919039   2.333   1.917   3.213 -0.6507  0.0405 -0.4426
   46MOL    C5019040   2.410   1.903   3.080 -0.4633 -0.6729 -0.3334
   46MOL    H5119041   2.268   1.643   3.770 -1.4730 -0.7979  1.6810
   46MOL    H5219042   2.272   1.802   3.695  1.5655 -1.5878  0.8620
   46MOL    H5319043   2.043   1.739   3.599 -2.3044 -2.3323  1.2287
   46MOL    H5419044   2.170   1.588   3.410 -0.7589  2.4616 -2.4786
   46MOL    H5519045   2.307   1.619   3.508 -0.0463  0.5836  0.6002
   46MOL    H5619046   2.126   1.814   3.377 -0.6303 -1.8431  0.1410
   46MOL    H5719047   2.267   1.874   3.473 -2.6515  0.1658  1.7465
   46MOL    H5819048   2.283   1.708   3.216 -1.0921 -0.7786  0.6034
   46MOL    H5919049   2.422   1.750   3.313  0.4578 -1.0724 -0.6270
   46MOL    H6019050   2.388   1.996   3.262  0.4746 -0.4420 -0.9009
   46MOL    H6119051   2.230   1.944   3.192 -0.0373  2.3694 -0.5320
   46MOL    H6219052   2.444   1.998   3.039  3.4387 -1.7869  0.1547
   46MOL    H6319053   2.348   1.855   3.004 -0.1063 -0.0917 -0.9931
   46MOL    H6419054   2.496   1.841   3.106 -1.2819 -0.9113  1.9472
   46MOL    C6519055   2.049   1.530   3.644 -0.0766  0.2766 -0.1425
   46MOL    C6619056   1.903   1.528   3.615  0.4924  0.0085  0.4954
   46MOL    C6719057   1.821   1.404   3.668  0.5882 -0.3705 -0.1910
   46MOL    C6819058   1.871   1.281   3.586  0.3759  0.5270  0.0212
   46MOL    C6919059   1.811   1.151   3.629 -0.1837 -0.3648 -0.2335
   46MOL    C7019060   1.899   1.024   3.584  0.1398  0.1680  0.6182
   46MOL    C7119061   1.833   0.886   3.613 -0.1377  0.2767 -0.6447
   46MOL    H7219062   2.100   1.446   3.596 -0.9162  0.1165 -0.7699
   46MOL    H7319063   2.059   1.514   3.751 -2.1136  0.3710  0.0745
   46MOL    H7419064   1.860   1.606   3.678  2.0021  1.5279 -0.3001
   46MOL    H7519065   1.834   1.385   3.775 -0.2495 -0.8982 -0.1749
   46MOL    H7619066   1.712   1.409   3.668  0.6614  1.1794 -0.0968
   46MOL    H7719067   1.861   1.293   3.478  0.7046 -0.8227 -0.1604
   46MOL    H7819068   1.978   1.272   3.600  0.1796 -0.8436  0.6643
   46MOL    H7919069   1.797   1.148   3.737  1.9322 -1.0157  0.0554
   46MOL    H8019070   1.712   1.142   3.586  0.1188 -0.6253 -0.8782
   46MOL    H8119071   2.001   1.025   3.622  0.1499  0.6014  0.5766
   46MOL    H8219072   1.911   1.024   3.476  2.3892  0.8540  0.8377
   46MOL    H8319073   1.725   0.891   3.605 -0.1557 -1.4327 -1.8138
   46MOL    H8419074   1.862   0.824   3.528  1.3551  0.3695 -0.2258
   46MOL    H8519075   1.864   0.843   3.708 -0.5689 -0.5534 -0.8815
   46MOL    C8619076   1.871   1.580   3.467 -0.1862 -0.1618 -0.1738
   46MOL    C8719077   1.728   1.609   3.426  0.0148 -0.5041  0.2223
   46MOL    C8819078   1.721   1.764   3.386  0.3584 -0.0132  0.0716
   46MOL    C8919079   1.740   1.859   3.506  0.1129  0.2738  0.2008
   46MOL    C9019080   1.694   1.991   3.465 -0.1392 -0.2581 -0.0622
   46MOL    C9119081   1.707   2.086   3.589 -0.2406 -0.5043  0.0083
   46MOL    C9219082   1.653   2.229   3.561 -0.4993  0.8804  0.4751
   46MOL    H9319083   1.934   1.664   3.440 -0.5575  0.4886  0.9933
   46MOL    H9419084   1.906   1.493   3.411 -0.5546 -2.3233  2.8425
   46MOL    H9519085   1.670   1.593   3.517  0.3366 -0.1109  0.4988
   46MOL    H9619086   1.795   1.782   3.308 -0.7759 -1.2091 -1.2927
   46MOL    H9719087   1.620   1.787   3.355 -1.0514 -0.2840  4.1435
   46MOL    H9819088   1.684   1.824   3.593  2.3894  1.2245  2.1350
   46MOL    H9919089   1.841   1.852   3.548  0.2381 -1.8710 -0.4199
   46MOL   H10019090   1.587   1.992   3.444 -0.7694 -0.4426  2.9661
   46MOL   H10119091   1.751   2.037   3.384 -0.0857 -2.2731 -1.2195
   46MOL   H10219092   1.652   2.053   3.678  0.4573  0.3455  0.7684
   46MOL   H10319093   1.816   2.099   3.594 -0.1098 -1.4462 -0.2089
   46MOL   H10419094   1.547   2.229   3.535 -0.6568 -0.1853  1.0792
   46MOL   H10519095   1.721   2.273   3.488  0.5967 -0.2631  0.7910
   46MOL   H10619096   1.666   2.287   3.653 -2.5716 -1.6391  2.4412
   46MOL   C10719097   1.673   1.514   3.321  0.4965  0.0156  0.5368
   46MOL   C10819098   1.530   1.546   3.256 -0.4222  0.1695  0.0329
   46MOL   C10919099   1.507   1.459   3.128 -0.6379 -0.1385  0.0494
   46MOL   C11019100   1.603   1.492   3.005 -0.1896 -0.4802  0.2057
   46MOL   C11119101   1.578   1.631   2.936  0.8347 -0.0688  0.4320
   46MOL   C11219102   1.677   1.647   2.820 -0.4239 -0.2546 -0.3022
   46MOL   C11319103   1.676   1.797   2.781 -0.0351  0.9674 -0.1133
   46MOL   H11419104   1.659   1.411   3.355 -0.5826  0.4392  1.4410
   46MOL   H11519105   1.740   1.507   3.236 -1.8918 -0.3130 -1.3717
   46MOL   H11619106   1.535   1.651   3.226  1.4464 -0.1388 -0.8052
   46MOL   H11719107   1.404   1.469   3.093 -0.4983 -0.5706 -0.5032
   46MOL   H11819108   1.508   1.354   3.156 -1.1129  0.0731  0.8855
   46MOL   H11919109   1.708   1.495   3.034 -1.0464  2.5819  3.4109
   46MOL   H12019110   1.589   1.417   2.928  0.5118  1.5520 -1.9871
   46MOL   H12119111   1.596   1.705   3.014  1.9741  0.9458 -0.7688
   46MOL   H12219112   1.477   1.631   2.894  0.8927 -0.1892  0.2894
   46MOL   H12319113   1.780   1.618   2.843 -0.6298 -0.1792  0.7608
   46MOL   H12419114   1.648   1.573   2.745 -0.6606 -0.3180 -0.1486
   46MOL   H12519115   1.581   1.824   2.734 -0.4982 -1.1824 -0.4504
   46MOL   H12619116   1.698   1.845   2.877  1.7887 -0.3560  0.1510
   46MOL   H12719117   1.767   1.811   2.722 -0.5290  0.8254 -0.9186
   46MOL   C12819118   1.420   1.527   3.357 -0.2468  0.2971  0.1246
   46MOL   C12919119   1.277   1.569   3.323  0.0078 -0.1308  0.7388
   46MOL   C13019120   1.254   1.718   3.285 -0.0915 -0.7608  0.6367
   46MOL   C13119121   1.263   1.817   3.399  0.0030 -0.0814 -0.4291
   46MOL   C13219122   1.258   1.971   3.369  0.3551 -0.1897 -0.1177
   46MOL   C13319123   1.295   2.052   3.494 -0.3897  1.0846  0.2403
   46MOL   C13419124   1.261   2.193   3.476  0.4390 -0.8793  0.0618
   46MOL   H13519125   1.416   1.419   3.370 -0.1020  0.2483 -0.2287
   46MOL   H13619126   1.448   1.568   3.454 -0.7005 -0.5820  0.6313
   46MOL   H13719127   1.245   1.515   3.234  0.8605  1.0201 -0.2919
   46MOL   H13819128   1.159   1.732   3.233 -0.0291  0.0861  0.7517
   46MOL   H13919129   1.323   1.751   3.208 -1.8499  1.8947  0.1164
   46MOL   H14019130   1.361   1.794   3.441 -0.0598  0.7294  0.1772
   46MOL   H14119131   1.186   1.794   3.473 -0.0672 -1.7256 -0.9755
   46MOL   H14219132   1.163   2.012   3.335  0.1078  1.3210  2.3181
   46MOL   H14319133   1.324   1.997   3.285 -1.0128  2.8519 -0.3332
   46MOL   H14419134   1.400   2.036   3.519 -0.5768 -2.9689 -1.3297
   46MOL   H14519135   1.246   2.005   3.579  1.3796 -0.8874  0.2110
   46MOL   H14619136   1.156   2.222   3.474  0.4537 -0.6475  1.9827
   46MOL   H14719137   1.308   2.228   3.384 -1.8166 -2.5949 -1.7943
   46MOL   H14819138   1.296   2.250   3.562 -1.2209  1.1450 -0.5808
   46MOL   C14919139   1.181   1.514   3.431  0.4165  0.4614  0.0449
   46MOL   C15019140   1.032   1.530   3.417 -0.2765 -0.0527  0.0736
   46MOL   C15119141   0.952   1.493   3.544 -0.6905  0.7719 -0.2862
   46MOL   C15219142   0.968   1.587   3.665 -0.0931 -0.4336 -0.0973
   46MOL   C15319143   0.868   1.566   3.785  0.4965  0.1471 -0.0947
   46MOL   C15419144   0.894   1.428   3.847 -0.3787 -0.1966 -0.3611
   46MOL   C15519145   0.810   1.398   3.968 -0.0693 -0.0499 -0.2295
   46MOL   H15619146   1.186   1.409   3.459  0.4738  0.6518  0.7522
   46MOL   H15719147   1.204   1.561   3.527  0.3706 -3.1248  1.8939
   46MOL   H15819148   1.011   1.637   3.407  2.0486  0.2885 -1.4131
   46MOL   H15919149   0.848   1.506   3.516 -0.8319  1.7153  0.6090
   46MOL   H16019150   0.980   1.395   3.583  0.6210 -0.1446 -3.3988
   46MOL   H16119151   0.961   1.686   3.620  0.9992 -0.0218  0.6074
   46MOL   H16219152   1.068   1.564   3.703 -0.0253  1.0281  0.6217
   46MOL   H16319153   0.767   1.556   3.746  0.2700 -0.0933  0.5437
   46MOL   H16419154   0.868   1.647   3.857  0.9082 -0.0171  0.0948
   46MOL   H16519155   0.998   1.433   3.879 -0.2500 -1.6061 -0.5125
   46MOL   H16619156   0.895   1.342   3.780  0.1942 -0.1014 -0.4743
   46MOL   H16719157   0.789   1.479   4.038 -3.4273 -1.8762  0.9537
   46MOL   H16819158   0.857   1.324   4.033  1.9897  0.1985 -1.3931
   46MOL   H16919159   0.713   1.360   3.937 -0.2154  0.5285 -0.4944
   46MOL   C17019160   0.987   1.454   3.293 -0.1794 -0.3879  0.5917
   46MOL   C17119161   0.983   1.298   3.304 -0.3148 -1.2777 -1.0719
   46MOL   C17219162   0.844   1.242   3.340  0.0829  0.4438 -0.7784
   46MOL   C17319163   0.835   1.100   3.393 -0.2181 -0.2290 -0.3352
   46MOL   C17419164   0.870   1.074   3.540  0.5254 -0.2788 -0.3408
   46MOL   C17519165   0.863   0.927   3.579  0.0924  0.4779 -0.6381
   46MOL   C17619166   0.888   0.895   3.728  0.0240  0.6569 -0.2197
   46MOL   H17719167   1.043   1.495   3.209 -0.6533 -0.0755  0.4210
   46MOL   H17819168   0.883   1.473   3.263 -1.4718 -2.0932  3.8273
   46MOL   H17919169   1.045   1.266   3.387 -0.7992  1.6599  0.4944
   46MOL   H18019170   0.767   1.248   3.263 -0.7569  1.6290  0.1196
   46MOL   H18119171   0.808   1.299   3.426 -2.5199 -1.4934 -0.4928
   46MOL   H18219172   0.897   1.032   3.336 -0.4933 -0.2592 -0.5969
   46MOL   H18319173   0.734   1.064   3.373 -0.2287  0.2361 -1.1470
   46MOL   H18419174   0.796   1.123   3.604  0.4459 -0.6634 -0.1398
   46MOL   H18519175   0.972   1.110   3.549  0.8679 -1.2565 -0.3240
   46MOL   H18619176   0.928   0.863   3.519 -1.3135 -1.3761 -0.2462
   46MOL   H18719177   0.766   0.891   3.545 -0.1649  0.0407  0.5198
   46MOL   H18819178   0.837   0.962   3.797 -0.1959  1.0623 -0.7784
   46MOL   H18919179   0.991   0.905   3.762 -0.1341  2.9579 -0.3730
   46MOL   H19019180   0.864   0.789   3.739  1.1974  0.0095 -3.3790
   46MOL   C19119181   1.040   1.230   3.174  0.4824  0.0484  0.3498
   46MOL   C19219182   1.184   1.184   3.188 -0.4157  0.1647 -0.5322
   46MOL   C19319183   1.188   1.057   3.272 -0.4308  0.2769  0.4641
   46MOL   C19419184   1.329   1.018   3.303 -0.2450  1.0317  0.0288
   46MOL   C19519185   1.343   0.899   3.402  0.6745  0.0808  0.2608
   46MOL   C19619186   1.468   0.884   3.478 -0.5964 -0.1751 -0.3445
   46MOL   C19719187   1.495   0.737   3.531 -0.3149  0.7829 -0.7908
   46MOL   H19819188   1.024   1.289   3.084  1.3761  0.1053  0.2300
   46MOL   H19919189   0.988   1.135   3.157 -1.0866  1.1559 -1.2306
   46MOL   H20019190   1.231   1.258   3.254 -0.5388 -0.2213 -0.0093
   46MOL   H20119191   1.133   0.972   3.232 -1.9639  1.9593 -1.0438
   46MOL   H20219192   1.136   1.071   3.367  1.8020  1.7095  1.5347
   46MOL   H20319193   1.370   1.107   3.352  0.2311  2.4961 -2.8939
   46MOL   H20419194   1.396   0.997   3.220 -0.3327 -1.5296  0.5860
   46MOL   H20519195   1.256   0.892   3.467  0.2934  0.6357 -0.1868
   46MOL   H20619196   1.327   0.807   3.346  1.2991 -0.5190  1.0589
   46MOL   H20719197   1.459   0.944   3.568 -0.5599 -1.4480  0.5250
   46MOL   H20819198   1.558   0.917   3.427 -0.4064  1.5517  1.0423
   46MOL   H20919199   1.584   0.733   3.593 -0.9332  1.1858  0.1319
   46MOL   H21019200   1.495   0.662   3.453 -0.0138 -2.8348  2.5287
   46MOL   H21119201   1.407   0.706   3.587  0.6819 -0.6740  0.0175
   46MOL   C21219202   1.259   1.171   3.046  0.2872 -0.1515 -0.2583
   46MOL   C21319203   1.207   1.065   2.948  0.5598  0.6180 -0.5616
   46MOL   C21419204   1.092   1.117   2.867 -0.2047 -0.5837  0.1524
   46MOL   C21519205   1.129   1.229   2.772 -0.6752 -0.1180 -0.1243
   46MOL   C21619206   1.008   1.270   2.694  0.6511  0.5746 -0.4999
   46MOL   C21719207   1.020   1.394   2.607  0.3675 -0.1011  0.3252
   46MOL   C21819208   0.878   1.432   2.551  0.1675 -0.0841  0.0130
   46MOL   H21919209   1.367   1.160   3.059  0.3014 -0.7565 -0.7992
   46MOL   H22019210   1.257   1.272   3.007 -0.7179  0.2693  0.8613
   46MOL   H22119211   1.160   0.979   2.996 -0.7690  1.7914  0.2314
   46MOL   H22219212   1.053   1.024   2.824 -2.4247  0.2778  0.2184
   46MOL   H22319213   1.006   1.147   2.928 -0.7037  0.6143 -1.1276
   46MOL   H22419214   1.222   1.221   2.717 -0.0756 -0.1640  0.8915
   46MOL   H22519215   1.145   1.313   2.840 -1.6031 -0.6978  0.8327
   46MOL   H22619216   0.980   1.197   2.619 -0.0793  0.9306 -0.5831
   46MOL   H22719217   0.928   1.273   2.769  0.4938 -0.9174 -0.5966
   46MOL   H22819218   1.079   1.470   2.658  0.1935  0.4906 -0.3566
   46MOL   H22919219   1.078   1.359   2.522 -0.2234 -0.1513 -0.0617
   46MOL   H23019220   0.850   1.384   2.457 -1.5658  0.8866  0.0150
   46MOL   H23119221   0.888   1.538   2.526 -3.1323 -0.0699 -1.4993
   46MOL   H23219222   0.800   1.418   2.625 -0.3367 -1.1240 -0.7026
   46MOL   C23319223   1.321   1.018   2.855  0.1983 -0.3642  0.4049
   46MOL   C23419224   1.396   0.901   2.915  0.2966 -0.4442 -0.0024
   46MOL   C23519225   1.303   0.774   2.913 -0.5661 -0.0510  0.0069
   46MOL   C23619226   1.291   0.700   3.046 -0.2658 -0.3591  0.2770
   46MOL   C23719227   1.214   0.560   3.049 -0.3679  0.0093 -0.1936
   46MOL   C23819228   1.289   0.449   2.976  0.0764 -0.8868  0.1616
   46MOL   C23919229   1.222   0.314   2.956  0.2000 -1.2393 -0.7175
   46MOL   H24019230   1.388   1.102   2.836 -1.9567  1.7295  1.8045
   46MOL   H24119231   1.276   0.991   2.760  0.2382 -3.5328  1.2480
   46MOL   H24219232   1.408   0.928   3.020  0.1174  0.0669 -0.1120
   46MOL   H24319233   1.341   0.709   2.835 -0.9414 -1.9117  1.3271
   46MOL   H24419234   1.200   0.800   2.888 -0.5344 -0.5655 -0.6503
   46MOL   H24519235   1.233   0.776   3.099  1.8334  1.6214 -0.1854
   46MOL   H24619236   1.384   0.676   3.098  0.3767  1.5550  0.0708
   46MOL   H24719237   1.113   0.566   3.007 -0.1846  0.4786 -0.5754
   46MOL   H24819238   1.203   0.524   3.151  0.8305  2.0090  0.6512
   46MOL   H24919239   1.305   0.498   2.880  0.0177  0.5840  0.8892
   46MOL   H25019240   1.384   0.443   3.028  0.0951 -0.0352  0.2335
   46MOL   H25119241   1.299   0.239   2.939 -0.3768 -1.7471 -1.1384
   46MOL   H25219242   1.169   0.277   3.045 -1.1146 -0.2127 -1.0519
   46MOL   H25319243   1.146   0.304   2.878 -0.6399 -1.0750  0.0653
   46MOL   C25419244   1.534   0.885   2.848  0.3359 -1.0692 -0.3750
   46MOL   C25519245   1.610   0.767   2.918  0.1971  0.5504  0.1469
   46MOL   C25619246   1.638   0.796   3.068 -0.3861 -0.3359 -0.7487
   46MOL   C25719247   1.673   0.666   3.147 -0.0223  0.6247 -0.4235
   46MOL   C25819248   1.748   0.705   3.273 -0.1990 -0.0914 -0.3221
   46MOL   C25919249   1.773   0.584   3.371  0.0949  0.0494  0.0511
   46MOL   C26019250   1.873   0.480   3.322  0.1078 -0.6175 -0.5467
   46MOL   H26119251   1.589   0.979   2.858  0.7640 -1.3015 -0.5283
   46MOL   H26219252   1.512   0.861   2.744 -1.5882 -1.1291  0.0285
   46MOL   H26319253   1.544   0.680   2.920 -0.8445  1.3319  0.0188
   46MOL   H26419254   1.557   0.849   3.118  1.5079  1.2691  0.6829
   46MOL   H26519255   1.733   0.850   3.072 -0.5725 -0.1607  2.0133
   46MOL   H26619256   1.581   0.613   3.171 -0.8948  1.5228 -1.7564
   46MOL   H26719257   1.735   0.588   3.101 -0.9283 -1.0773  1.1698
   46MOL   H26819258   1.701   0.782   3.334  2.2400  0.3527  1.0554
   46MOL   H26919259   1.837   0.761   3.243  1.0616 -1.1453  1.3774
   46MOL   H27019260   1.814   0.623   3.463 -1.7623  1.7355  0.1889
   46MOL   H27119261   1.678   0.541   3.401 -0.2202  0.3382 -0.5042
   46MOL   H27219262   1.836   0.427   3.234 -1.5313 -0.9626  0.3215
   46MOL   H27319263   1.975   0.515   3.313  0.5056 -1.3736  0.7885
   46MOL   H27419264   1.885   0.397   3.393  0.9300 -1.3473 -1.5292
   46MOL   C27519265   1.740   0.731   2.836 -0.2648 -0.4231  0.1290
   46MOL   C27619266   1.708   0.650   2.703  0.0832 -0.2922 -0.1722
   46MOL   C27719267   1.645   0.510   2.726  0.1973 -0.8411 -0.0637
   46MOL   C27819268   1.519   0.501   2.643  0.2643  0.3897  0.0919
   46MOL   C27919269   1.447   0.363   2.659  0.1741  0.2060 -0.0613
   46MOL   C28019270   1.492   0.247   2.565 -0.8281 -0.0284 -0.2865
   46MOL   C28119271   1.385   0.148   2.542 -0.1340  0.6253 -0.7417
   46MOL   H28219272   1.814   0.672   2.891  2.6009  1.2708 -1.7804
   46MOL   H28319273   1.783   0.827   2.806 -0.4138  0.6449  3.1540
   46MOL   H28419274   1.641   0.720   2.652  0.8083  1.7216  1.5502
   46MOL   H28519275   1.708   0.423   2.707  0.1605 -0.9675  0.3873
   46MOL   H28619276   1.623   0.504   2.833  1.2465  0.1629  0.2173
   46MOL   H28719277   1.543   0.511   2.537  0.3512  1.2546  0.1875
   46MOL   H28819278   1.456   0.585   2.669 -1.5522 -0.2173 -2.1447
   46MOL   H28919279   1.343   0.394   2.658 -0.1441 -0.1535  5.7096
   46MOL   H29019280   1.455   0.324   2.761 -2.0103  1.7973  0.7423
   46MOL   H29119281   1.515   0.279   2.464  1.1664  0.1052  0.1706
   46MOL   H29219282   1.587   0.200   2.592  0.0415  1.1183 -1.3356
   46MOL   H29319283   1.408   0.055   2.490  0.3439  1.5537 -2.2042
   46MOL   H29419284   1.310   0.198   2.481  0.1144  2.3481  0.3249
   46MOL   H29519285   1.330   0.132   2.635  1.5358  0.1327  0.1640
   46MOL   C29619286   1.841   0.640   2.628 -0.1604  0.8397 -0.8110
   46MOL   C29719287   1.904   0.771   2.573  0.5478  1.4915  0.1661
   46MOL   C29819288   1.906   0.769   2.421  0.4543 -0.1826  0.6820
   46MOL   C29919289   1.769   0.756   2.353 -0.0977 -0.5946  0.8942
   46MOL   C30019290   1.680   0.889   2.349 -0.0396  0.3959 -0.0653
   46MOL   C30119291   1.543   0.888   2.274  0.1814 -0.3540  0.6733
   46MOL   C30219292   1.450   1.003   2.325  0.8569  0.2221 -0.3889
   46MOL   H30319293   1.914   0.599   2.697 -0.0363  1.2323 -0.7095
   46MOL   H30419294   1.839   0.555   2.559  0.0530 -0.5707  0.9058
   46MOL   H30519295   1.838   0.856   2.594 -0.7126  0.2527  1.2665
   46MOL   H30619296   1.958   0.858   2.388 -0.3879 -0.2016 -0.7720
   46MOL   H30719297   1.961   0.677   2.398  0.5413  0.0685 -0.1404
   46MOL   H30819298   1.711   0.681   2.406 -1.2386  1.7471  3.0900
   46MOL   H30919299   1.779   0.726   2.248 -1.9723 -1.2042  0.8665
   46MOL   H31019300   1.742   0.974   2.321  1.4457  0.5537  3.4943
   46MOL   H31119301   1.662   0.909   2.455  0.2199  0.2624  0.0039
   46MOL   H31219302   1.565   0.907   2.169 -1.5959  1.1524  0.5451
   46MOL   H31319303   1.491   0.793   2.275  1.1730 -0.8966  1.1156
   46MOL   H31419304   1.353   1.004   2.275  0.8500 -0.0955 -0.3838
   46MOL   H31519305   1.422   0.988   2.429 -2.6090  0.3264 -1.2409
   46MOL   H31619306   1.490   1.103   2.310  1.7098 -0.0574 -0.0080
   46MOL   C31719307   2.050   0.793   2.627 -0.0844 -0.5390  0.0866
   46MOL   C31819308   2.115   0.929   2.587 -0.0514 -0.2440 -0.2786
   46MOL   C31919309   2.015   1.054   2.583 -0.2872 -0.4651 -0.2083
   46MOL   C32019310   1.953   1.103   2.724  0.4234 -0.0900 -0.0381
   46MOL   C32119311   1.847   1.217   2.707 -0.1983  0.8914 -0.2818
   46MOL   C32219312   1.730   1.162   2.623  0.6214 -0.1183  0.2673
   46MOL   C32319313   1.627   1.269   2.604 -0.4443 -0.6174 -0.3042
   46MOL   H32419314   2.116   0.713   2.595 -1.3350 -1.4440 -0.2578
   46MOL   H32519315   2.053   0.784   2.735  0.6688 -0.7145  0.0589
   46MOL   H32619316   2.142   0.919   2.482  0.4580 -0.0001 -0.1712
   46MOL   H32719317   1.943   1.022   2.508 -0.5473 -1.0083  0.2707
   46MOL   H32819318   2.071   1.144   2.559  0.2635 -1.6856 -3.7203
   46MOL   H32919319   2.036   1.141   2.784  0.2431  0.9543 -0.4453
   46MOL   H33019320   1.913   1.025   2.789  1.2910 -0.7382 -0.2585
   46MOL   H33119321   1.884   1.309   2.661  0.6401  1.3222  1.2279
   46MOL   H33219322   1.813   1.251   2.804  0.5862  0.2506  0.2278
   46MOL   H33319323   1.692   1.070   2.667 -1.7537  1.2678  1.1950
   46MOL   H33419324   1.768   1.142   2.523  0.6619 -1.5057  0.5470
   46MOL   H33519325   1.654   1.348   2.535 -1.3964 -0.2927 -0.3148
   46MOL   H33619326   1.593   1.317   2.696  0.9575 -2.1986  1.0803
   46MOL   H33719327   1.534   1.222   2.572  0.4373 -2.1020 -0.7653
   46MOL   C33819328   2.236   0.948   2.682 -0.2585  0.3889  0.2336
   46MOL   C33919329   2.351   1.027   2.621 -0.5562 -0.0397  0.3470
   46MOL   C34019330   2.412   0.965   2.493  0.6097 -0.3272  0.4436
   46MOL   C34119331   2.491   1.062   2.408  0.8019  0.3796  0.6978
   46MOL   C34219332   2.580   1.009   2.289 -0.2865  0.0698 -0.9596
   46MOL   C34319333   2.490   0.955   2.167  0.0291 -0.2538 -0.7925
   46MOL   C34419334   2.570   0.873   2.075  0.0672  0.3692  1.0208
   46MOL   H34519335   2.269   0.853   2.722 -0.8270  0.6266  1.2902
   46MOL   H34619336   2.183   0.999   2.762 -1.3810 -3.9796  2.4407
   46MOL   H34719337   2.308   1.120   2.583 -1.0614 -1.1758 -1.9679
   46MOL   H34819338   2.478   0.885   2.528  0.4662 -1.2810 -1.4163
   46MOL   H34919339   2.334   0.919   2.432  0.3707 -1.4765  1.5964
   46MOL   H35019340   2.559   1.112   2.477 -0.5594  1.4304  1.3046
   46MOL   H35119341   2.418   1.136   2.376  1.2426  1.6976  2.6622
   46MOL   H35219342   2.649   1.084   2.248 -1.8716  1.4319 -1.2184
   46MOL   H35319343   2.654   0.942   2.331 -1.2378 -0.2633  0.2015
   46MOL   H35419344   2.403   0.896   2.194 -1.9768  2.2606 -1.6220
   46MOL   H35519345   2.460   1.048   2.119  0.8644  0.5235  0.1450
   46MOL   H35619346   2.632   0.795   2.120  0.8389 -0.1989 -0.9641
   46MOL   H35719347   2.623   0.946   2.013 -0.4811 -0.5451 -0.5604
   46MOL   H35819348   2.522   0.815   1.996  0.7236 -0.5192  1.2605
   46MOL   C35919349   2.452   1.068   2.735 -0.1045  0.1136  0.0385
   46MOL   C36019350   2.419   1.195   2.819 -0.4042  0.0702 -0.3153
   46MOL   C36119351   2.502   1.194   2.955 -0.1700  0.7101  0.2791
   46MOL   C36219352   2.654   1.212   2.929  0.4232 -0.9041 -0.1268
   46MOL   C36319353   2.744   1.153   3.039  0.0809 -0.0812 -0.0849
   46MOL   C36419354   2.724   1.194   3.180 -0.6993 -0.2481 -0.2756
   46MOL   C36519355   2.738   1.082   3.282 -0.0774 -0.2345 -0.2641
   46MOL   H36619356   2.550   1.091   2.692 -0.1231 -0.9553 -0.6062
   46MOL   H36719357   2.473   0.976   2.788  0.0955 -0.3355 -0.8104
   46MOL   H36819358   2.318   1.175   2.854 -1.4586  1.8163 -2.2706
   46MOL   H36919359   2.461   1.273   3.018  0.9298  0.3602  1.4449
   46MOL   H37019360   2.482   1.105   3.015  0.2461 -0.4074 -1.2114
   46MOL   H37119361   2.688   1.170   2.834  1.5869  1.9313 -1.0494
   46MOL   H37219362   2.674   1.318   2.913 -0.5971 -0.4135  1.7469
   46MOL   H37319363   2.738   1.045   3.037 -2.6661  0.0442 -0.1839
   46MOL   H37419364   2.844   1.185   3.009  0.7481 -2.6824 -0.7170
   46MOL   H37519365   2.796   1.275   3.196 -2.2378  0.8936  0.9764
   46MOL   H37619366   2.622   1.229   3.195 -1.0200  0.1872 -3.1739
   46MOL   H37719367   2.652   1.015   3.287  0.2238 -0.5088  1.5672
   46MOL   H37819368   2.829   1.026   3.258  0.3329  1.1412 -2.0278
   46MOL   H37919369   2.762   1.123   3.380  0.0623  0.7913 -0.7204
   46MOL   C38019370   2.440   1.328   2.740 -0.0670  0.1872 -1.2326
   46MOL   C38119371   2.396   1.456   2.814 -0.1708  0.0275 -0.2838
   46MOL   C38219372   2.433   1.582   2.729 -0.5312 -0.1468  0.4429
   46MOL   C38319373   2.590   1.602   2.703  0.1973 -1.0474 -0.0491
   46MOL   C38419374   2.629   1.752   2.662 -0.3215 -0.1840  0.1589
   46MOL   C38519375   2.608   1.787   2.510  0.3903 -0.4014  0.3606
   46MOL   C38619376   2.649   1.932   2.481  0.4258  0.3539  1.0170
   46MOL   H38719377   2.545   1.343   2.713  1.1514  0.1318  3.0403
   46MOL   H38819378   2.379   1.316   2.651  0.1209 -3.1620 -0.9555
   46MOL   H38919379   2.445   1.474   2.909  0.6983  1.2302 -0.9482
   46MOL   H39019380   2.401   1.674   2.777 -1.0657 -0.1251  0.0453
   46MOL   H39119381   2.381   1.575   2.634 -1.5229 -0.4281  1.0062
   46MOL   H39219382   2.637   1.569   2.795 -1.9115 -1.1328  1.0171
   46MOL   H39319383   2.628   1.528   2.632  0.6528 -1.2618  0.4128
   46MOL   H39419384   2.581   1.823   2.729  1.0464  0.3654  0.5667
   46MOL   H39519385   2.734   1.767   2.687  0.2484 -0.4248 -1.9380
   46MOL   H39619386   2.501   1.775   2.494 -0.0464  2.2792  1.1005
   46MOL   H39719387   2.666   1.715   2.452 -1.1717 -2.2499  1.0447
   46MOL   H39819388   2.621   1.995   2.565  0.3952 -1.3955  2.3741
   46MOL   H39919389   2.598   1.961   2.390 -0.4286 -1.6983  0.7968
   46MOL   H40019390   2.752   1.945   2.447  0.6314  1.7941  2.1822
   46MOL   C40119391   2.251   1.458   2.852  0.2696  0.4826 -0.6539
   46MOL   C40219392   2.185   1.584   2.924  0.2451  0.8654  0.0769
   46MOL   C40319393   2.036   1.573   2.942  0.4607  0.6543  0.0177
   46MOL   C40419394   1.989   1.683   3.037  0.4359 -0.9395  0.1374
   46MOL   C40519395   2.002   1.823   2.986  0.0801 -0.0137 -0.0341
   46MOL   C40619396   1.934   1.925   3.080  0.2357  0.6500  0.6871
   46MOL   C40719397   1.929   2.068   3.019  0.2650 -0.0276 -0.5457
   46MOL   H40819398   2.234   1.378   2.924  0.6846  1.7913  0.9276
   46MOL   H40919399   2.186   1.436   2.767  0.3221 -0.0204 -0.5633
   46MOL   H41019400   2.207   1.678   2.873 -1.5336  1.2781  0.0441
   46MOL   H41119401   2.000   1.480   2.986 -0.0022  1.6239  1.7284
   46MOL   H41219402   1.984   1.574   2.846  1.3863  1.7415 -0.4899
   46MOL   H41319403   2.032   1.674   3.137 -0.4274 -0.4287  0.5634
   46MOL   H41419404   1.886   1.662   3.064 -0.0274 -0.4069 -1.2081
   46MOL   H41519405   2.107   1.847   2.973  0.3656  0.5260  2.9411
   46MOL   H41619406   1.957   1.820   2.887 -0.1568 -2.2445  0.1179
   46MOL   H41719407   1.832   1.894   3.103  0.2339 -0.6203 -1.0133
   46MOL   H41819408   1.980   1.931   3.179 -0.2826  0.0759  0.9663
   46MOL   H41919409   1.872   2.141   3.076  0.3759  1.5955 -2.4705
   46MOL   H42019410   1.881   2.063   2.921 -1.0150 -0.6610  0.1044
   46MOL   H42119411   2.034   2.091   3.002  0.3934  1.5534  2.1256
   46MOL   H42219412   2.244   1.590   3.015 -0.8133  0.9447  0.7668
   47MOL     C119413   3.212   4.114   2.099  0.0572  0.0636  0.1258
   47MOL     C219414   3.062   4.082   2.124 -0.1579 -0.4470  0.5937
   47MOL     C319415   3.037   3.957   2.208  0.4083 -0.1925 -1.0456
   47MOL     C419416   2.890   3.916   2.232  0.6002  0.1521  0.0235
   47MOL     C519417   2.845   3.822   2.346 -0.1655  0.0201  0.0408
   47MOL     C619418   2.693   3.814   2.337  0.6301 -0.1483 -0.1535
   47MOL     C719419   2.613   3.948   2.359 -0.9646  0.3920 -0.0390
   47MOL     H819420   3.228   4.221   2.084  2.7924 -0.1968  0.9761
   47MOL     H919421   3.253   4.049   2.021 -0.1629 -3.2361  2.6604
   47MOL    H1019422   3.018   4.173   2.166  2.2175  0.9826  0.1282
   47MOL    H1119423   3.094   3.879   2.156  0.4451 -1.0200  0.2228
   47MOL    H1219424   3.082   3.960   2.307 -0.0526 -2.0887 -0.7606
   47MOL    H1319425   2.844   4.010   2.260  2.6806  0.7472  1.5464
   47MOL    H1419426   2.838   3.890   2.139 -0.8724  1.0045  0.5848
   47MOL    H1519427   2.877   3.856   2.444  2.9439 -1.1068 -0.5405
   47MOL    H1619428   2.885   3.722   2.327  0.1567 -0.3715  2.6612
   47MOL    H1719429   2.662   3.744   2.414  1.9565 -0.2505  0.2917
   47MOL    H1819430   2.662   3.759   2.248  1.2825 -0.6176 -0.0878
   47MOL    H1919431   2.511   3.914   2.374 -1.3207  0.5048 -1.9582
   47MOL    H2019432   2.625   4.025   2.282 -1.3220 -0.7736 -1.2854
   47MOL    H2119433   2.648   3.998   2.450 -1.5044 -1.6913  1.3254
   47MOL    H2219434   3.271   4.100   2.189 -0.7084  0.9209  0.7708
   47MOL    C2319435   3.000   4.059   1.981 -0.0092 -0.9691  0.0285
   47MOL    C2419436   3.016   4.174   1.881  0.7739 -0.4307  0.4235
   47MOL    C2519437   2.948   4.300   1.932  0.2971  0.4992 -0.2620
   47MOL    C2619438   2.799   4.292   1.944 -0.0275  0.2868  0.1959
   47MOL    C2719439   2.740   4.401   2.042  0.0127  0.6461  0.0264
   47MOL    C2819440   2.587   4.385   2.046  0.2892  0.6990  0.5311
   47MOL    C2919441   2.530   4.472   2.153  0.7278 -0.4768  0.0006
   47MOL    H3019442   3.039   3.965   1.944 -1.2875 -0.9631 -1.3972
   47MOL    H3119443   2.895   4.033   1.989  0.0939 -0.6581  2.7934
   47MOL    H3219444   3.120   4.197   1.857  0.2092 -0.2850 -2.0355
   47MOL    H3319445   2.984   4.379   1.867  1.5333 -0.2275 -0.4613
   47MOL    H3419446   2.983   4.328   2.031 -0.5059 -1.4570  0.6117
   47MOL    H3519447   2.756   4.198   1.978 -0.0967  0.8934  1.8553
   47MOL    H3619448   2.763   4.291   1.841 -0.1426 -0.4111  0.2396
   47MOL    H3719449   2.763   4.500   2.001 -1.6217  0.0393 -2.4611
   47MOL    H3819450   2.788   4.400   2.140  1.5682  0.5856 -0.7242
   47MOL    H3919451   2.558   4.285   2.077  0.0709  0.5549 -0.1209
   47MOL    H4019452   2.550   4.396   1.944  0.7853 -0.1506  0.2544
   47MOL    H4119453   2.564   4.576   2.150 -1.1420  0.1361 -1.2633
   47MOL    H4219454   2.422   4.453   2.151  0.5811  0.2232  0.8945
   47MOL    H4319455   2.559   4.447   2.255  0.0436  0.0832  0.3427
   47MOL    C4419456   2.974   4.117   1.735  0.4552 -0.1923  0.5812
   47MOL    C4519457   2.956   4.218   1.622 -0.2861 -0.3536  0.6227
   47MOL    C4619458   3.094   4.263   1.571  0.7984 -0.1362  0.5574
   47MOL    C4719459   3.102   4.391   1.498  0.3141 -0.3260  0.5495
   47MOL    C4819460   3.239   4.457   1.484  0.1347 -0.5196 -0.0275
   47MOL    C4919461   3.257   4.573   1.374 -0.4819  0.3914 -0.0078
   47MOL    C5019462   3.385   4.660   1.389  0.0147 -0.1102  0.3801
   47MOL    H5119463   2.881   4.061   1.738  0.2413  0.1008 -0.3588
   47MOL    H5219464   3.047   4.040   1.708 -0.0828 -0.8650  1.0052
   47MOL    H5319465   2.915   4.308   1.667  0.4134  0.2454  0.0649
   47MOL    H5419466   3.150   4.193   1.509  1.9829 -0.3290  1.8182
   47MOL    H5519467   3.150   4.286   1.662 -0.0321  5.6742 -0.1882
   47MOL    H5619468   3.058   4.385   1.399 -1.1322  0.8333  1.0964
   47MOL    H5719469   3.038   4.460   1.553 -0.6920  0.6391 -1.7645
   47MOL    H5819470   3.310   4.375   1.471 -0.5708 -1.4834  1.8863
   47MOL    H5919471   3.262   4.497   1.583 -0.1272 -2.1857  0.7363
   47MOL    H6019472   3.168   4.636   1.388 -0.4160  0.2815  0.9648
   47MOL    H6119473   3.257   4.530   1.274 -0.3846  0.3244  0.0209
   47MOL    H6219474   3.365   4.763   1.357 -0.7048  0.7646  3.3971
   47MOL    H6319475   3.468   4.623   1.329 -0.1919  0.7010 -0.4147
   47MOL    H6419476   3.415   4.673   1.493 -0.4679  1.3271  0.3600
   47MOL    C6519477   2.862   4.169   1.509 -0.4471  1.1617  0.8684
   47MOL    C6619478   2.713   4.195   1.534 -0.1497  0.0343  0.2631
   47MOL    C6719479   2.633   4.065   1.496 -0.2489  0.1540  0.1100
   47MOL    C6819480   2.645   3.949   1.586  0.2914  0.0998 -0.4047
   47MOL    C6919481   2.560   3.825   1.552 -0.1292 -0.3435  0.1489
   47MOL    C7019482   2.624   3.733   1.453  0.0869  0.1942  0.6066
   47MOL    C7119483   2.727   3.633   1.518  0.4786 -1.1934 -0.0750
   47MOL    H7219484   2.884   4.216   1.413 -0.4076 -2.0798 -0.7612
   47MOL    H7319485   2.890   4.064   1.500 -0.1879  1.0531  2.6623
   47MOL    H7419486   2.680   4.222   1.634  0.3415  2.3438 -0.1555
   47MOL    H7519487   2.531   4.105   1.488 -0.1924  0.4459  0.7939
   47MOL    H7619488   2.669   4.026   1.401  0.3984 -0.9379  0.7989
   47MOL    H7719489   2.747   3.913   1.598  0.4211  0.6522  0.1694
   47MOL    H7819490   2.613   3.985   1.684 -0.9114 -1.3625 -0.2443
   47MOL    H7919491   2.534   3.767   1.640  0.1608  2.0696  1.9014
   47MOL    H8019492   2.469   3.849   1.498  1.5085 -0.8186 -2.9425
   47MOL    H8119493   2.681   3.788   1.377  1.5934 -1.2690  0.6289
   47MOL    H8219494   2.556   3.660   1.410 -0.4608  1.5135 -0.8076
   47MOL    H8319495   2.804   3.703   1.551 -0.2646  0.7447 -2.2637
   47MOL    H8419496   2.672   3.595   1.604 -0.4114 -0.3637 -0.2687
   47MOL    H8519497   2.768   3.554   1.455  1.4720  0.0854 -1.0585
   47MOL    C8619498   2.667   4.320   1.448  0.4006 -0.5001  0.1861
   47MOL    C8719499   2.536   4.390   1.482  0.2255  0.8123  0.1934
   47MOL    C8819500   2.527   4.476   1.607  0.5924 -0.3013  0.2498
   47MOL    C8919501   2.649   4.567   1.621 -0.2400 -0.3162 -0.3917
   47MOL    C9019502   2.623   4.677   1.726 -0.1689 -0.0658  0.2293
   47MOL    C9119503   2.750   4.738   1.785  0.2783 -0.2056  0.0235
   47MOL    C9219504   2.724   4.834   1.904  0.2054  0.3062 -0.5894
   47MOL    H9319505   2.748   4.394   1.452 -0.3615  0.5167 -2.4891
   47MOL    H9419506   2.668   4.296   1.342 -0.0945 -0.4444  0.1672
   47MOL    H9519507   2.461   4.313   1.498  1.5383 -0.2188  1.4978
   47MOL    H9619508   2.431   4.527   1.601  0.2284 -1.0142 -0.1226
   47MOL    H9719509   2.523   4.402   1.688 -0.1668 -0.9215 -0.3437
   47MOL    H9819510   2.739   4.516   1.655  0.5214  1.7577  0.8231
   47MOL    H9919511   2.667   4.610   1.522 -2.4087  1.3669 -0.0923
   47MOL   H10019512   2.572   4.632   1.812 -3.0738  2.2316 -0.1758
   47MOL   H10119513   2.551   4.747   1.682  0.7084  1.0584  0.5592
   47MOL   H10219514   2.820   4.660   1.815  1.1688  0.9810  1.0822
   47MOL   H10319515   2.809   4.782   1.704  0.6373  1.0902  0.9839
   47MOL   H10419516   2.816   4.878   1.939  1.3092 -0.8291 -1.9750
   47MOL   H10519517   2.678   4.792   1.993  2.4751  1.6436  1.2612
   47MOL   H10619518   2.656   4.909   1.863 -1.3026 -0.9295 -0.4183
   47MOL   C10719519   2.502   4.470   1.349  0.8456  0.1736  0.1093
   47MOL   C10819520   2.359   4.526   1.327  0.6929 -0.7469  0.7278
   47MOL   C10919521   2.384   4.642   1.221  0.4844 -0.2820 -0.4090
   47MOL   C11019522   2.259   4.729   1.210  1.3694 -0.3497 -0.2682
   47MOL   C11119523   2.303   4.847   1.123  0.1264  0.3384  0.5740
   47MOL   C11219524   2.200   4.959   1.111  0.7020 -0.7006  0.1720
   47MOL   C11319525   2.223   5.046   0.981 -0.5631 -0.4918  0.4025
   47MOL   H11419526   2.519   4.412   1.258  4.0707 -0.6375  1.1470
   47MOL   H11519527   2.577   4.550   1.354 -1.3929  2.2709  1.1616
   47MOL   H11619528   2.319   4.576   1.416 -1.5906 -0.5824 -0.3549
   47MOL   H11719529   2.409   4.600   1.124  0.8865  0.2165 -0.5203
   47MOL   H11819530   2.473   4.700   1.245  0.4808 -0.6392  0.4895
   47MOL   H11919531   2.177   4.680   1.159  0.6768  0.6502 -0.1247
   47MOL   H12019532   2.225   4.765   1.307 -0.8102 -0.7912 -0.8517
   47MOL   H12119533   2.314   4.808   1.022  0.6589 -0.9564  1.1252
   47MOL   H12219534   2.400   4.891   1.150  0.1427  1.5375 -1.3481
   47MOL   H12319535   2.098   4.922   1.108  0.4472 -0.1241  1.4292
   47MOL   H12419536   2.224   5.018   1.200  0.2064  1.9159 -1.3668
   47MOL   H12519537   2.165   5.138   0.992 -1.1730 -0.8966  0.5677
   47MOL   H12619538   2.324   5.086   0.970 -0.3723 -1.1986 -0.4594
   47MOL   H12719539   2.195   4.997   0.887 -1.9055 -0.4807  0.7850
   47MOL   C12819540   2.259   4.418   1.277  0.0201  1.2796 -0.6250
   47MOL   C12919541   2.174   4.362   1.388 -0.1791 -0.0154 -0.7372
   47MOL   C13019542   2.113   4.223   1.351 -0.8093 -0.1819  0.8380
   47MOL   C13119543   2.210   4.113   1.305  0.5325  0.1532 -0.3180
   47MOL   C13219544   2.134   3.979   1.311  0.0859  0.1061 -0.1404
   47MOL   C13319545   2.119   3.919   1.452 -0.4165 -0.7988  0.1609
   47MOL   C13419546   2.036   3.791   1.458  0.4202  0.0307 -0.2758
   47MOL   H13519547   2.200   4.467   1.199 -0.2938 -0.7860 -1.7127
   47MOL   H13619548   2.306   4.343   1.214 -1.4256  0.2933 -0.5520
   47MOL   H13719549   2.246   4.336   1.466 -1.0505  0.2473  0.1599
   47MOL   H13819550   2.034   4.228   1.276  0.1514 -0.4054 -0.1988
   47MOL   H13919551   2.067   4.186   1.443 -1.4281  0.2974  0.7227
   47MOL   H14019552   2.297   4.108   1.370  1.0340  1.4430 -0.8781
   47MOL   H14119553   2.241   4.124   1.201  2.1553 -1.7696 -0.0479
   47MOL   H14219554   2.166   3.902   1.241  0.4212  1.3129 -1.3498
   47MOL   H14319555   2.037   3.992   1.263  0.6153 -1.9350 -1.7932
   47MOL   H14419556   2.050   3.977   1.512 -0.0291 -0.8791  0.6819
   47MOL   H14519557   2.210   3.910   1.511 -0.7913  0.3113  0.9023
   47MOL   H14619558   1.935   3.796   1.417 -0.5669 -1.9157  1.7892
   47MOL   H14719559   2.022   3.760   1.562  0.9904 -1.3470 -0.5956
   47MOL   H14819560   2.083   3.705   1.410 -0.3804  0.2179 -1.4205
   47MOL   C14919561   2.062   4.463   1.424  0.2695 -0.1742 -0.4632
   47MOL   C15019562   2.013   4.447   1.570  0.4096 -0.1301 -0.0607
   47MOL   C15119563   1.876   4.524   1.580  0.3430  0.5881  0.1921
   47MOL   C15219564   1.752   4.463   1.509  0.0435  0.2874  0.4762
   47MOL   C15319565   1.636   4.561   1.508 -0.5442 -0.6594  0.0068
   47MOL   C15419566   1.505   4.498   1.463 -0.2282  0.2253  0.8847
   47MOL   C15519567   1.439   4.420   1.575 -0.7026 -0.3249 -0.0170
   47MOL   H15619568   2.083   4.568   1.402 -0.2176 -0.0304 -0.2457
   47MOL   H15719569   1.976   4.443   1.361 -0.7122  0.8765  0.5154
   47MOL   H15819570   1.995   4.342   1.592  1.9005 -0.0627  1.6503
   47MOL   H15919571   1.846   4.532   1.684 -1.3681  0.2274 -0.2616
   47MOL   H16019572   1.894   4.626   1.544  1.2096  0.7682  1.1225
   47MOL   H16119573   1.725   4.366   1.551 -1.2653  0.4867  0.1274
   47MOL   H16219574   1.770   4.430   1.407  0.1356 -1.6733  1.0885
   47MOL   H16319575   1.659   4.645   1.442  2.9301 -2.2913 -0.9428
   47MOL   H16419576   1.617   4.614   1.601  1.6097  0.2127 -0.0187
   47MOL   H16519577   1.523   4.430   1.380 -0.9560 -0.8399  1.5934
   47MOL   H16619578   1.439   4.580   1.433  1.1662  0.5499 -1.4093
   47MOL   H16719579   1.402   4.491   1.649  0.5121  0.5088 -0.2031
   47MOL   H16819580   1.498   4.339   1.619  0.0307  0.8894  1.2570
   47MOL   H16919581   1.348   4.369   1.541 -1.3670  1.0063 -0.2457
   47MOL   C17019582   2.122   4.516   1.670 -0.9451  0.2450  0.1869
   47MOL   C17119583   2.165   4.436   1.792  0.3337 -0.3060  0.1125
   47MOL   C17219584   2.229   4.304   1.759 -0.1052  0.1441 -0.3040
   47MOL   C17319585   2.262   4.215   1.887 -0.1098 -0.2653  0.6439
   47MOL   C17419586   2.334   4.079   1.864  0.1956 -0.6572  0.1887
   47MOL   C17519587   2.389   4.019   1.999 -0.0230 -0.1651  0.2469
   47MOL   C17619588   2.501   3.913   1.969  0.2076  0.5358 -0.0498
   47MOL   H17719589   2.081   4.612   1.701  0.6644  0.2272  2.4274
   47MOL   H17819590   2.207   4.549   1.610  0.0867  0.0620  1.5273
   47MOL   H17919591   2.081   4.405   1.854  1.1465  0.0759  1.4194
   47MOL   H18019592   2.322   4.309   1.702  0.4069 -0.1753  0.4876
   47MOL   H18119593   2.170   4.253   1.683  2.7369 -0.1772 -2.3833
   47MOL   H18219594   2.173   4.190   1.945 -1.0018  2.8259  0.7089
   47MOL   H18319595   2.326   4.271   1.955  1.1198 -0.9262  0.0562
   47MOL   H18419596   2.430   4.087   1.814  1.5515 -2.2872  2.4037
   47MOL   H18519597   2.276   4.008   1.805 -0.6500  1.1224 -1.1750
   47MOL   H18619598   2.322   3.977   2.074  0.3687 -0.1538  0.6036
   47MOL   H18719599   2.448   4.095   2.050 -0.1056 -0.1358  0.2996
   47MOL   H18819600   2.536   3.863   2.059 -0.5785  1.3111  0.6845
   47MOL   H18919601   2.579   3.968   1.916 -1.1207  1.3401 -1.2167
   47MOL   H19019602   2.472   3.820   1.919  3.1060 -0.1098 -0.6335
   47MOL   C19119603   2.270   4.529   1.874 -0.1223 -0.5190  0.7428
   47MOL   C19219604   2.213   4.653   1.953 -0.4897  0.4638 -0.1323
   47MOL   C19319605   2.113   4.616   2.067  0.4618  0.5514 -1.0678
   47MOL   C19419606   2.054   4.733   2.148 -0.5868  0.1598 -0.1171
   47MOL   C19519607   1.936   4.690   2.234 -0.1903  0.0949 -0.3271
   47MOL   C19619608   1.963   4.585   2.342 -0.8556 -0.4095 -0.2372
   47MOL   C19719609   1.833   4.558   2.427 -0.4504  0.4375 -0.4525
   47MOL   H19819610   2.344   4.567   1.804  0.4515 -0.9971  1.0880
   47MOL   H19919611   2.338   4.472   1.937  1.7253 -0.2012 -0.9240
   47MOL   H20019612   2.155   4.717   1.887 -0.5672  1.2101  0.6455
   47MOL   H20119613   2.170   4.546   2.126 -2.7560 -0.9349  0.4169
   47MOL   H20219614   2.024   4.567   2.026 -1.5087 -1.1724  4.7510
   47MOL   H20319615   2.014   4.807   2.079 -1.0682 -0.9229 -1.0164
   47MOL   H20419616   2.131   4.790   2.201  0.5350  1.2669 -2.8869
   47MOL   H20519617   1.884   4.771   2.285  0.2657 -0.0469  0.3712
   47MOL   H20619618   1.862   4.658   2.161 -0.0105  2.2604 -1.4930
   47MOL   H20719619   2.037   4.635   2.405 -0.7006  0.6781 -1.2740
   47MOL   H20819620   2.013   4.497   2.301 -0.1138 -0.7986  1.4526
   47MOL   H20919621   1.839   4.469   2.489 -1.4867  1.3134  0.9302
   47MOL   H21019622   1.742   4.551   2.366 -0.8241  0.0541  0.1495
   47MOL   H21119623   1.805   4.638   2.496 -1.8954  0.5848 -1.1821
   47MOL   C21219624   2.334   4.747   1.988 -0.0486 -1.3392  0.0170
   47MOL   C21319625   2.309   4.892   1.939 -0.4196  0.6377 -0.2538
   47MOL   C21419626   2.392   4.993   2.024 -0.2334 -0.3503 -0.1995
   47MOL   C21519627   2.349   5.013   2.174 -0.1135  0.0709  0.0387
   47MOL   C21619628   2.441   5.103   2.257 -0.6326  0.5201 -0.0508
   47MOL   C21719629   2.412   5.123   2.410  0.9272  0.4477 -0.0892
   47MOL   C21819630   2.529   5.205   2.471  0.6746 -0.0288  0.3576
   47MOL   H21919631   2.431   4.714   1.950  0.4289 -1.3350  1.1996
   47MOL   H22019632   2.354   4.745   2.096  0.4061  0.6201 -0.0190
   47MOL   H22119633   2.209   4.925   1.969 -0.8196 -1.2010  0.5150
   47MOL   H22219634   2.496   4.960   2.023 -0.5185 -1.5846  2.8249
   47MOL   H22319635   2.390   5.095   1.985 -0.3917 -0.5919 -0.8225
   47MOL   H22419636   2.356   4.919   2.229  0.5393 -0.0179 -0.1860
   47MOL   H22519637   2.245   5.046   2.179 -0.6924 -1.4800 -1.2927
   47MOL   H22619638   2.545   5.071   2.253 -0.9880 -0.7407  0.4249
   47MOL   H22719639   2.454   5.199   2.208  0.8032  0.0206 -0.6681
   47MOL   H22819640   2.325   5.189   2.419  1.8242  1.6478 -0.1522
   47MOL   H22919641   2.397   5.022   2.449  0.9788 -0.7614 -3.0357
   47MOL   H23019642   2.511   5.222   2.578  2.9551  2.2844  0.4261
   47MOL   H23119643   2.551   5.299   2.420  0.8994  0.1080  0.7012
   47MOL   H23219644   2.619   5.149   2.449  0.3238 -0.8590  1.0061
   47MOL   C23319645   2.340   4.921   1.789  0.6802 -0.0788 -0.3211
   47MOL   C23419646   2.249   5.031   1.721 -0.3700 -0.5122  0.0368
   47MOL   C23519647   2.326   5.126   1.636 -0.1245  0.6349  0.7309
   47MOL   C23619648   2.400   5.059   1.525 -0.0431 -0.2332  0.1934
   47MOL   C23719649   2.511   5.143   1.467  0.5126 -0.3430 -0.1342
   47MOL   C23819650   2.613   5.076   1.378  0.5117 -0.0222 -0.3424
   47MOL   C23919651   2.668   4.947   1.431  0.7497  0.4101 -0.1804
   47MOL   H24019652   2.342   4.835   1.722  0.7390  0.2692 -0.7704
   47MOL   H24119653   2.441   4.962   1.786  0.0798  1.4075 -0.7179
   47MOL   H24219654   2.203   5.085   1.804 -1.9150 -1.7435  0.0182
   47MOL   H24319655   2.384   5.190   1.702  0.8469 -0.5268  1.0187
   47MOL   H24419656   2.265   5.201   1.587 -0.0580  0.6452  0.6652
   47MOL   H24519657   2.331   5.014   1.453  1.7609 -1.6499 -0.6896
   47MOL   H24619658   2.452   4.976   1.572  0.1959  0.3194  0.8996
   47MOL   H24719659   2.567   5.169   1.557  1.0652 -2.1058  0.0491
   47MOL   H24819660   2.482   5.235   1.416  1.5480  0.1059  0.0925
   47MOL   H24919661   2.562   5.058   1.283  1.2121 -1.8183 -0.4050
   47MOL   H25019662   2.699   5.144   1.379 -0.4959  1.3532 -2.7968
   47MOL   H25119663   2.594   4.869   1.416  0.7190  0.5110 -0.5556
   47MOL   H25219664   2.759   4.916   1.380  0.6747 -0.2554  0.0836
   47MOL   H25319665   2.696   4.946   1.537  1.6152 -2.4246 -0.3870
   47MOL   C25419666   2.129   4.960   1.655 -0.2846  0.4429 -0.1944
   47MOL   C25519667   2.013   5.056   1.599 -0.1467 -0.4614 -0.3231
   47MOL   C25619668   1.965   5.165   1.699  0.3695  0.1544 -0.0323
   47MOL   C25719669   1.888   5.108   1.827  0.0496  0.0046 -0.1209
   47MOL   C25819670   1.908   5.194   1.943 -1.4825  0.5759 -0.1829
   47MOL   C25919671   1.834   5.143   2.062 -1.0448  0.1212 -0.5411
   47MOL   C26019672   1.904   5.191   2.195 -0.5836  0.1193 -0.3859
   47MOL   H26119673   2.094   4.876   1.715  0.7072  0.3854  0.3062
   47MOL   H26219674   2.154   4.903   1.566 -0.6428 -0.1812  0.1036
   47MOL   H26319675   2.050   5.108   1.510 -4.0313  3.3393  0.1624
   47MOL   H26419676   1.899   5.237   1.651 -0.2152 -0.5435 -0.2799
   47MOL   H26519677   2.047   5.234   1.721  0.0591  0.3307  0.5818
   47MOL   H26619678   1.786   5.080   1.798 -0.5608 -0.0219  1.9848
   47MOL   H26719679   1.934   5.011   1.840 -0.5555 -0.5091 -1.6271
   47MOL   H26819680   1.864   5.292   1.926 -0.3459  1.2214  0.5663
   47MOL   H26919681   2.012   5.210   1.969 -1.1131 -0.8121 -0.7572
   47MOL   H27019682   1.730   5.175   2.061 -1.4323 -1.0068  1.2744
   47MOL   H27119683   1.839   5.034   2.061 -2.1910  0.0664 -1.5874
   47MOL   H27219684   1.851   5.144   2.277  0.5361 -0.4894  0.0049
   47MOL   H27319685   2.010   5.165   2.197 -0.9438 -1.3171  1.6303
   47MOL   H27419686   1.874   5.294   2.209 -1.6685 -0.2109 -0.2462
   47MOL   C27519687   1.897   4.972   1.536 -0.5286  0.3491 -0.9634
   47MOL   C27619688   1.808   5.051   1.446  0.1746  0.4318 -0.8777
   47MOL   C27719689   1.667   4.983   1.431 -0.5337 -0.1537 -0.6154
   47MOL   C27819690   1.578   4.993   1.558 -0.0707 -0.0684 -0.5913
   47MOL   C27919691   1.440   4.936   1.542 -0.4000  0.0399 -0.0427
   47MOL   C28019692   1.352   4.960   1.664 -0.0656 -0.1150 -0.4326
   47MOL   C28119693   1.390   4.884   1.790 -0.0913 -0.3484 -0.4446
   47MOL   H28219694   1.843   4.917   1.613 -1.3416  0.5275 -1.3977
   47MOL   H28319695   1.931   4.893   1.470 -0.2627 -0.4787  0.1463
   47MOL   H28419696   1.772   5.139   1.499 -0.2257  0.2058 -0.7728
   47MOL   H28519697   1.620   5.036   1.349  0.3794  0.9052 -0.4691
   47MOL   H28619698   1.670   4.878   1.403  0.9185  0.2285 -1.9840
   47MOL   H28719699   1.561   5.099   1.578  3.3415  0.4774 -0.1942
   47MOL   H28819700   1.625   4.941   1.642 -0.6305 -0.8673 -0.7715
   47MOL   H28919701   1.456   4.831   1.519  1.5767  0.3882 -0.3661
   47MOL   H29019702   1.401   4.983   1.452 -0.1204  2.2403  0.9505
   47MOL   H29119703   1.351   5.065   1.696 -0.5700  0.2560 -1.6361
   47MOL   H29219704   1.249   4.939   1.636 -0.8271  0.7617  1.6029
   47MOL   H29319705   1.374   4.777   1.780 -1.0546 -0.0413 -2.3935
   47MOL   H29419706   1.327   4.918   1.872  0.1301 -0.1848 -0.3409
   47MOL   H29519707   1.489   4.907   1.828 -1.2136 -1.1816  3.1571
   47MOL   C29619708   1.873   5.093   1.309  0.0128 -0.2930  0.2284
   47MOL   C29719709   1.832   5.236   1.251 -0.1326 -0.8085  0.6284
   47MOL   C29819710   1.724   5.240   1.146 -0.6984 -0.1580  0.2239
   47MOL   C29919711   1.753   5.152   1.020 -0.0827 -0.2195 -0.4108
   47MOL   C30019712   1.646   5.166   0.902  0.1116 -0.5706  0.3535
   47MOL   C30119713   1.508   5.134   0.951  0.3580 -0.5434 -1.1286
   47MOL   C30219714   1.405   5.255   0.940  0.2865  0.3557 -0.0638
   47MOL   H30319715   1.981   5.081   1.322 -0.1892 -0.9818  1.3420
   47MOL   H30419716   1.854   5.018   1.233 -0.8291  0.0467  0.0977
   47MOL   H30519717   1.787   5.273   1.343  0.1039  0.1832  0.3516
   47MOL   H30619718   1.630   5.214   1.194 -1.8551  0.8431 -1.4521
   47MOL   H30719719   1.717   5.341   1.106  1.8320  0.9062  2.2839
   47MOL   H30819720   1.747   5.051   1.060  0.0788  0.6048  1.7356
   47MOL   H30919721   1.848   5.180   0.975 -0.6257  0.6218 -1.0563
   47MOL   H31019722   1.673   5.091   0.827  1.0081 -0.8456  0.9358
   47MOL   H31119723   1.649   5.253   0.837 -2.3133 -0.8436 -0.1563
   47MOL   H31219724   1.459   5.064   0.884  0.3720 -2.5573  0.9235
   47MOL   H31319725   1.504   5.099   1.054 -1.4957  0.6440 -0.7637
   47MOL   H31419726   1.404   5.293   0.838  0.4117  1.1367  0.2220
   47MOL   H31519727   1.304   5.221   0.964  0.1362  1.7879  1.4135
   47MOL   H31619728   1.446   5.327   1.012  1.2759  1.3152 -1.5594
   47MOL   C31719729   1.953   5.325   1.209  0.0253 -0.1418 -0.0389
   47MOL   C31819730   1.962   5.463   1.281  0.0301  0.1290 -0.7268
   47MOL   C31919731   1.853   5.567   1.244  0.3461 -0.4779 -0.8020
   47MOL   C32019732   1.847   5.618   1.101  0.0946  0.0959 -0.2838
   47MOL   C32119733   1.744   5.732   1.080  0.5662 -0.0141  0.9275
   47MOL   C32219734   1.732   5.766   0.937 -0.1889  0.2286  0.0490
   47MOL   C32319735   1.612   5.858   0.912 -1.1792  0.6336 -0.3560
   47MOL   H32419736   1.955   5.344   1.102 -2.2883 -2.2530 -0.4989
   47MOL   H32519737   2.048   5.276   1.230  1.3246  1.9973 -0.7215
   47MOL   H32619738   2.055   5.511   1.251 -0.4441  2.3047  1.1409
   47MOL   H32719739   1.867   5.660   1.300  1.0578 -1.4354  0.6282
   47MOL   H32819740   1.751   5.538   1.269  0.4601  0.2745  0.5986
   47MOL   H32919741   1.819   5.538   1.032  1.2328 -1.2860  0.7993
   47MOL   H33019742   1.949   5.644   1.071  1.2460 -3.6171  0.0776
   47MOL   H33119743   1.757   5.819   1.145  0.7241  0.7695 -0.1490
   47MOL   H33219744   1.643   5.703   1.110 -0.0243  1.7586  0.7275
   47MOL   H33319745   1.718   5.676   0.878  0.1856  0.8556 -1.0067
   47MOL   H33419746   1.818   5.813   0.888 -0.7916 -2.0922 -3.3783
   47MOL   H33519747   1.610   5.953   0.966  0.8214  0.7399 -0.4389
   47MOL   H33619748   1.520   5.802   0.931 -0.1561 -0.6924  0.7052
   47MOL   H33719749   1.601   5.880   0.805 -0.4417  0.4608 -0.4674
   47MOL   C33819750   1.967   5.442   1.435  0.1658 -0.6823  0.3385
   47MOL   C33919751   2.028   5.555   1.520 -0.7040 -0.3201 -0.1570
   47MOL   C34019752   2.181   5.555   1.538 -0.4013 -0.0914 -0.2352
   47MOL   C34119753   2.253   5.683   1.579 -0.2385 -0.6987  0.5325
   47MOL   C34219754   2.403   5.653   1.592  0.4856 -0.8421  0.0089
   47MOL   C34319755   2.476   5.588   1.474 -0.2220  0.0600  0.0820
   47MOL   C34419756   2.628   5.583   1.501  0.0864 -0.1199 -0.2254
   47MOL   H34519757   2.017   5.348   1.456 -1.0154 -1.2618  0.6503
   47MOL   H34619758   1.869   5.418   1.478  0.3017 -0.4063  0.8173
   47MOL   H34719759   2.002   5.648   1.469 -1.1354 -0.4498 -0.1699
   47MOL   H34819760   2.204   5.476   1.610  0.0332 -1.1265 -1.4699
   47MOL   H34919761   2.233   5.515   1.450 -1.8939  0.7025 -1.4821
   47MOL   H35019762   2.227   5.713   1.681 -1.2180 -2.3065  0.7765
   47MOL   H35119763   2.231   5.762   1.508  2.7984 -1.2665 -1.1330
   47MOL   H35219764   2.452   5.748   1.617 -0.1862 -0.7077  0.8568
   47MOL   H35319765   2.410   5.581   1.674  0.4765 -1.5906 -0.6526
   47MOL   H35419766   2.442   5.485   1.465  2.0037 -0.6411 -0.6667
   47MOL   H35519767   2.460   5.640   1.380 -0.9893  0.7602  0.6008
   47MOL   H35619768   2.690   5.656   1.449 -0.4158  1.4526  1.3194
   47MOL   H35719769   2.662   5.484   1.472  1.3177 -0.3555  1.8975
   47MOL   H35819770   2.654   5.597   1.606 -1.7154  1.3442  0.0728
   47MOL   C35919771   1.962   5.554   1.666 -0.0511  0.6700  0.4868
   47MOL   C36019772   1.817   5.611   1.670  0.0208 -0.6579  0.1618
   47MOL   C36119773   1.752   5.563   1.800 -0.0158 -0.3983  0.4076
   47MOL   C36219774   1.643   5.454   1.790 -0.6516  0.0147 -0.8015
   47MOL   C36319775   1.591   5.392   1.926 -0.4021  0.0777 -0.2476
   47MOL   C36419776   1.507   5.261   1.895  0.2249 -0.2957 -0.8445
   47MOL   C36519777   1.437   5.206   2.018  0.4446 -0.1512 -0.0410
   47MOL   H36619778   2.017   5.621   1.732 -1.6165  2.2489  0.2447
   47MOL   H36719779   1.966   5.457   1.716  0.8777  0.1026 -0.6803
   47MOL   H36819780   1.770   5.568   1.581 -0.4818 -1.3742  0.7627
   47MOL   H36919781   1.827   5.527   1.871  1.0232 -0.1791 -0.5617
   47MOL   H37019782   1.715   5.652   1.851 -1.3837 -0.3897 -0.5661
   47MOL   H37119783   1.562   5.488   1.725  0.4404 -0.1924 -2.2813
   47MOL   H37219784   1.698   5.374   1.741  1.9887  2.5146 -2.0434
   47MOL   H37319785   1.676   5.381   1.994  0.5897  0.9045 -1.3320
   47MOL   H37419786   1.524   5.464   1.972  2.9969  1.3854  2.9674
   47MOL   H37519787   1.438   5.291   1.816  0.2275  0.2589 -0.6417
   47MOL   H37619788   1.564   5.179   1.853  0.7279 -0.8963  0.9644
   47MOL   H37719789   1.373   5.270   2.078  0.0899 -0.3521 -0.2047
   47MOL   H37819790   1.380   5.117   1.991 -1.1533  0.5813  0.8385
   47MOL   H37919791   1.513   5.165   2.085  1.1293 -2.1001 -1.9707
   47MOL   C38019792   1.825   5.768   1.667 -0.6792  0.3616 -1.3447
   47MOL   C38119793   1.692   5.834   1.630  0.7481 -0.2144 -0.2548
   47MOL   C38219794   1.667   5.962   1.716  0.3593  0.1574  0.0715
   47MOL   C38319795   1.576   5.951   1.840  0.2236  0.1060  0.6666
   47MOL   C38419796   1.547   6.090   1.902  0.2822 -0.1742  0.2905
   47MOL   C38519797   1.646   6.141   2.008  0.2875  0.1259 -0.1018
   47MOL   C38619798   1.597   6.279   2.070 -0.5766  0.2646 -0.0777
   47MOL   H38719799   1.862   5.805   1.763 -1.0954 -0.6320 -0.7885
   47MOL   H38819800   1.892   5.809   1.592 -0.2694  0.9613 -0.6588
   47MOL   H38919801   1.614   5.762   1.653 -1.0404  1.3420 -1.2527
   47MOL   H39019802   1.618   6.031   1.647  0.0970 -1.1036 -1.0257
   47MOL   H39119803   1.760   6.014   1.739 -0.6467  0.8846  2.6700
   47MOL   H39219804   1.483   5.907   1.805 -0.3996  1.3871  0.7170
   47MOL   H39319805   1.626   5.891   1.917  0.9447 -0.0220  0.1035
   47MOL   H39419806   1.529   6.163   1.823  2.6862  0.1967  0.0662
   47MOL   H39519807   1.450   6.079   1.951  0.3403  0.1848  0.4844
   47MOL   H39619808   1.740   6.155   1.954  0.5808  0.6456  0.5232
   47MOL   H39719809   1.655   6.064   2.084 -0.5846  0.8296  0.7242
   47MOL   H39819810   1.597   6.354   1.991 -0.1445  0.3466 -0.0041
   47MOL   H39919811   1.674   6.314   2.139  0.8319 -0.3408 -1.3118
   47MOL   H40019812   1.502   6.280   2.123 -0.7607  1.1245 -0.4129
   47MOL   C40119813   1.671   5.861   1.479  0.2025  0.3256 -0.3701
   47MOL   C40219814   1.522   5.896   1.449 -0.2458  0.1305  0.1096
   47MOL   C40319815   1.504   5.929   1.304  0.6082  0.1911  0.6307
   47MOL   C40419816   1.353   5.933   1.260  0.2106 -1.0348  0.3721
   47MOL   C40519817   1.294   6.076   1.237  0.2833  0.0434 -1.0669
   47MOL   C40619818   1.148   6.066   1.185  0.2937 -0.1327  0.3029
   47MOL   C40719819   1.096   6.212   1.158  0.2520  0.1146 -0.4739
   47MOL   H40819820   1.711   5.780   1.419 -0.7011  0.3746 -1.0515
   47MOL   H40919821   1.729   5.947   1.445  0.0588  1.0198  1.0995
   47MOL   H41019822   1.469   5.976   1.501 -1.0134  0.2387 -0.8391
   47MOL   H41119823   1.542   5.853   1.235 -0.9134 -0.1355  0.1160
   47MOL   H41219824   1.567   6.013   1.277 -1.0842  1.3500  0.1802
   47MOL   H41319825   1.297   5.881   1.337  1.2803 -0.6764  1.4112
   47MOL   H41419826   1.325   5.882   1.168  0.4651 -0.0594 -0.2533
   47MOL   H41519827   1.296   6.116   1.338 -1.9308 -0.3983 -0.8125
   47MOL   H41619828   1.354   6.128   1.163  1.4469 -0.2136 -0.3180
   47MOL   H41719829   1.161   6.013   1.091 -0.0512  1.8493 -0.9067
   47MOL   H41819830   1.086   6.017   1.260  1.4316 -2.3347 -0.1527
   47MOL   H41919831   1.146   6.285   1.221  2.5475 -1.9284  0.1272
   47MOL   H42019832   0.988   6.212   1.178 -0.2713 -0.9628 -3.1292
   47MOL   H42119833   1.118   6.247   1.057  3.4953  0.7845  0.4275
   47MOL   H42219834   1.469   5.803   1.468 -1.8465  1.2671  1.3243
   48MOL     C119835   4.036   0.242   0.387  0.0443 -0.1517  0.3343
   48MOL     C219836   3.991   0.301   0.255 -0.4153 -0.3357 -0.0933
   48MOL     C319837   4.059   0.446   0.251  0.4008  0.9057  0.0101
   48MOL     C419838   4.207   0.452   0.215 -0.0422  0.2219 -0.5519
   48MOL     C519839   4.266   0.586   0.177 -0.2251 -0.0375 -0.0606
   48MOL     C619840   4.414   0.579   0.158  0.0662 -0.1242  0.0782
   48MOL     C719841   4.468   0.718   0.125  0.2733 -0.8471  0.2126
   48MOL     H819842   4.141   0.214   0.377 -0.4835 -1.7664 -0.8193
   48MOL     H919843   3.981   0.148   0.401 -0.2393 -0.1965 -1.0512
   48MOL    H1019844   4.029   0.240   0.173 -1.8767 -0.6000 -0.5907
   48MOL    H1119845   4.002   0.486   0.166 -1.4567 -0.5773  0.5230
   48MOL    H1219846   4.043   0.498   0.346  1.9423 -0.2668  0.9247
   48MOL    H1319847   4.268   0.400   0.289 -0.5020  1.0479  0.4103
   48MOL    H1419848   4.219   0.384   0.130 -1.2170  0.8521 -1.2256
   48MOL    H1519849   4.244   0.665   0.249  0.7942 -0.4492  0.7267
   48MOL    H1619850   4.217   0.619   0.086  1.2811  0.5575 -0.6769
   48MOL    H1719851   4.447   0.496   0.095 -1.2389 -0.6800  0.1220
   48MOL    H1819852   4.461   0.530   0.244 -1.3323  0.5358  1.2354
   48MOL    H1919853   4.435   0.786   0.204 -1.1638 -2.0605  0.6979
   48MOL    H2019854   4.424   0.753   0.032  1.8538  0.9125  0.1024
   48MOL    H2119855   4.576   0.720   0.112  0.1361  0.5209 -0.8737
   48MOL    H2219856   4.011   0.310   0.469 -1.2678  1.0044 -0.9960
   48MOL    C2319857   3.833   0.291   0.244 -0.0171 -1.1117 -1.0644
   48MOL    C2419858   3.764   0.341   0.117 -0.1042  0.1925 -0.1429
   48MOL    C2519859   3.787   0.264   7.700 -0.2317  0.1848 -0.1061
   48MOL    C2619860   3.682   0.269   7.589 -0.0710 -0.3889 -0.3473
   48MOL    C2719861   3.701   0.155   7.485 -0.0679 -0.3323  0.5071
   48MOL    C2819862   3.800   0.177   7.372 -0.5132  0.7935 -0.4871
   48MOL    C2919863   3.790   0.067   7.273  0.1858  0.1550  0.4116
   48MOL    H3019864   3.804   0.189   0.270 -0.8347 -0.7756 -0.6373
   48MOL    H3119865   3.797   0.353   0.326  0.8101 -1.3122 -0.5372
   48MOL    H3219866   3.663   0.303   0.138  0.5938 -2.0122 -0.6272
   48MOL    H3319867   3.789   0.158   0.011  0.1626 -0.3639 -2.3931
   48MOL    H3419868   3.882   0.299   7.657  0.1169 -0.4058  0.1786
   48MOL    H3519869   3.694   0.357   7.526  0.2102  1.6407  2.4789
   48MOL    H3619870   3.588   0.268   7.643  0.2283 -0.1658  0.1836
   48MOL    H3719871   3.602   0.144   7.439  0.6113 -2.2055 -0.5762
   48MOL    H3819872   3.724   0.062   7.538 -1.6901 -0.3890  1.1456
   48MOL    H3919873   3.898   0.178   7.419 -0.8258  0.5016  0.1697
   48MOL    H4019874   3.791   0.278   7.331 -1.5526  0.2285 -1.6932
   48MOL    H4119875   3.872   0.068   7.201  2.1700 -1.2572  2.5577
   48MOL    H4219876   3.814   7.688   7.326  1.9491 -0.9865 -2.2593
   48MOL    H4319877   3.694   0.064   7.222  0.2164 -2.1707  0.3963
   48MOL    C4419878   3.738   0.496   0.113  0.5708  0.3734 -0.3300
   48MOL    C4519879   3.584   0.546   0.104  0.5059  0.5921  0.5660
   48MOL    C4619880   3.488   0.503   0.223  0.3091 -0.0178  0.1259
   48MOL    C4719881   3.340   0.525   0.184 -0.0291  0.2853 -0.3132
   48MOL    C4819882   3.243   0.501   0.299  0.0387  0.3664  0.0668
   48MOL    C4919883   3.102   0.480   0.238 -0.2896 -0.6453  0.1320
   48MOL    C5019884   3.011   0.408   0.341  0.1002  0.0985 -0.3457
   48MOL    H5119885   3.788   0.535   0.025  0.2666  2.0854  0.2220
   48MOL    H5219886   3.786   0.539   0.201 -0.0766  1.2492 -0.3907
   48MOL    H5319887   3.546   0.506   0.010  3.1249  1.1444 -0.7944
   48MOL    H5419888   3.521   0.553   0.314  2.4162  2.6674 -2.0514
   48MOL    H5519889   3.508   0.398   0.248 -0.1835  0.0191  0.6928
   48MOL    H5619890   3.320   0.623   0.141 -3.2827 -0.0825  0.2567
   48MOL    H5719891   3.327   0.456   0.101 -0.3516 -0.9128  0.7086
   48MOL    H5819892   3.254   0.570   0.382 -0.1797  1.6758 -0.9651
   48MOL    H5919893   3.274   0.403   0.337  2.5776  1.7787  1.7737
   48MOL    H6019894   3.103   0.420   0.147 -0.3100 -0.1115 -0.2186
   48MOL    H6119895   3.059   0.573   0.200  0.8071 -1.3790 -3.0739
   48MOL    H6219896   2.992   0.471   0.428  0.3077 -1.3889  0.8009
   48MOL    H6319897   3.059   0.320   0.383  0.5761  1.6674  2.5784
   48MOL    H6419898   2.919   0.382   0.291 -0.7269 -1.5193  1.9319
   48MOL    C6519899   3.588   0.703   0.081 -0.1413 -0.5041  0.0198
   48MOL    C6619900   3.574   0.754   7.649  0.5156 -0.7728  0.5021
   48MOL    C6719901   3.688   0.725   7.549 -0.5596 -0.0933  0.2753
   48MOL    C6819902   3.830   0.766   7.577  0.7118 -0.2262 -0.1854
   48MOL    C6919903   3.928   0.698   7.479 -0.5173  0.4860 -0.1855
   48MOL    C7019904   4.072   0.720   7.514  0.8159 -0.3777  0.2826
   48MOL    C7119905   4.161   0.655   7.418  0.0282  0.8191 -0.1503
   48MOL    H7219906   3.500   0.736   0.137 -2.2379 -0.4397 -3.1594
   48MOL    H7319907   3.676   0.746   0.129  0.3143 -1.2910 -0.1126
   48MOL    H7419908   3.492   0.697   7.605  0.3946 -0.0795 -0.1870
   48MOL    H7519909   3.687   0.616   7.549 -1.9979 -0.0893  0.3235
   48MOL    H7619910   3.660   0.741   7.445  0.5965 -0.5249 -0.1171
   48MOL    H7719911   3.845   0.873   7.570 -0.5795 -0.2185 -3.9261
   48MOL    H7819912   3.857   0.733   7.678 -0.8850  0.8014  0.5947
   48MOL    H7919913   3.898   0.593   7.477 -0.4417  0.3954  2.0161
   48MOL    H8019914   3.908   0.726   7.375  0.9638 -0.1741 -0.6498
   48MOL    H8119915   4.089   0.675   7.611  0.3017 -1.3201 -0.0629
   48MOL    H8219916   4.091   0.827   7.524 -1.5914 -0.1213  2.5721
   48MOL    H8319917   4.262   0.694   7.432  0.7582 -1.7042  1.8710
   48MOL    H8419918   4.174   0.548   7.431  0.9208  1.0028  0.5419
   48MOL    H8519919   4.142   0.675   7.312 -1.4491  1.3125  0.1992
   48MOL    C8619920   3.530   0.903   7.648 -0.7059 -0.0819  0.2024
   48MOL    C8719921   3.503   0.962   7.505 -0.7537 -0.2391  0.2107
   48MOL    C8819922   3.382   0.887   7.440 -0.7799 -0.4083  0.6546
   48MOL    C8919923   3.398   0.869   7.287 -0.5219 -0.0272 -0.2620
   48MOL    C9019924   3.273   0.801   7.232 -0.3146 -0.7620 -0.5939
   48MOL    C9119925   3.255   0.806   7.087  0.4803  0.2043  0.1328
   48MOL    C9219926   3.139   0.718   7.041 -0.3495 -0.7347 -0.8403
   48MOL    H9319927   3.434   0.904   7.700 -0.4675 -1.6076  0.6969
   48MOL    H9419928   3.591   0.972   7.708 -2.0964  2.6810 -1.4427
   48MOL    H9519929   3.591   0.946   7.443 -1.2612  0.5356 -0.7248
   48MOL    H9619930   3.345   0.798   7.491 -2.2567  0.3438  0.9198
   48MOL    H9719931   3.300   0.955   7.461 -0.0856  0.7504 -0.3398
   48MOL    H9819932   3.414   0.967   7.241 -0.0624 -0.0743 -0.2059
   48MOL    H9919933   3.483   0.803   7.273 -0.3951  0.1023 -0.1034
   48MOL   H10019934   3.187   0.849   7.279 -0.4489 -0.9332 -0.6641
   48MOL   H10119935   3.273   0.701   7.276 -0.0701 -0.1454  0.8243
   48MOL   H10219936   3.241   0.910   7.058 -1.9342 -0.2322 -0.3786
   48MOL   H10319937   3.344   0.766   7.040 -0.9736  0.2363 -2.7475
   48MOL   H10419938   3.119   0.738   6.936 -1.1799 -2.2993 -0.9974
   48MOL   H10519939   3.040   0.733   7.084 -0.4059  0.3017 -1.3002
   48MOL   H10619940   3.167   0.613   7.046  0.5308 -0.4900 -0.5270
   48MOL   C10719941   3.490   1.114   7.508 -0.7626  0.2541 -0.1989
   48MOL   C10819942   3.624   1.192   7.511  0.8089 -0.5277 -0.4888
   48MOL   C10919943   3.708   1.194   7.382 -0.0361  0.5250 -1.2123
   48MOL   C11019944   3.863   1.168   7.407  0.5983  0.2734  0.0857
   48MOL   C11119945   3.951   1.217   7.290 -1.0823 -0.6188  0.4428
   48MOL   C11219946   3.985   1.371   7.299 -0.5223 -0.3678  0.6898
   48MOL   C11319947   4.109   1.413   7.384 -1.0205 -0.0498  0.1545
   48MOL   H11419948   3.408   1.134   7.577 -0.1911  1.1077  0.2559
   48MOL   H11519949   3.439   1.137   7.415 -0.8286 -3.2832 -1.0924
   48MOL   H11619950   3.680   1.139   7.587  0.1906  0.4194  0.6399
   48MOL   H11719951   3.702   1.290   7.331  2.3835 -0.4664 -3.4546
   48MOL   H11819952   3.682   1.124   7.303  1.6543  1.0738 -2.2732
   48MOL   H11919953   3.894   1.217   7.499  1.8898 -1.6838  0.7116
   48MOL   H12019954   3.879   1.060   7.412  0.2734  0.2729  1.1464
   48MOL   H12119955   3.909   1.189   7.194  0.4841  0.6686 -0.6312
   48MOL   H12219956   4.046   1.164   7.298 -1.2898 -1.1536 -0.6877
   48MOL   H12319957   4.001   1.411   7.199  0.2301 -1.5266  0.3295
   48MOL   H12419958   3.900   1.430   7.332 -0.9990 -0.7720  0.2135
   48MOL   H12519959   4.202   1.403   7.327 -0.5541  0.8685  0.7348
   48MOL   H12619960   4.103   1.519   7.405 -1.4651 -0.1122  0.3427
   48MOL   H12719961   4.126   1.369   7.482 -0.0002  4.0160  1.8685
   48MOL   C12819962   3.582   1.335   7.557 -0.8280 -0.2328  0.0069
   48MOL   C12919963   3.694   1.442   7.573 -0.2643 -0.0726  0.0568
   48MOL   C13019964   3.787   1.420   7.690  0.1007  0.1464 -0.6674
   48MOL   C13119965   3.753   1.456   0.122  0.4701  0.1970 -0.5335
   48MOL   C13219966   3.866   1.409   0.223  0.0614  0.1912  0.1495
   48MOL   C13319967   3.870   1.460   0.363  0.3633  0.0261  0.2329
   48MOL   C13419968   3.931   1.598   0.376  0.0942 -0.2355  0.0780
   48MOL   H13519969   3.504   1.375   7.492  1.4219  0.5955 -2.2567
   48MOL   H13619970   3.537   1.324   7.656 -0.6371  1.2735  0.2753
   48MOL   H13719971   3.753   1.442   7.482 -0.5769  2.4610 -0.1866
   48MOL   H13819972   3.879   1.473   7.667  0.2353  0.8632  1.4994
   48MOL   H13919973   3.815   1.315   7.693 -1.0591 -0.1092  3.4773
   48MOL   H14019974   3.656   1.414   0.147  0.6285 -0.5851 -1.1865
   48MOL   H14119975   3.739   1.563   0.135  2.2180  0.4747 -0.7683
   48MOL   H14219976   3.952   1.448   0.167 -0.2334  1.1461  0.3439
   48MOL   H14319977   3.866   1.301   0.216  4.2230  0.2199 -1.9466
   48MOL   H14419978   3.933   1.392   0.421 -1.0696 -1.0039  0.5969
   48MOL   H14519979   3.772   1.459   0.411  0.7749 -0.3914  1.0766
   48MOL   H14619980   4.030   1.601   0.331  0.6460 -0.5012  1.2563
   48MOL   H14719981   3.928   1.621   0.482 -0.1965  0.4529 -0.0731
   48MOL   H14819982   3.875   1.683   0.335  0.2299 -0.7076 -1.0942
   48MOL   C14919983   3.621   1.577   7.573 -0.0851  0.3866  0.7954
   48MOL   C15019984   3.566   1.635   7.443 -0.3468  0.0897  0.4143
   48MOL   C15119985   3.670   1.656   7.338  0.8571 -0.5479  0.4631
   48MOL   C15219986   3.773   1.765   7.364 -0.3989 -0.5265  0.3545
   48MOL   C15319987   3.911   1.763   7.285  0.2450  0.1694 -0.1943
   48MOL   C15419988   4.020   1.851   7.357 -0.3185 -0.0832 -0.1210
   48MOL   C15519989   4.021   1.999   7.323 -0.7926 -0.7141 -0.3430
   48MOL   H15619990   3.534   1.567   7.637 -0.3157  1.0659  0.5992
   48MOL   H15719991   3.672   1.649   7.638  0.5511  0.5368  0.1424
   48MOL   H15819992   3.492   1.564   7.407 -1.3126 -1.5432  5.2323
   48MOL   H15919993   3.715   1.561   7.309  2.2181  0.8167 -2.1176
   48MOL   H16019994   3.607   1.674   7.251  1.0067 -0.3880  0.3876
   48MOL   H16119995   3.797   1.781   7.469 -0.3979 -0.6300  0.3691
   48MOL   H16219996   3.721   1.857   7.335  2.3330  0.8873 -0.2255
   48MOL   H16319997   3.905   1.788   7.179  0.9589 -0.8221 -0.4778
   48MOL   H16419998   3.938   1.658   7.294 -2.0095 -0.4136 -0.1267
   48MOL   H16519999   4.112   1.807   7.318 -0.0157 -0.4958  1.0489
   48MOL   H16620000   4.010   1.835   7.464 -4.4154  3.1102  0.1145
   48MOL   H16720001   4.021   2.025   7.218  3.2784  0.0362 -0.2335
   48MOL   H16820002   4.104   2.050   7.372 -1.2857  0.0297 -0.2637
   48MOL   H16920003   3.936   2.048   7.372  1.9528  2.0657  1.8195
   48MOL   C17020004   3.483   1.756   7.471  0.2414  0.1176 -0.0303
   48MOL   C17120005   3.358   1.742   7.562  0.6898 -0.1282  0.6552
   48MOL   C17220006   3.285   1.880   7.578 -0.1186 -0.0097 -0.1073
   48MOL   C17320007   3.370   2.000   7.606 -0.1264  0.1872 -0.1619
   48MOL   C17420008   3.445   1.998   0.030  0.1939 -0.4586  0.9520
   48MOL   C17520009   3.365   1.984   0.157 -0.3693  0.2914 -0.3602
   48MOL   C17620010   3.452   1.909   0.265  0.1217 -0.1172 -0.5725
   48MOL   H17720011   3.465   1.796   7.371 -2.2083  0.0922  0.3565
   48MOL   H17820012   3.545   1.837   7.510  1.3787 -0.7098 -0.0941
   48MOL   H17920013   3.382   1.713   7.664 -0.0600  0.6392  1.0487
   48MOL   H18020014   3.211   1.868   7.657 -2.3034  4.0730 -1.3964
   48MOL   H18120015   3.242   1.911   7.483 -0.5803  1.0839  0.4588
   48MOL   H18220016   3.292   2.076   7.612 -1.7150 -1.4915  0.9219
   48MOL   H18320017   3.429   2.023   7.517  1.9420  0.0319  1.1365
   48MOL   H18420018   3.508   2.085   0.049  2.2178 -1.5101 -0.7396
   48MOL   H18520019   3.519   1.919   0.016  0.1027 -0.1810 -1.3322
   48MOL   H18620020   3.271   1.930   0.147 -0.6849  0.6709  0.5104
   48MOL   H18720021   3.336   2.077   0.205 -0.8884 -0.6698  1.2025
   48MOL   H18820022   3.457   1.802   0.241  2.5028 -0.0646 -0.3826
   48MOL   H18920023   3.409   1.912   0.365  0.4354 -1.4512 -0.3878
   48MOL   H19020024   3.553   1.949   0.269 -0.7324  2.0160  0.4499
   48MOL   C19120025   3.264   1.632   7.514 -0.3870 -0.1016  0.2791
   48MOL   C19220026   3.159   1.587   7.616 -0.2533 -0.3507  1.0079
   48MOL   C19320027   3.036   1.522   7.542  0.4990  0.3637 -1.1135
   48MOL   C19420028   2.960   1.617   7.446  0.2270  0.3973 -0.0680
   48MOL   C19520029   2.812   1.580   7.426  0.1397 -0.6354  0.6706
   48MOL   C19620030   2.743   1.684   7.335  0.0851 -0.3095  0.0334
   48MOL   C19720031   2.597   1.634   7.312 -0.1579  0.4566 -0.0218
   48MOL   H19820032   3.320   1.541   7.492  0.1045  0.6894 -1.8779
   48MOL   H19920033   3.232   1.651   7.411  1.6313 -1.1275 -0.5572
   48MOL   H20020034   3.125   1.676   7.668 -0.0855 -0.2155  0.8833
   48MOL   H20120035   2.970   1.490   7.623  0.0032 -0.3832 -1.8053
   48MOL   H20220036   3.073   1.433   7.491 -0.0645  0.2166 -1.2654
   48MOL   H20320037   3.003   1.609   7.347 -1.0236  0.8894 -0.6630
   48MOL   H20420038   2.969   1.718   7.486  2.0497  0.4182 -0.5069
   48MOL   H20520039   2.804   1.481   7.381  1.9205  0.4397 -2.1363
   48MOL   H20620040   2.764   1.565   7.523 -1.0674 -0.3639  0.1332
   48MOL   H20720041   2.781   1.708   7.236  1.1210 -3.2727 -0.3361
   48MOL   H20820042   2.746   1.783   7.381  3.4970 -1.5258  2.6585
   48MOL   H20920043   2.597   1.540   7.257 -3.6572  0.7154 -0.5621
   48MOL   H21020044   2.531   1.693   7.248 -1.4227 -0.5289  0.3546
   48MOL   H21120045   2.538   1.627   7.404 -0.1939 -1.3547 -0.1630
   48MOL   C21220046   3.231   1.482   7.705 -0.1991  0.0949  0.0878
   48MOL   C21320047   3.162   1.453   0.130 -0.1649 -0.5879 -0.0167
   48MOL   C21420048   3.233   1.334   0.185 -0.5553  0.3821  0.5548
   48MOL   C21520049   3.383   1.363   0.230  0.2855  0.0831 -0.4266
   48MOL   C21620050   3.452   1.255   0.311  0.3867  0.1546  0.1495
   48MOL   C21720051   3.500   1.140   0.226  0.3181 -0.4975 -0.0788
   48MOL   C21820052   3.555   1.012   0.296 -0.3280  0.2099 -0.1979
   48MOL   H21920053   3.326   1.517   0.031 -1.0530  1.5334  0.9319
   48MOL   H22020054   3.250   1.394   7.645  1.4383  1.2807 -1.1636
   48MOL   H22120055   3.060   1.427   0.102 -0.5128  1.0816 -0.3256
   48MOL   H22220056   3.171   1.288   0.262 -0.7689 -1.1446 -0.5140
   48MOL   H22320057   3.230   1.255   0.111  2.5593  1.4787 -0.8200
   48MOL   H22420058   3.373   1.459   0.282  1.8603  0.2584 -0.4215
   48MOL   H22520059   3.447   1.390   0.146  0.4571  0.1690 -0.2692
   48MOL   H22620060   3.541   1.306   0.348  0.7471 -0.7880  0.5734
   48MOL   H22720061   3.396   1.230   0.400  1.4829 -0.3857  0.6861
   48MOL   H22820062   3.412   1.109   0.170  0.9949 -0.8458 -0.9523
   48MOL   H22920063   3.581   1.177   0.163  1.2519 -2.2070  0.0722
   48MOL   H23020064   3.601   0.943   0.224  3.5138  1.8376  0.5722
   48MOL   H23120065   3.485   0.939   0.336 -0.5727  0.7085  0.2794
   48MOL   H23220066   3.634   1.028   0.369 -1.0802  1.0330  0.4369
   48MOL   C23320067   3.156   1.574   0.229  0.2852 -0.9896  0.2637
   48MOL   C23420068   3.088   1.543   0.365  0.0396 -0.3746 -0.3577
   48MOL   C23520069   3.106   1.657   0.465 -0.4849 -0.3647  0.0879
   48MOL   C23620070   3.014   1.781   0.441  0.3160 -1.0614 -0.5701
   48MOL   C23720071   3.051   1.887   0.554  0.2011  0.4054 -0.7961
   48MOL   C23820072   2.968   1.850   0.671  0.5577 -0.4144  0.2626
   48MOL   C23920073   3.001   1.941   0.792  0.0802 -0.0460 -0.2494
   48MOL   H24020074   3.100   1.651   0.176  1.1719 -0.5088  0.0060
   48MOL   H24120075   3.257   1.616   0.231  0.3475 -1.0300 -1.1332
   48MOL   H24220076   3.138   1.454   0.403 -0.9038 -1.4606 -1.6092
   48MOL   H24320077   3.211   1.687   0.461 -0.9065  0.9755 -1.3254
   48MOL   H24420078   3.082   1.618   0.564 -1.0414  0.9119  0.4679
   48MOL   H24520079   2.907   1.762   0.431 -0.2132  0.2124  2.0665
   48MOL   H24620080   3.045   1.812   0.342  1.6863 -0.6193 -0.0163
   48MOL   H24720081   3.040   1.987   0.510  1.8091  0.7210 -0.5331
   48MOL   H24820082   3.158   1.890   0.575  0.3946 -1.6040 -1.4132
   48MOL   H24920083   2.866   1.869   0.637  0.4281 -1.4452  0.0563
   48MOL   H25020084   2.981   1.746   0.700 -1.3837 -0.7827 -0.0760
   48MOL   H25120085   2.924   1.919   0.866  0.8896 -0.6125  0.4327
   48MOL   H25220086   3.096   1.912   0.838  0.0591 -2.0195 -1.3877
   48MOL   H25320087   2.985   2.048   0.782 -1.1481 -0.3526 -1.6191
   48MOL   C25420088   2.944   1.497   0.344  0.1410 -0.3541  0.6787
   48MOL   C25520089   2.865   1.450   0.470  0.0744 -0.0955  0.4830
   48MOL   C25620090   2.918   1.310   0.522 -0.2324  0.3857  0.8060
   48MOL   C25720091   2.885   1.190   0.425  0.1629  0.6451 -0.1662
   48MOL   C25820092   2.968   1.067   0.454 -0.3120  0.1800 -0.1317
   48MOL   C25920093   2.914   0.940   0.382 -0.2544 -0.3620 -0.3440
   48MOL   C26020094   2.991   0.811   0.408  0.7145  0.3262  0.4305
   48MOL   H26120095   2.948   1.413   0.274  0.0912 -0.4058  0.7377
   48MOL   H26220096   2.882   1.569   0.291 -0.1241  0.1460  1.6530
   48MOL   H26320097   2.873   1.519   0.554  0.6988 -0.4980  0.7560
   48MOL   H26420098   2.880   1.290   0.622 -0.4623 -0.5861  0.5361
   48MOL   H26520099   3.027   1.305   0.530 -0.4054 -2.4401  2.2967
   48MOL   H26620100   2.780   1.166   0.441 -0.0214  0.8815 -0.9794
   48MOL   H26720101   2.891   1.219   0.320  0.6713 -1.8255 -0.8318
   48MOL   H26820102   2.972   1.038   0.559  1.9648 -0.5514 -0.3822
   48MOL   H26920103   3.067   1.087   0.411 -0.4608 -2.1580 -1.6943
   48MOL   H27020104   2.809   0.920   0.404 -0.5174  0.6284 -0.6493
   48MOL   H27120105   2.933   0.955   0.276 -1.6214  0.3230 -0.5070
   48MOL   H27220106   2.959   0.745   0.327  1.0791  1.1256 -0.3780
   48MOL   H27320107   3.096   0.837   0.398  1.2032 -1.8982 -0.6241
   48MOL   H27420108   2.970   0.760   0.502 -0.0056 -2.1201 -1.0073
   48MOL   C27520109   2.714   1.433   0.431  0.1300 -0.0370  0.1280
   48MOL   C27620110   2.630   1.559   0.398  0.1158 -0.9738  0.5927
   48MOL   C27720111   2.541   1.608   0.524 -0.3407 -0.0846  0.9609
   48MOL   C27820112   2.610   1.690   0.635 -0.4774 -0.1116 -0.5965
   48MOL   C27920113   2.525   1.705   0.763 -0.3114 -1.1896 -0.1338
   48MOL   C28020114   2.593   1.787   0.866  0.6570  0.6279 -0.1507
   48MOL   C28120115   2.592   1.941   0.813 -0.2047  0.1422  0.0923
   48MOL   H28220116   2.672   1.374   0.512  2.0532 -0.3824  0.8990
   48MOL   H28320117   2.706   1.353   0.357  1.4979 -0.4885  0.4562
   48MOL   H28420118   2.697   1.644   0.405  0.9496 -1.5052 -0.7935
   48MOL   H28520119   2.462   1.678   0.497  1.4473  1.9065  0.7112
   48MOL   H28620120   2.497   1.524   0.578 -1.0625  0.2233  0.8590
   48MOL   H28720121   2.644   1.782   0.587  1.2049 -0.7481 -0.6628
   48MOL   H28820122   2.702   1.640   0.664  0.9520  2.0905 -1.2532
   48MOL   H28920123   2.508   1.610   0.814  0.3136 -2.2277 -1.8095
   48MOL   H29020124   2.424   1.735   0.735  0.4407  0.9056 -0.7169
   48MOL   H29120125   2.548   1.782   0.965  0.9296  0.8376 -0.0153
   48MOL   H29220126   2.698   1.758   0.874  0.4221 -0.3148 -0.3389
   48MOL   H29320127   2.487   1.964   0.797  0.1729  2.9222  1.2313
   48MOL   H29420128   2.650   1.955   0.722  0.4299  0.2730  0.5094
   48MOL   H29520129   2.615   2.011   0.893 -2.3348  0.9719  0.0146
   48MOL   C29620130   2.553   1.546   0.268  0.3019 -0.3961 -0.4398
   48MOL   C29720131   2.618   1.586   0.130 -0.1152  0.5430  0.6396
   48MOL   C29820132   2.634   1.742   0.130  0.3666 -0.0760 -0.4796
   48MOL   C29920133   2.731   1.788   0.020  0.0847 -0.1140  0.2743
   48MOL   C30020134   2.756   1.942   0.010  0.3436  0.5184 -0.1693
   48MOL   C30120135   2.851   1.984   7.605  0.3342  0.4326 -0.5879
   48MOL   C30220136   2.892   2.130   7.619  0.4448  0.2370 -0.2063
   48MOL   H30320137   2.521   1.442   0.278 -0.9873 -0.1691 -2.0640
   48MOL   H30420138   2.459   1.601   0.263 -0.1289 -1.2890 -3.4496
   48MOL   H30520139   2.719   1.548   0.112 -0.0719  0.5608  0.8411
   48MOL   H30620140   2.537   1.792   0.128  0.0552 -0.6209  0.5331
   48MOL   H30720141   2.668   1.759   0.233 -0.8337  1.8239 -0.3627
   48MOL   H30820142   2.699   1.754   7.635  0.6338  0.5269 -0.1331
   48MOL   H30920143   2.827   1.738   0.026 -0.9546 -2.2391 -0.5289
   48MOL   H31020144   2.799   1.973   0.105 -3.7402  0.6859  1.7347
   48MOL   H31120145   2.657   1.986   0.002 -0.1627 -0.4534  0.5765
   48MOL   H31220146   2.941   1.923   7.612  0.9710  1.3676 -0.6652
   48MOL   H31320147   2.804   1.948   7.513 -1.3673  0.0693  0.4057
   48MOL   H31420148   2.804   2.194   7.611  0.5902  0.6811  1.5911
   48MOL   H31520149   2.926   2.152   0.006 -0.4313 -2.0657  0.6158
   48MOL   H31620150   2.978   2.148   7.554  1.6146 -0.7671  1.0623
   48MOL   C31720151   2.531   1.535   0.007 -0.2625 -0.0231 -0.5070
   48MOL   C31820152   2.508   1.381   7.695 -0.2688  0.3035 -0.4644
   48MOL   C31920153   2.406   1.365   7.585 -0.8761 -0.2838  0.3568
   48MOL   C32020154   2.269   1.390   7.624  0.0873  0.1761 -0.2659
   48MOL   C32120155   2.164   1.311   7.544  0.2397  0.4928  0.0420
   48MOL   C32220156   2.027   1.338   7.602  0.5715 -0.3315 -0.6833
   48MOL   C32320157   1.919   1.305   7.506 -1.0842 -0.1040  0.3476
   48MOL   H32420158   2.573   1.571   7.627  2.8618 -2.6265 -0.1995
   48MOL   H32520159   2.433   1.582   0.020 -0.9997 -1.4734 -0.7153
   48MOL   H32620160   2.471   1.341   0.076 -0.1231 -1.2874 -1.0605
   48MOL   H32720161   2.413   1.258   7.565 -1.4206 -0.0793 -1.0463
   48MOL   H32820162   2.434   1.418   7.493 -0.7136  1.0701  1.1813
   48MOL   H32920163   2.244   1.496   7.625  0.9856  0.3927 -0.1064
   48MOL   H33020164   2.266   1.352   0.013 -0.4659  0.5678 -0.1399
   48MOL   H33120165   2.185   1.204   7.546  1.7034  0.7812  0.0655
   48MOL   H33220166   2.180   1.342   7.440  1.1948  0.0081  0.0419
   48MOL   H33320167   2.011   1.441   7.636 -0.6589  0.5025 -3.6114
   48MOL   H33420168   2.011   1.280   7.693  1.4063  0.1249 -0.2296
   48MOL   H33520169   1.935   1.206   7.463  0.4850 -0.6337  2.1084
   48MOL   H33620170   1.908   1.369   7.418  1.9187  0.1608  0.0875
   48MOL   H33720171   1.828   1.293   7.564 -1.7504  0.5214 -0.5560
   48MOL   C33820172   2.650   1.324   7.658  0.6061  0.4095 -0.5250
   48MOL   C33920173   2.698   1.206   0.035 -0.3813  0.4323  0.1540
   48MOL   C34020174   2.850   1.179   0.040 -0.0299  0.2568 -0.1021
   48MOL   C34120175   2.916   1.129   7.627  0.7005 -0.4520 -0.0056
   48MOL   C34220176   3.068   1.091   7.625 -0.3940  0.6072 -0.1040
   48MOL   C34320177   3.121   0.967   7.712 -0.1699 -0.2639  0.5484
   48MOL   C34420178   3.067   0.839   7.663 -0.0794 -0.1756 -0.1882
   48MOL   H34520179   2.723   1.405   7.666  0.7177  0.0849  2.5875
   48MOL   H34620180   2.663   1.301   7.553 -1.3037 -0.8267 -0.5238
   48MOL   H34720181   2.658   1.241   0.130 -0.0268  3.1505 -0.6592
   48MOL   H34820182   2.901   1.271   0.070 -0.9817  0.3565  1.2742
   48MOL   H34920183   2.877   1.106   0.116 -2.1371 -0.0232  0.3871
   48MOL   H35020184   2.905   1.195   7.541  0.4213 -0.5295 -0.0286
   48MOL   H35120185   2.863   1.040   7.594  1.1050 -0.0198 -1.9162
   48MOL   H35220186   3.082   1.059   7.522 -1.9742 -0.4927  0.0156
   48MOL   H35320187   3.119   1.187   7.628 -1.5602  1.2249  0.3946
   48MOL   H35420188   3.228   0.950   7.699  0.1325  0.8369  1.4873
   48MOL   H35520189   3.106   0.988   0.105  0.8113  1.6476  0.3169
   48MOL   H35620190   3.056   0.850   7.555 -1.6995  2.0471  0.1520
   48MOL   H35720191   2.968   0.824   7.707 -0.5558  0.2106 -1.1248
   48MOL   H35820192   3.139   0.758   7.671 -0.7011 -0.6244  1.1147
   48MOL   C35920193   2.625   1.079   7.712  1.0892  0.1516  0.4660
   48MOL   C36020194   2.623   0.962   0.100 -0.1798  0.1048  0.6849
   48MOL   C36120195   2.573   1.005   0.245  0.2766  0.4864  0.1317
   48MOL   C36220196   2.429   1.063   0.262 -0.4271 -0.7817 -1.1673
   48MOL   C36320197   2.404   1.131   0.400 -0.4177  0.5379  0.4793
   48MOL   C36420198   2.270   1.199   0.433 -0.1265 -0.2582  0.9665
   48MOL   C36520199   2.275   1.279   0.562 -0.6117 -0.0042 -0.0264
   48MOL   H36620200   2.660   1.032   7.620 -2.3340  0.7485 -1.2310
   48MOL   H36720201   2.519   1.098   7.695  0.9221  0.9081  2.2315
   48MOL   H36820202   2.727   0.931   0.110  0.1155  1.0761  0.6919
   48MOL   H36920203   2.589   0.916   0.306 -1.8504 -1.4061 -1.9492
   48MOL   H37020204   2.646   1.074   0.287 -0.4935  1.1037  0.4780
   48MOL   H37120205   2.431   1.145   0.190  1.8243 -0.1995 -0.4638
   48MOL   H37220206   2.348   1.008   0.214 -0.1764 -2.7112  0.5984
   48MOL   H37320207   2.434   1.059   0.475  0.4373  0.1192 -0.2561
   48MOL   H37420208   2.480   1.207   0.415 -0.0013  0.2296 -0.0401
   48MOL   H37520209   2.238   1.267   0.354  1.2679 -1.6033 -0.7856
   48MOL   H37620210   2.188   1.128   0.447 -1.9964  1.6837  0.2825
   48MOL   H37720211   2.300   1.229   0.656  2.4998  3.2940  1.0696
   48MOL   H37820212   2.351   1.358   0.561 -0.2034 -0.3660  1.1181
   48MOL   H37920213   2.180   1.324   0.589 -0.4529 -0.5971  1.5638
   48MOL   C38020214   2.550   0.844   0.038 -0.2024 -0.6302  0.2685
   48MOL   C38120215   2.550   0.712   0.110 -0.1844 -1.1006 -0.1457
   48MOL   C38220216   2.430   0.633   0.087  0.0065  0.6806 -0.7619
   48MOL   C38320217   2.425   0.493   0.147 -0.0707 -0.3445  0.2441
   48MOL   C38420218   2.283   0.428   0.124 -0.0323 -0.1216 -0.4582
   48MOL   C38520219   2.264   0.287   0.173 -0.4161  0.0136  0.0753
   48MOL   C38620220   2.378   0.192   0.127  0.3976  0.2581 -0.5809
   48MOL   H38720221   2.446   0.872   0.022  0.0744 -0.4019 -1.2839
   48MOL   H38820222   2.592   0.835   7.651 -0.7901 -0.8616  0.0430
   48MOL   H38920223   2.532   0.742   0.214  1.4511 -0.2315 -0.1074
   48MOL   H39020224   2.415   0.620   7.693  0.2014  2.3286 -1.0010
   48MOL   H39120225   2.348   0.700   0.114 -0.1712  0.0114  0.3726
   48MOL   H39220226   2.496   0.431   0.093  0.7788 -0.9514  2.0344
   48MOL   H39320227   2.458   0.483   0.250 -2.5005 -0.1324  1.0914
   48MOL   H39420228   2.215   0.489   0.184  0.8308  0.0551  0.3425
   48MOL   H39520229   2.249   0.444   0.021 -2.9846 -2.2763  0.1066
   48MOL   H39620230   2.177   0.255   0.117  0.0281 -1.8127  0.3821
   48MOL   H39720231   2.245   0.267   0.279 -2.5547  0.3887 -0.2200
   48MOL   H39820232   2.474   0.226   0.165  0.0143 -0.6337  1.2466
   48MOL   H39920233   2.383   0.184   0.018 -1.7801  0.2897 -0.7102
   48MOL   H40020234   2.363   0.089   0.158  2.9977 -0.2970 -1.1020
   48MOL   C40120235   2.684   0.627   0.108 -0.5127  0.6133  0.6039
   48MOL   C40220236   2.720   0.568   7.685  0.0242  0.0494 -0.5231
   48MOL   C40320237   2.826   0.456   7.694 -0.1923  0.6554  0.3155
   48MOL   C40420238   2.767   0.319   0.029 -0.5198  0.6429 -0.3146
   48MOL   C40520239   2.886   0.215   0.036  0.1712 -0.2604  0.2383
   48MOL   C40620240   2.839   0.077   0.087 -0.2334  0.2198 -0.7325
   48MOL   C40720241   2.737   0.015   7.710  0.0629  0.7325  0.7076
   48MOL   H40820242   2.689   0.547   0.182 -0.4654 -1.8279 -1.9374
   48MOL   H40920243   2.764   0.694   0.139 -0.0450  0.8671 -1.1017
   48MOL   H41020244   2.748   0.651   7.620  0.3722  0.0763 -0.3392
   48MOL   H41120245   2.916   0.491   0.030 -0.6297  1.0947  0.8148
   48MOL   H41220246   2.853   0.430   7.592 -2.2985 -1.4432  0.2448
   48MOL   H41320247   2.672   0.296   7.693 -0.9975  1.2147  0.3226
   48MOL   H41420248   2.732   0.323   0.132 -1.6170 -1.6653 -0.5747
   48MOL   H41520249   2.926   0.200   7.649 -1.2666 -0.9474 -0.2599
   48MOL   H41620250   2.967   0.249   0.099 -0.1973  2.0544 -0.5146
   48MOL   H41720251   2.928   0.014   0.086  0.3209  0.9892  0.0527
   48MOL   H41820252   2.796   0.082   0.186  0.1058  0.9066 -0.6187
   48MOL   H41920253   2.642   0.069   7.711 -0.2793  0.1369  1.0849
   48MOL   H42020254   2.701   7.631   0.032  1.2404  0.2334  0.5494
   48MOL   H42120255   2.761   0.001   7.605  0.4886  1.0177  0.7686
   48MOL   H42220256   2.626   0.528   7.648 -0.5363  0.0064  0.9034
   49MOL     C120257   3.551   0.535   5.612  0.1056  0.7422 -0.0527
   49MOL     C220258   3.432   0.454   5.646  0.3798 -0.3095  0.6070
   49MOL     C320259   3.338   0.524   5.744 -0.5030  0.4705  0.1160
   49MOL     C420260   3.263   0.652   5.700 -0.0140  0.4605  0.6202
   49MOL     C520261   3.149   0.688   5.782  0.5433  0.1943  0.4914
   49MOL     C620262   3.187   0.714   5.927  0.7111  0.1736  0.1601
   49MOL     C720263   3.083   0.780   6.018  0.5319  0.2012 -0.3266
   49MOL     H820264   3.610   0.469   5.549 -1.0235 -0.0795 -0.2662
   49MOL     H920265   3.617   0.560   5.695  0.6864 -0.4209 -0.1531
   49MOL    H1020266   3.378   0.455   5.551  0.8860 -1.3039  0.2930
   49MOL    H1120267   3.258   0.457   5.774  0.4897 -0.4225  0.7952
   49MOL    H1220268   3.390   0.554   5.835 -0.6601  2.3422 -0.3782
   49MOL    H1320269   3.332   0.736   5.694  1.3004 -0.5204  1.4552
   49MOL    H1420270   3.230   0.636   5.597  1.6311  1.4504 -0.0742
   49MOL    H1520271   3.072   0.612   5.791 -0.2327  0.9064 -0.1019
   49MOL    H1620272   3.096   0.775   5.744  0.5414  0.7846  1.8053
   49MOL    H1720273   3.287   0.755   5.938  0.3306  1.1338  0.0255
   49MOL    H1820274   3.197   0.612   5.966 -0.2017  0.0278  0.0247
   49MOL    H1920275   3.111   0.880   6.050  4.2665 -0.7137 -0.6049
   49MOL    H2020276   3.079   0.726   6.113  1.2272  1.4893  0.4497
   49MOL    H2120277   2.983   0.785   5.975  1.1323  0.0130 -1.7601
   49MOL    H2220278   3.508   0.621   5.560 -1.2945 -1.0586 -1.9611
   49MOL    C2320279   3.459   0.309   5.689  0.0313 -0.2477 -0.6727
   49MOL    C2420280   3.343   0.212   5.661 -0.5120  0.6127  0.4021
   49MOL    C2520281   3.337   0.103   5.767 -0.5592  0.1765  0.3334
   49MOL    C2620282   3.438   7.703   5.761  0.0373  0.2734 -0.2919
   49MOL    C2720283   3.411   7.574   5.846  0.7290  0.3408  0.1087
   49MOL    C2820284   3.424   7.610   5.996  0.2635 -0.0447 -0.0118
   49MOL    C2920285   3.422   7.493   6.083  0.3666  0.2086  0.0508
   49MOL    H3020286   3.544   0.265   5.637  0.0376 -0.0854 -0.7989
   49MOL    H3120287   3.481   0.315   5.796  1.3609  1.2420 -1.0285
   49MOL    H3220288   3.249   0.262   5.683  0.5560  2.3229  1.1087
   49MOL    H3320289   3.237   0.061   5.752  0.2623 -1.4698 -0.7343
   49MOL    H3420290   3.345   0.152   5.863  3.9245 -0.6992  0.5210
   49MOL    H3520291   3.528   0.033   5.804 -0.3221  0.1314  0.6101
   49MOL    H3620292   3.458   7.673   5.658  0.7607 -0.1529 -0.0282
   49MOL    H3720293   3.484   7.498   5.820 -1.6710 -1.6662 -0.9389
   49MOL    H3820294   3.316   7.525   5.824 -0.2140  0.9423  2.6063
   49MOL    H3920295   3.333   7.665   6.017 -1.7721 -2.4147 -2.1778
   49MOL    H4020296   3.515   7.668   6.003 -1.1057  2.2204 -0.6121
   49MOL    H4120297   3.334   7.431   6.067  0.0150  0.9980 -1.1424
   49MOL    H4220298   3.518   7.442   6.091  1.0107  1.0393 -1.9835
   49MOL    H4320299   3.423   7.539   6.182  1.4023 -0.7687  0.5029
   49MOL    C4420300   3.340   0.161   5.517  0.2641 -0.0867  0.0182
   49MOL    C4520301   3.212   0.080   5.480 -0.3004 -0.1806 -0.2295
   49MOL    C4620302   3.081   0.174   5.486  0.2665  0.0016  0.2870
   49MOL    C4720303   2.969   0.115   5.580  0.5290  0.5209 -0.3675
   49MOL    C4820304   2.832   0.182   5.563 -0.2956 -0.1955 -0.3790
   49MOL    C4920305   2.764   0.155   5.419  0.2351 -0.0431  0.6616
   49MOL    C5020306   2.611   0.159   5.435 -0.1761 -0.5578 -0.4323
   49MOL    H5120307   3.435   0.112   5.498 -0.2765 -0.2872 -2.3091
   49MOL    H5220308   3.346   0.247   5.451  1.1009  0.5584  0.9119
   49MOL    H5320309   3.214   7.713   5.554  3.5200  0.1675  0.1077
   49MOL    H5420310   3.027   0.180   5.391 -1.9908 -1.5226  1.4278
   49MOL    H5520311   3.099   0.280   5.501 -1.6722  0.3385  0.3338
   49MOL    H5620312   2.963   0.008   5.561  0.7697  0.6300 -1.0571
   49MOL    H5720313   2.997   0.136   5.683 -1.8944  1.2640  0.1807
   49MOL    H5820314   2.831   0.290   5.579 -2.7818 -0.6195  2.9735
   49MOL    H5920315   2.772   0.142   5.645 -0.4595 -0.6146 -0.7013
   49MOL    H6020316   2.794   0.061   5.371  1.9669  0.8024  0.0428
   49MOL    H6120317   2.797   0.230   5.347  0.8688 -1.8070 -0.9341
   49MOL    H6220318   2.560   0.153   5.339 -1.3261  0.9119  0.0800
   49MOL    H6320319   2.594   0.254   5.484 -0.5636 -0.6928 -0.3051
   49MOL    H6420320   2.576   0.082   5.504 -0.6105  1.0973  1.2065
   49MOL    C6520321   3.222   0.017   5.343  0.3312 -0.2562 -0.1583
   49MOL    C6620322   3.333   7.624   5.326 -0.6079  0.5004 -0.0736
   49MOL    C6720323   3.347   7.592   5.172  0.2309 -0.5016  0.0717
   49MOL    C6820324   3.220   7.535   5.111 -0.7776 -0.0665  0.0548
   49MOL    C6920325   3.240   7.525   4.956 -0.0395 -0.0612 -0.2370
   49MOL    C7020326   3.152   7.437   4.878  0.1110  0.0630  0.4856
   49MOL    C7120327   3.140   7.477   4.728  0.7428 -0.1776  0.4036
   49MOL    H7220328   3.120   7.703   5.316  0.6141 -2.2724  0.7142
   49MOL    H7320329   3.241   0.092   5.266 -1.1936  2.1976  1.7743
   49MOL    H7420330   3.429   7.666   5.358 -0.1651  0.6665 -1.5670
   49MOL    H7520331   3.366   7.682   5.113 -0.2575 -1.3857 -1.4500
   49MOL    H7620332   3.441   7.540   5.155 -0.1205 -1.1888  0.2272
   49MOL    H7720333   3.194   7.437   5.152 -0.3813 -0.1293  0.1611
   49MOL    H7820334   3.124   7.584   5.129 -1.0400  1.0710 -4.1094
   49MOL    H7920335   3.231   7.627   4.917 -1.4249  0.1141  0.5052
   49MOL    H8020336   3.345   7.506   4.934  1.0052  4.1038  0.8362
   49MOL    H8120337   3.052   7.448   4.918  0.0372  0.7836  0.1136
   49MOL    H8220338   3.165   7.330   4.893  0.2914 -0.3320 -2.2125
   49MOL    H8320339   3.234   7.469   4.674 -0.1007 -1.6049 -0.8931
   49MOL    H8420340   3.069   7.409   4.681  0.7797  0.4824 -0.6048
   49MOL    H8520341   3.111   7.581   4.714  2.9292  0.5490  0.9612
   49MOL    C8620342   3.303   7.494   5.412  0.1560  0.1276 -0.3221
   49MOL    C8720343   3.405   7.376   5.398 -0.5669  0.2383 -0.0294
   49MOL    C8820344   3.553   7.425   5.434 -0.1281  0.2203 -0.5892
   49MOL    C8920345   3.667   7.323   5.461 -0.7459 -0.2270  0.1418
   49MOL    C9020346   3.706   7.227   5.346 -0.2899  0.1091 -0.5488
   49MOL    C9120347   3.770   7.299   5.224 -0.2190  0.0404  0.3010
   49MOL    C9220348   3.830   7.205   5.124  0.2576 -0.3412 -0.1351
   49MOL    H9320349   3.302   7.516   5.518  0.6814 -1.6029  0.0592
   49MOL    H9420350   3.212   7.445   5.379  1.5480 -2.3922 -0.5505
   49MOL    H9520351   3.418   7.347   5.294  1.6729  2.2301 -0.3206
   49MOL    H9620352   3.591   7.464   5.340 -1.9402 -0.9098 -1.8257
   49MOL    H9720353   3.541   7.505   5.507 -2.4537 -0.6793  0.0889
   49MOL    H9820354   3.755   7.373   5.500 -0.1033 -0.3611 -1.1089
   49MOL    H9920355   3.629   7.275   5.551 -1.1183 -0.2356 -0.0203
   49MOL   H10020356   3.617   7.173   5.314  0.7404 -1.8509 -0.1848
   49MOL   H10120357   3.785   7.168   5.392 -0.8355  0.1683  0.4549
   49MOL   H10220358   3.705   7.368   5.171  0.5911 -0.2326 -1.0568
   49MOL   H10320359   3.844   7.363   5.272  0.8230  0.0945 -1.3342
   49MOL   H10420360   3.743   7.148   5.091 -0.0424  1.1011 -1.8639
   49MOL   H10520361   3.904   7.144   5.176 -2.0860 -0.3316  3.3862
   49MOL   H10620362   3.866   7.258   5.036 -0.4957  0.8260  0.2522
   49MOL   C10720363   3.369   7.252   5.474  0.2293  0.2705 -0.1720
   49MOL   C10820364   3.251   7.172   5.439  0.4328  0.4924  0.4593
   49MOL   C10920365   3.262   7.120   5.288  0.0207  0.4819 -0.5906
   49MOL   C11020366   3.136   7.047   5.246 -0.4362 -0.0440 -0.1098
   49MOL   C11120367   3.159   6.997   5.109  0.6443  0.2522 -0.8122
   49MOL   C11220368   3.030   6.932   5.045 -0.6446 -0.1949 -0.4026
   49MOL   C11320369   2.989   6.801   5.109 -0.2759  0.9557  0.3126
   49MOL   H11420370   3.367   7.279   5.579  0.4548 -0.5744  0.0525
   49MOL   H11520371   3.451   7.182   5.461  0.5815  0.8294 -1.0320
   49MOL   H11620372   3.168   7.243   5.438 -1.6009 -1.8087  0.1219
   49MOL   H11720373   3.355   7.063   5.280  0.2400  0.6084  0.8755
   49MOL   H11820374   3.274   7.207   5.222 -3.6883 -0.2226 -2.3280
   49MOL   H11920375   3.110   6.966   5.314 -1.0626  0.9103  0.8148
   49MOL   H12020376   3.058   7.122   5.257  0.3174  0.8473 -0.8260
   49MOL   H12120377   3.238   6.922   5.111 -0.4648 -0.9169  1.0453
   49MOL   H12220378   3.191   7.085   5.055 -0.5360  0.4318 -1.2266
   49MOL   H12320379   2.950   7.006   5.046  0.3681  0.9282 -1.0907
   49MOL   H12420380   3.049   6.912   4.940  0.4007 -1.7331  0.0573
   49MOL   H12520381   3.067   6.727   5.089 -0.6329  0.4815  0.6455
   49MOL   H12620382   2.966   6.811   5.215 -1.3425  1.4679  0.0459
   49MOL   H12720383   2.903   6.756   5.059  0.7206  0.0823 -0.6420
   49MOL   C12820384   3.228   7.063   5.543 -0.1384 -0.4547  0.0647
   49MOL   C12920385   3.084   7.039   5.589 -0.3366 -0.3307  0.5822
   49MOL   C13020386   3.030   7.150   5.686  0.2637  0.4754  0.2292
   49MOL   C13120387   2.886   7.186   5.647  0.8222 -0.0136  0.0773
   49MOL   C13220388   2.854   7.329   5.694  0.6927  0.2528  0.0884
   49MOL   C13320389   2.716   7.375   5.643  0.0198  0.1530 -0.4065
   49MOL   C13420390   2.704   7.528   5.656  0.2000 -0.1345  0.6983
   49MOL   H13520391   3.266   6.971   5.499 -1.0745 -0.9227  0.2066
   49MOL   H13620392   3.285   7.080   5.635  0.4019  1.5742 -0.6155
   49MOL   H13720393   3.020   7.031   5.501  0.7695 -1.7219 -0.1214
   49MOL   H13820394   3.090   7.239   5.665 -0.8209  1.4059  0.9986
   49MOL   H13920395   3.026   7.126   5.793 -1.0966 -3.2027 -0.5791
   49MOL   H14020396   2.822   7.112   5.696 -2.7063  2.5842 -0.4694
   49MOL   H14120397   2.865   7.180   5.541  0.6509 -3.4631  0.2451
   49MOL   H14220398   2.922   7.402   5.649  0.5593 -0.2532 -0.9490
   49MOL   H14320399   2.859   7.334   5.803  1.7086  0.5187  0.0307
   49MOL   H14420400   2.641   7.327   5.707 -0.2190  0.3532 -0.5332
   49MOL   H14520401   2.692   7.344   5.541 -0.9714 -1.6111  0.3311
   49MOL   H14620402   2.787   7.588   5.620 -0.4777  1.2079  1.3193
   49MOL   H14720403   2.691   7.562   5.759 -2.1176 -1.6788  0.9762
   49MOL   H14820404   2.611   7.557   5.607  0.1668 -1.5492 -0.0932
   49MOL   C14920405   3.071   6.903   5.674  0.0126 -0.1377  0.4132
   49MOL   C15020406   3.100   6.771   5.599  0.3803 -0.2848  0.2052
   49MOL   C15120407   2.973   6.721   5.525 -0.6254  0.7554 -0.9367
   49MOL   C15220408   2.866   6.661   5.626 -0.3466 -0.5771 -0.0928
   49MOL   C15320409   2.721   6.635   5.574  0.0106  0.4574  0.4851
   49MOL   C15420410   2.706   6.552   5.444  0.8287 -0.2464  0.1510
   49MOL   C15520411   2.713   6.405   5.463  0.2121  0.7441  0.0975
   49MOL   H15620412   3.139   6.905   5.760 -1.2326  0.2757  1.4027
   49MOL   H15720413   2.972   6.900   5.720  0.1227 -0.3973  0.6338
   49MOL   H15820414   3.160   6.797   5.512 -0.5067  0.3178 -0.2232
   49MOL   H15920415   2.926   6.805   5.473 -1.3414  0.8935 -0.0861
   49MOL   H16020416   2.988   6.646   5.447 -0.2521 -0.3220  0.1535
   49MOL   H16120417   2.849   6.733   5.707  1.6249 -0.2384  0.0378
   49MOL   H16220418   2.901   6.571   5.677  0.9351  0.0571  0.1614
   49MOL   H16320419   2.666   6.728   5.561 -0.9845 -0.3539 -1.2252
   49MOL   H16420420   2.672   6.581   5.656 -2.4310  1.2094 -0.4414
   49MOL   H16520421   2.786   6.586   5.379 -0.4429  1.4457 -0.5814
   49MOL   H16620422   2.611   6.577   5.396 -0.2270  0.8011  2.6516
   49MOL   H16720423   2.624   6.373   5.518 -0.2700 -0.3322 -1.2974
   49MOL   H16820424   2.809   6.380   5.509  0.5980  1.0147 -0.5634
   49MOL   H16920425   2.721   6.355   5.367  0.4487  0.5899  0.1975
   49MOL   C17020426   3.160   6.665   5.694 -0.4781 -0.0680  0.3035
   49MOL   C17120427   3.210   6.534   5.630  0.2967  0.9216 -0.3304
   49MOL   C17220428   3.316   6.550   5.524  0.7036 -0.7258 -0.0040
   49MOL   C17320429   3.435   6.634   5.565 -0.2382 -0.4893 -0.5369
   49MOL   C17420430   3.549   6.647   5.468 -0.1524  0.6416 -0.2136
   49MOL   C17520431   3.505   6.746   5.361 -0.2299 -0.5431  0.3423
   49MOL   C17620432   3.615   6.781   5.261  0.9378  0.6494  0.0447
   49MOL   H17720433   3.086   6.648   5.772 -2.4908  1.4293 -1.2040
   49MOL   H17820434   3.240   6.711   5.751  0.7803 -1.1816 -0.5503
   49MOL   H17920435   3.126   6.488   5.577 -0.4104  2.8340 -0.9084
   49MOL   H18020436   3.270   6.600   5.439  1.9543 -2.6641 -1.8837
   49MOL   H18120437   3.355   6.454   5.491  2.8623 -0.0610  0.5089
   49MOL   H18220438   3.480   6.570   5.641  2.1752  2.1639  0.3550
   49MOL   H18320439   3.409   6.725   5.619 -0.8236 -0.4137 -0.9386
   49MOL   H18420440   3.590   6.554   5.430  2.7342  1.8083 -0.0652
   49MOL   H18520441   3.630   6.693   5.525 -0.8742 -1.5966  2.7124
   49MOL   H18620442   3.468   6.837   5.408 -1.7604 -0.3438 -1.1923
   49MOL   H18720443   3.425   6.685   5.318 -0.9167  0.2851  0.4223
   49MOL   H18820444   3.706   6.800   5.317  0.0935  0.8976  1.3494
   49MOL   H18920445   3.601   6.877   5.212  0.9565  2.2901  3.1320
   49MOL   H19020446   3.634   6.709   5.181 -0.0769  0.0955  0.2962
   49MOL   C19120447   3.265   6.450   5.748  0.1562 -1.0240  0.6191
   49MOL   C19220448   3.152   6.369   5.822 -0.0378 -0.1643 -0.0261
   49MOL   C19320449   3.086   6.262   5.731  0.0905  0.4637  0.4337
   49MOL   C19420450   3.179   6.161   5.651 -0.3135 -0.5984 -0.5097
   49MOL   C19520451   3.109   6.032   5.608 -0.4526 -0.1150 -0.0461
   49MOL   C19620452   2.999   6.038   5.498 -0.3383 -0.0729 -0.1260
   49MOL   C19720453   2.929   5.900   5.471 -0.1797  0.0107 -0.0562
   49MOL   H19820454   3.318   6.516   5.817  1.7187 -2.2001  0.5602
   49MOL   H19920455   3.325   6.369   5.709 -1.4937 -2.6891  1.4535
   49MOL   H20020456   3.081   6.446   5.851 -0.4920 -1.0267  1.2055
   49MOL   H20120457   3.011   6.304   5.664  0.0895  2.4334  1.6325
   49MOL   H20220458   3.032   6.200   5.801 -1.5856  0.3783 -0.9044
   49MOL   H20320459   3.267   6.127   5.705 -1.9321 -1.0564  1.8864
   49MOL   H20420460   3.215   6.227   5.571 -0.3675 -2.4746 -2.1291
   49MOL   H20520461   3.184   5.963   5.569 -0.5093 -1.9078  2.8488
   49MOL   H20620462   3.053   5.996   5.694 -2.4614  0.2155 -1.1833
   49MOL   H20720463   3.067   6.052   5.414 -1.6695  0.1117 -1.1960
   49MOL   H20820464   2.940   6.130   5.496  0.6907  0.6717  2.2579
   49MOL   H20920465   2.882   5.899   5.373  1.8963  1.7002 -1.1004
   49MOL   H21020466   2.848   5.890   5.543  0.4746  0.0410  0.6921
   49MOL   H21120467   3.008   5.825   5.479  2.8841  3.0738 -0.2491
   49MOL   C21220468   3.214   6.312   5.950  0.1297 -0.6560  0.7962
   49MOL   C21320469   3.117   6.239   6.047 -0.1712 -0.8292 -0.3618
   49MOL   C21420470   3.167   6.110   6.099 -0.3994 -0.5357 -0.2161
   49MOL   C21520471   3.117   5.998   6.016 -0.7978  0.3973 -0.3589
   49MOL   C21620472   3.159   5.853   6.035 -0.6024  0.2880  0.0862
   49MOL   C21720473   3.313   5.820   6.010 -0.3451  0.2679  0.0143
   49MOL   C21820474   3.339   5.667   6.022  0.1269 -0.6110 -0.4751
   49MOL   H21920475   3.255   6.398   6.003  1.0480 -1.7541  1.9020
   49MOL   H22020476   3.298   6.246   5.929  0.5855  0.1008  0.1819
   49MOL   H22120477   3.022   6.232   5.995 -1.5106  1.7784  1.6069
   49MOL   H22220478   3.276   6.107   6.086 -0.1300  1.2569  1.4511
   49MOL   H22320479   3.148   6.093   6.204 -2.4682  1.6532 -0.2107
   49MOL   H22420480   3.141   6.014   5.911  0.6326 -0.4442 -0.1781
   49MOL   H22520481   3.009   5.989   6.017 -0.7402 -1.4754 -3.7305
   49MOL   H22620482   3.118   5.834   6.134  0.1962  1.1893  0.6055
   49MOL   H22720483   3.104   5.783   5.973  0.5400 -1.3032  0.8376
   49MOL   H22820484   3.343   5.851   5.910 -1.7631 -2.4811 -1.2978
   49MOL   H22920485   3.374   5.876   6.081 -0.5774 -0.5117  0.8368
   49MOL   H23020486   3.436   5.621   6.002  0.2274  0.0920 -1.6352
   49MOL   H23120487   3.269   5.627   5.949 -0.8799  2.5931 -1.3191
   49MOL   H23220488   3.312   5.645   6.125  2.2906 -0.4943  0.1446
   49MOL   C23320489   3.095   6.322   6.181  0.0976 -0.3606  0.1870
   49MOL   C23420490   3.021   6.455   6.178 -0.5049  0.5718 -0.0021
   49MOL   C23520491   2.873   6.433   6.146 -0.1307 -0.4022  0.8262
   49MOL   C23620492   2.784   6.375   6.260 -0.0709  0.4349  0.3330
   49MOL   C23720493   2.639   6.350   6.220 -0.8704  0.3067  0.2016
   49MOL   C23820494   2.612   6.213   6.156 -0.1267  0.3619  0.3198
   49MOL   C23920495   2.470   6.187   6.103 -0.0326 -0.0682  0.1532
   49MOL   H24020496   3.186   6.335   6.239 -0.8743  1.5417  1.3290
   49MOL   H24120497   3.047   6.249   6.246  1.6123 -2.4470 -0.9707
   49MOL   H24220498   3.061   6.523   6.103 -2.5703  3.4553  1.4230
   49MOL   H24320499   2.867   6.394   6.044 -1.2213 -0.6747  0.9933
   49MOL   H24420500   2.836   6.534   6.129 -0.9666 -1.1565 -2.1234
   49MOL   H24520501   2.787   6.419   6.359 -0.0094 -1.0288  0.9953
   49MOL   H24620502   2.830   6.280   6.288  0.2887  0.1057 -1.3230
   49MOL   H24720503   2.613   6.424   6.144  1.3437 -0.2724 -1.1686
   49MOL   H24820504   2.583   6.367   6.312 -2.1454  0.6418 -0.6147
   49MOL   H24920505   2.674   6.205   6.067 -1.9189  0.1438 -0.9352
   49MOL   H25020506   2.654   6.130   6.213 -0.6469  0.3427  0.6819
   49MOL   H25120507   2.440   6.262   6.030  2.0530 -1.8175 -2.6319
   49MOL   H25220508   2.450   6.089   6.059  0.2295  1.4302 -3.4940
   49MOL   H25320509   2.411   6.201   6.193  0.4349  2.2603  0.1265
   49MOL   C25420510   3.037   6.531   6.310 -0.3007 -0.1452 -0.6799
   49MOL   C25520511   3.168   6.615   6.335  0.4369 -0.3402 -0.4317
   49MOL   C25620512   3.219   6.599   6.490  0.1333 -0.4883  0.4616
   49MOL   C25720513   3.257   6.462   6.534  0.0867  0.2899 -0.3396
   49MOL   C25820514   3.405   6.422   6.514 -0.3611  0.7150 -0.1197
   49MOL   C25920515   3.452   6.286   6.562  0.1747 -0.2497  0.0976
   49MOL   C26020516   3.374   6.175   6.495 -0.2677 -0.6045 -0.5710
   49MOL   H26120517   3.022   6.465   6.396  0.8183  3.0228  2.0980
   49MOL   H26220518   2.956   6.601   6.327 -1.6103 -2.2118  1.9445
   49MOL   H26320519   3.242   6.567   6.271  0.6643  1.4014 -1.5134
   49MOL   H26420520   3.144   6.631   6.564  0.6446  1.7045  0.0796
   49MOL   H26520521   3.308   6.658   6.511  1.4695 -2.4284  0.3018
   49MOL   H26620522   3.240   6.469   6.642 -0.0117 -1.1970 -0.2573
   49MOL   H26720523   3.186   6.386   6.502  0.2432 -0.2641  0.5980
   49MOL   H26820524   3.479   6.489   6.559  1.1957 -0.3112 -1.0951
   49MOL   H26920525   3.427   6.425   6.407  1.7944 -0.7251  0.2536
   49MOL   H27020526   3.561   6.280   6.553  0.2081  0.6111 -0.1555
   49MOL   H27120527   3.428   6.279   6.668  1.9040 -0.9110  0.4594
   49MOL   H27220528   3.388   6.176   6.387 -2.1686 -0.8835 -0.8281
   49MOL   H27320529   3.422   6.079   6.515 -0.2163 -0.2237  1.1854
   49MOL   H27420530   3.271   6.171   6.530  0.5751 -2.7354  1.8464
   49MOL   C27520531   3.154   6.765   6.312  0.0485 -0.5181 -0.1856
   49MOL   C27620532   3.178   6.811   6.162 -0.2600 -0.2578  0.2975
   49MOL   C27720533   3.331   6.838   6.158 -0.1957  0.6662 -0.4863
   49MOL   C27820534   3.383   6.844   6.015 -0.1828 -0.3911  0.2283
   49MOL   C27920535   3.536   6.865   6.013  0.2616 -0.4471  0.4722
   49MOL   C28020536   3.606   6.813   5.890 -0.2751  0.1516  0.3968
   49MOL   C28120537   3.581   6.900   5.771  0.5865  0.0823 -0.3336
   49MOL   H28220538   3.223   6.814   6.381 -1.0948  0.0468  0.5881
   49MOL   H28320539   3.055   6.801   6.342  0.8654  1.3895  0.3111
   49MOL   H28420540   3.156   6.734   6.088 -0.3900  0.0925 -0.0276
   49MOL   H28520541   3.351   6.937   6.199  1.6120  0.2576 -0.3254
   49MOL   H28620542   3.385   6.757   6.207  1.0410  0.8248 -1.5691
   49MOL   H28720543   3.339   6.920   5.951 -1.9841  0.3905  2.3517
   49MOL   H28820544   3.352   6.748   5.974  2.1444 -2.2865  2.7111
   49MOL   H28920545   3.588   6.817   6.097  2.2508  0.3394 -0.2756
   49MOL   H29020546   3.561   6.971   6.024 -1.2592  0.1656 -1.7417
   49MOL   H29120547   3.715   6.813   5.890 -0.2572 -1.4456  1.9645
   49MOL   H29220548   3.572   6.711   5.870 -0.1080 -0.0550  1.1684
   49MOL   H29320549   3.632   6.850   5.689 -1.9152  0.2276 -2.0265
   49MOL   H29420550   3.619   7.003   5.778  1.8401 -0.4329  0.7003
   49MOL   H29520551   3.474   6.902   5.756  0.7883 -0.0490 -1.8333
   49MOL   C29620552   3.105   6.940   6.121  0.2953 -0.3728  0.0680
   49MOL   C29720553   2.950   6.937   6.126  0.9379  0.6192  0.3542
   49MOL   C29820554   2.886   6.860   6.007  0.3136  0.1520  0.1669
   49MOL   C29920555   2.745   6.818   6.038 -0.3547  0.6494 -0.3648
   49MOL   C30020556   2.675   6.724   5.937 -0.2611  0.1950  0.0741
   49MOL   C30120557   2.540   6.669   5.978 -0.2254 -0.5728 -0.3087
   49MOL   C30220558   2.470   6.585   5.869  0.9049 -0.3952 -0.4728
   49MOL   H30320559   3.138   7.014   6.193 -1.5728  0.8638 -0.3015
   49MOL   H30420560   3.151   6.963   6.025  0.9168  0.5129  0.5804
   49MOL   H30520561   2.910   6.887   6.213 -1.4974 -0.4151 -1.3252
   49MOL   H30620562   2.885   6.927   5.921 -0.2233  0.1643  0.1761
   49MOL   H30720563   2.941   6.771   5.979  1.3574  0.6132  0.7166
   49MOL   H30820564   2.678   6.905   6.044  0.9308  1.5742  0.8701
   49MOL   H30920565   2.755   6.767   6.134  2.2452 -2.5063 -2.2283
   49MOL   H31020566   2.741   6.644   5.904  1.7488  2.2103 -0.9206
   49MOL   H31120567   2.657   6.783   5.847 -0.1820  1.2713  0.7651
   49MOL   H31220568   2.558   6.626   6.076 -1.6115 -1.1045 -0.2631
   49MOL   H31320569   2.469   6.747   6.002 -0.2167 -0.7252  0.2032
   49MOL   H31420570   2.513   6.486   5.859 -4.5917 -3.0045 -0.1028
   49MOL   H31520571   2.367   6.560   5.894  0.9478 -2.2490 -2.0427
   49MOL   H31620572   2.471   6.641   5.776  1.4135 -0.2729 -0.3969
   49MOL   C31720573   2.893   7.087   6.141 -0.1960  0.5347  0.0553
   49MOL   C31820574   2.922   7.158   6.278  0.1163  0.5965  0.2258
   49MOL   C31920575   2.882   7.305   6.269  0.1936 -0.6130 -0.5206
   49MOL   C32020576   2.931   7.384   6.136  0.0139  0.0751 -0.4868
   49MOL   C32120577   2.960   7.528   6.168 -0.4487 -0.2451 -1.0225
   49MOL   C32220578   3.007   7.621   6.054  0.2500  0.6856  0.8253
   49MOL   C32320579   3.000   0.052   6.084 -0.6436 -0.2711  0.0298
   49MOL   H32420580   2.785   7.078   6.144 -0.2234  0.4755 -0.9871
   49MOL   H32520581   2.921   7.139   6.050  0.6753  1.0246  0.5884
   49MOL   H32620582   3.030   7.175   6.284  0.5391 -1.7599 -0.3990
   49MOL   H32720583   2.937   7.356   6.348 -2.1080  0.1821  0.6149
   49MOL   H32820584   2.782   7.345   6.288  1.9000  3.1274  1.1190
   49MOL   H32920585   2.861   7.382   6.052 -1.8007 -1.1300  1.0348
   49MOL   H33020586   3.024   7.341   6.097 -0.7190  0.3095 -2.5584
   49MOL   H33120587   3.035   7.540   6.246 -0.9556  1.6157 -0.7932
   49MOL   H33220588   2.876   7.567   6.225 -0.5197 -0.3884 -1.0281
   49MOL   H33320589   2.958   7.603   5.958 -0.2614 -0.0699  1.2155
   49MOL   H33420590   3.112   7.591   6.048  0.2805  0.8791  0.3528
   49MOL   H33520591   2.896   0.080   6.071 -0.5040  0.0506 -0.3986
   49MOL   H33620592   3.058   0.112   6.013  1.0713 -0.9485  0.8266
   49MOL   H33720593   3.041   0.075   6.183 -0.0375  1.7914 -0.6646
   49MOL   C33820594   2.851   7.099   6.399 -0.4383  0.5291 -0.1739
   49MOL   C33920595   2.917   7.122   6.538 -0.0985 -0.0786 -0.3426
   49MOL   C34020596   3.041   7.038   6.558  0.0766  0.4094 -1.3429
   49MOL   C34120597   3.138   7.076   6.682 -0.1874 -0.0707  0.5128
   49MOL   C34220598   3.242   6.971   6.718  0.1094  0.2177  0.3286
   49MOL   C34320599   3.300   7.008   6.856 -0.2385 -0.2052 -0.4388
   49MOL   C34420600   3.396   7.123   6.859  0.6918  0.0458 -0.2997
   49MOL   H34520601   2.854   6.990   6.392  0.6563  0.6256 -1.2468
   49MOL   H34620602   2.747   7.132   6.400 -0.5814  0.0631  1.0564
   49MOL   H34720603   2.944   7.227   6.526 -0.6041  0.0640 -0.2463
   49MOL   H34820604   3.019   6.931   6.550 -0.1273  0.3465 -0.0020
   49MOL   H34920605   3.102   7.048   6.468 -0.2634  0.4274 -1.5737
   49MOL   H35020606   3.068   7.062   6.765  0.6914 -2.1686  0.9236
   49MOL   H35120607   3.180   7.177   6.680  1.8242 -0.9068 -0.5547
   49MOL   H35220608   3.204   6.869   6.720  2.1915 -0.6267 -1.2080
   49MOL   H35320609   3.318   6.966   6.640 -0.4226  1.5105 -0.2765
   49MOL   H35420610   3.218   7.025   6.925  1.1345  1.1506  0.9058
   49MOL   H35520611   3.354   6.923   6.897 -1.9455 -2.1057 -2.0725
   49MOL   H35620612   3.407   7.179   6.766  1.7121  0.1135 -0.1460
   49MOL   H35720613   3.493   7.098   6.902 -0.0862 -0.6655  1.0587
   49MOL   H35820614   3.365   7.194   6.936  2.9160  2.5313 -1.5921
   49MOL   C35920615   2.807   7.097   6.647  0.0617  0.2077 -0.1160
   49MOL   C36020616   2.745   7.229   6.694  0.1861  0.2445 -0.4317
   49MOL   C36120617   2.601   7.206   6.763 -0.9042 -0.0658  0.4043
   49MOL   C36220618   2.483   7.183   6.655  0.7059  0.5841 -0.2125
   49MOL   C36320619   2.457   7.295   6.553  0.1041  0.7282  0.3665
   49MOL   C36420620   2.341   7.266   6.459 -0.9516 -0.7076  0.3171
   49MOL   C36520621   2.332   7.383   6.361  0.1044 -0.1938 -0.6574
   49MOL   H36620622   2.862   7.047   6.727  0.1119  0.5800  0.0818
   49MOL   H36720623   2.738   7.021   6.613  0.5168  0.5809 -1.9354
   49MOL   H36820624   2.720   7.288   6.606 -1.2836 -0.8081 -0.7380
   49MOL   H36920625   2.612   7.121   6.830  0.6533 -0.4514 -0.3076
   49MOL   H37020626   2.576   7.291   6.826 -1.7174 -1.9170  2.6507
   49MOL   H37120627   2.513   7.099   6.591  1.4670  0.7576 -0.0868
   49MOL   H37220628   2.387   7.162   6.701 -0.3597  3.0414 -1.2318
   49MOL   H37320629   2.429   7.384   6.610  0.4228  1.1459 -0.1174
   49MOL   H37420630   2.548   7.312   6.496 -0.6569  1.2566 -0.7094
   49MOL   H37520631   2.358   7.169   6.412 -1.4231 -1.4119  1.5949
   49MOL   H37620632   2.250   7.255   6.518  0.0894 -1.4905  1.7826
   49MOL   H37720633   2.421   7.391   6.299 -1.7809  1.2744 -3.2720
   49MOL   H37820634   2.249   7.378   6.291 -1.8952  0.0088  1.6124
   49MOL   H37920635   2.322   7.478   6.414  0.8509 -1.3322  1.5907
   49MOL   C38020636   2.838   7.301   6.800 -0.4741  0.0690 -0.0476
   49MOL   C38120637   2.812   7.449   6.820  0.3760 -0.5129 -0.1460
   49MOL   C38220638   2.871   7.514   6.949 -0.7026 -0.3154 -0.5274
   49MOL   C38320639   2.787   7.466   7.074  0.3153  0.1308  0.0316
   49MOL   C38420640   2.838   7.531   7.206 -0.1127 -0.0339 -0.4468
   49MOL   C38520641   2.781   7.471   7.327  0.5251 -0.1430  0.5090
   49MOL   C38620642   2.860   7.483   7.450 -0.5939  0.6335 -0.2964
   49MOL   H38720643   2.832   7.254   6.898  0.6906  2.1925  1.0807
   49MOL   H38820644   2.943   7.295   6.771  0.2481  2.6736  1.9168
   49MOL   H38920645   2.703   7.455   6.817  0.2370 -2.5230  0.0095
   49MOL   H39020646   2.864   7.623   6.953 -0.4785 -0.3490  1.4891
   49MOL   H39120647   2.975   7.491   6.972 -0.5465  0.7035 -0.1744
   49MOL   H39220648   2.682   7.494   7.058 -0.2618 -1.6191  0.6135
   49MOL   H39320649   2.800   7.358   7.077  1.8958  0.2940 -0.5752
   49MOL   H39420650   2.947   7.524   7.211 -0.1991 -1.2455 -0.2006
   49MOL   H39520651   2.805   7.634   7.192 -1.3772 -0.7199 -2.7075
   49MOL   H39620652   2.771   7.365   7.306  2.9374 -0.0803 -1.1610
   49MOL   H39720653   2.689   7.522   7.355  1.1471  1.0815  0.3734
   49MOL   H39820654   2.949   7.419   7.450  0.1037  1.5970 -0.6167
   49MOL   H39920655   2.787   7.459   7.527  0.1802 -0.9554 -0.0276
   49MOL   H40020656   2.888   7.587   7.466 -1.0074  0.7461 -0.2886
   49MOL   C40120657   2.862   7.530   6.696 -0.5738  0.0248 -0.4145
   49MOL   C40220658   2.826   7.678   6.692  0.2615 -0.3803  0.3078
   49MOL   C40320659   2.859   0.027   6.556 -0.0712  0.4165 -0.0054
   49MOL   C40420660   2.821   0.173   6.562  0.0427 -0.5968 -0.0442
   49MOL   C40520661   2.851   0.236   6.425 -0.5095 -0.6942 -0.0454
   49MOL   C40620662   2.828   0.389   6.417  0.6339 -0.1626 -0.8694
   49MOL   C40720663   2.845   0.448   6.282 -0.4162  0.8469  0.4264
   49MOL   H40820664   2.819   7.488   6.606 -1.8521  0.6125 -0.0824
   49MOL   H40920665   2.970   7.519   6.681 -0.2413  0.0101  1.7410
   49MOL   H41020666   2.883   0.020   6.766  1.4528  4.1001 -3.7448
   49MOL   H41120667   2.796   7.706   6.473 -0.7189 -0.3667  0.8052
   49MOL   H41220668   2.963   0.006   6.529  0.1549 -0.0733  1.2330
   49MOL   H41320669   2.864   0.224   6.648 -0.3738 -1.5013  0.7071
   49MOL   H41420670   2.713   0.190   6.567 -0.1998 -1.5276 -1.5171
   49MOL   H41520671   2.959   0.224   6.422 -0.3216  0.6522  0.8571
   49MOL   H41620672   2.797   0.187   6.343 -2.5308  0.9735  0.2567
   49MOL   H41720673   2.720   0.391   6.436  0.6817  0.7187 -0.6467
   49MOL   H41820674   2.887   0.443   6.491 -3.1450  1.0386  1.4081
   49MOL   H41920675   2.815   0.381   6.201 -0.8652  1.9307 -0.3139
   49MOL   H42020676   2.948   0.482   6.271  0.0657 -0.7458 -0.0884
   49MOL   H42120677   2.786   0.538   6.265 -1.4111 -0.2068 -1.9380
   49MOL   H42220678   2.722   7.700   6.718 -0.0754 -0.7816 -0.6828
   50MOL     C120679   1.955   3.386   4.879  0.2682 -0.4032 -0.1051
   50MOL     C220680   2.023   3.254   4.920  0.0393  0.4136  0.8509
   50MOL     C320681   1.993   3.201   5.055  0.1288 -0.4761 -0.0573
   50MOL     C420682   1.843   3.188   5.080  0.8183  0.0850 -0.4297
   50MOL     C520683   1.802   3.094   5.196  0.1135  0.3526  0.3745
   50MOL     C620684   1.654   3.072   5.212 -1.0787  0.1699  0.3169
   50MOL     C720685   1.611   2.993   5.340 -0.2823 -0.1660  0.3282
   50MOL     H820686   1.996   3.433   4.789 -0.5062 -0.3920 -0.4517
   50MOL     H920687   1.977   3.457   4.959  1.0964  4.1883 -4.1811
   50MOL    H1020688   1.985   3.179   4.851 -2.2424  2.4485 -0.1563
   50MOL    H1120689   2.032   3.099   5.059  0.7465 -0.3632 -2.2817
   50MOL    H1220690   2.049   3.245   5.138 -2.1677 -1.3631  2.0035
   50MOL    H1320691   1.809   3.289   5.103  1.4710  0.2214 -0.0703
   50MOL    H1420692   1.784   3.147   4.998 -0.5783  0.6886  0.2500
   50MOL    H1520693   1.843   3.120   5.294  2.7361  0.4399 -0.7075
   50MOL    H1620694   1.836   2.995   5.164 -0.2320  0.2888  0.1996
   50MOL    H1720695   1.617   3.014   5.127 -3.2661  2.4660 -0.3745
   50MOL    H1820696   1.599   3.166   5.215 -1.0461  0.1728  0.8058
   50MOL    H1920697   1.506   2.963   5.337 -0.1121 -0.9343  1.6681
   50MOL    H2020698   1.624   3.056   5.428 -0.9081 -1.5142  1.4032
   50MOL    H2120699   1.674   2.904   5.347 -0.3125 -0.2287 -0.1644
   50MOL    H2220700   1.848   3.379   4.861  0.0076  0.9907  0.8255
   50MOL    C2320701   2.176   3.255   4.891  0.7610 -0.1678  0.0811
   50MOL    C2420702   2.218   3.278   4.742 -0.7698 -0.3903  0.1520
   50MOL    C2520703   2.161   3.184   4.634  0.2255 -0.4556 -0.1111
   50MOL    C2620704   2.174   3.039   4.658 -0.5245  0.8208 -0.0837
   50MOL    C2720705   2.114   2.941   4.556 -0.1240 -0.0912 -0.6617
   50MOL    C2820706   2.148   2.793   4.594 -0.0332 -0.2682 -0.2107
   50MOL    C2920707   2.132   2.694   4.480  0.2968  0.6928 -0.4949
   50MOL    H3020708   2.224   3.315   4.968  1.0824 -0.0507 -0.2075
   50MOL    H3120709   2.217   3.156   4.910  3.2981  0.8376  0.0874
   50MOL    H3220710   2.176   3.377   4.726  1.9324  0.9200  0.8237
   50MOL    H3320711   2.198   3.201   4.533 -0.1843 -0.3772 -0.2476
   50MOL    H3420712   2.055   3.208   4.641  0.6345  1.2120  0.6380
   50MOL    H3520713   2.129   3.020   4.756 -2.0728  0.8219 -0.7737
   50MOL    H3620714   2.280   3.014   4.661 -0.4051  0.9834 -2.0472
   50MOL    H3720715   2.162   2.957   4.460  1.4637  4.0135  0.6835
   50MOL    H3820716   2.010   2.962   4.530  0.1169  0.5335 -1.1431
   50MOL    H3920717   2.093   2.753   4.679  2.1998  0.8555  1.7750
   50MOL    H4020718   2.252   2.778   4.623 -0.4794 -2.0048  0.5490
   50MOL    H4120719   2.203   2.707   4.398 -0.1674 -1.1928 -1.2179
   50MOL    H4220720   2.121   2.592   4.515 -1.0181  1.9586  3.0043
   50MOL    H4320721   2.037   2.718   4.430  0.3645  3.0299  0.4216
   50MOL    C4420722   2.368   3.293   4.742 -0.2798 -0.3216  0.4237
   50MOL    C4520723   2.424   3.341   4.604 -0.4865 -0.4149  0.4063
   50MOL    C4620724   2.385   3.489   4.585  0.4592  0.3904  0.2521
   50MOL    C4720725   2.343   3.521   4.446  0.4653 -0.4586  0.1606
   50MOL    C4820726   2.295   3.664   4.429  0.4499  0.3458 -0.9658
   50MOL    C4920727   2.247   3.689   4.280  0.1989 -0.5042  0.0051
   50MOL    C5020728   2.222   3.834   4.254  0.6834 -0.0100 -0.4392
   50MOL    H5120729   2.408   3.196   4.773 -1.9956 -0.9064  0.8724
   50MOL    H5220730   2.405   3.361   4.819 -1.5664  2.9908 -1.7797
   50MOL    H5320731   2.377   3.282   4.525 -0.0061 -0.3448  0.0653
   50MOL    H5420732   2.464   3.552   4.624  0.2182  0.4555  0.6364
   50MOL    H5520733   2.297   3.522   4.640  0.2413  3.0481 -1.5583
   50MOL    H5620734   2.433   3.509   4.386  0.1094  0.7940 -0.6491
   50MOL    H5720735   2.267   3.459   4.398  0.9675  2.1371 -4.3025
   50MOL    H5820736   2.369   3.740   4.456 -0.5720  0.7883  0.6173
   50MOL    H5920737   2.208   3.697   4.485  0.0084  1.0193 -2.0324
   50MOL    H6020738   2.161   3.623   4.267  1.6078 -2.2089 -0.9307
   50MOL    H6120739   2.331   3.653   4.221  0.2764  0.5938 -0.5776
   50MOL    H6220740   2.214   3.863   4.150  3.8186 -0.5390 -0.8710
   50MOL    H6320741   2.309   3.887   4.293  2.8101 -3.4575 -0.3291
   50MOL    H6420742   2.129   3.871   4.298  0.3140 -0.7521 -0.5865
   50MOL    C6520743   2.582   3.319   4.599 -0.3198 -0.2125 -0.3974
   50MOL    C6620744   2.648   3.305   4.463  0.4778  0.4872  0.8214
   50MOL    C6720745   2.596   3.186   4.381  0.7275  0.1853 -0.2749
   50MOL    C6820746   2.649   3.049   4.431  0.2714  0.8444  0.1642
   50MOL    C6920747   2.618   2.927   4.342  0.0724  0.1302  0.0224
   50MOL    C7020748   2.468   2.917   4.303  0.4699 -0.5060  0.1512
   50MOL    C7120749   2.440   2.774   4.265 -0.5137  0.1572 -0.3012
   50MOL    H7220750   2.636   3.398   4.650 -0.4921 -1.0692  1.1474
   50MOL    H7320751   2.597   3.222   4.647  1.4369  1.2819  2.1275
   50MOL    H7420752   2.620   3.393   4.405 -1.4700 -0.5747  0.1046
   50MOL    H7520753   2.487   3.191   4.379  0.7297  0.4638  0.2696
   50MOL    H7620754   2.632   3.202   4.279  1.0364 -0.0439 -0.1992
   50MOL    H7720755   2.757   3.047   4.445  0.2254  1.5565  0.6814
   50MOL    H7820756   2.612   3.033   4.532 -0.1425 -1.1801 -0.2814
   50MOL    H7920757   2.687   2.911   4.258  0.4623 -1.0641  0.5487
   50MOL    H8020758   2.643   2.839   4.402 -0.1698 -0.0673 -0.1653
   50MOL    H8120759   2.441   2.989   4.226  1.7942 -0.1390  0.0151
   50MOL    H8220760   2.399   2.940   4.385  0.8160  0.7969  0.0967
   50MOL    H8320761   2.336   2.756   4.236 -0.5517  1.6826 -1.1596
   50MOL    H8420762   2.510   2.753   4.185 -2.5411 -1.6018 -1.6805
   50MOL    H8520763   2.458   2.695   4.339  0.0855  0.3498 -0.2431
   50MOL    C8620764   2.803   3.322   4.465  0.5184  0.2842 -0.2779
   50MOL    C8720765   2.862   3.460   4.453 -0.4244  0.1343 -0.2960
   50MOL    C8820766   3.007   3.477   4.514 -0.2761 -0.1956  0.0532
   50MOL    C8920767   3.100   3.363   4.467 -0.2577 -0.4106 -0.0303
   50MOL    C9020768   3.244   3.387   4.505 -0.9308  0.7096  0.2503
   50MOL    C9120769   3.333   3.267   4.472 -0.9242 -0.2331 -0.4596
   50MOL    C9220770   3.474   3.315   4.507 -0.3931 -0.0514  0.4827
   50MOL    H9320771   2.849   3.290   4.558  1.7209 -1.1714 -1.3356
   50MOL    H9420772   2.836   3.251   4.388  0.1527  0.9406 -1.0425
   50MOL    H9520773   2.800   3.532   4.507  1.4494  0.5238  1.4027
   50MOL    H9620774   3.042   3.575   4.481  2.3357 -0.7713  1.0221
   50MOL    H9720775   3.007   3.475   4.623 -0.0898 -0.4942  0.0495
   50MOL    H9820776   3.072   3.271   4.518  1.7017  0.0013  1.8505
   50MOL    H9920777   3.090   3.330   4.364 -1.4976  0.0981 -0.0884
   50MOL   H10020778   3.249   3.422   4.609 -1.8502  0.1306  0.4946
   50MOL   H10120779   3.273   3.475   4.448  0.8691  0.4254  0.6920
   50MOL   H10220780   3.309   3.177   4.528  0.1905  0.0538  0.4893
   50MOL   H10320781   3.322   3.238   4.367 -1.3736 -0.1731 -0.4273
   50MOL   H10420782   3.547   3.234   4.503 -0.0237  0.3286 -4.4793
   50MOL   H10520783   3.476   3.334   4.614  1.4330 -0.6064  0.5753
   50MOL   H10620784   3.507   3.402   4.449  0.3176  0.9358  2.3328
   50MOL   C10720785   2.857   3.495   4.296  0.6432 -0.5684 -0.5209
   50MOL   C10820786   2.881   3.642   4.257 -0.5990  0.0220  0.0581
   50MOL   C10920787   2.913   3.650   4.103 -0.5200  0.5789  0.2258
   50MOL   C11020788   3.057   3.685   4.067 -0.1728 -0.3975  0.2673
   50MOL   C11120789   3.158   3.575   4.087 -0.0774  0.0032  0.4055
   50MOL   C11220790   3.303   3.611   4.061  0.7059 -0.0755  0.2473
   50MOL   C11320791   3.387   3.486   4.077 -0.6014 -0.0885 -0.1312
   50MOL   H11420792   2.773   3.448   4.245 -1.7086  0.6926  2.0501
   50MOL   H11520793   2.936   3.440   4.246  0.3644 -0.2677 -1.2900
   50MOL   H11620794   2.965   3.690   4.308  0.1735 -2.5495  1.2929
   50MOL   H11720795   2.849   3.729   4.063 -1.5695 -0.1684  0.4143
   50MOL   H11820796   2.881   3.563   4.047  0.0702  0.6792 -0.2731
   50MOL   H11920797   3.059   3.708   3.960 -0.4735  1.0499  0.5554
   50MOL   H12020798   3.085   3.781   4.111  0.1144 -0.4373  0.1709
   50MOL   H12120799   3.125   3.493   4.024  0.3319 -0.4884  0.8327
   50MOL   H12220800   3.157   3.550   4.193  2.5883  0.4514  0.5638
   50MOL   H12320801   3.314   3.644   3.957 -1.4631  0.0117  0.0231
   50MOL   H12420802   3.324   3.693   4.130 -0.5864  0.1748  0.3527
   50MOL   H12520803   3.383   3.407   4.002  3.2215 -1.0703  0.6100
   50MOL   H12620804   3.493   3.504   4.093 -1.1369  2.1192  1.0967
   50MOL   H12720805   3.368   3.446   4.177 -0.3140 -0.8883 -0.3902
   50MOL   C12820806   2.762   3.736   4.281  1.3924 -0.3135  0.0684
   50MOL   C12920807   2.787   3.894   4.279 -0.5777 -0.2382 -0.4848
   50MOL   C13020808   2.868   3.946   4.404 -0.5152  0.4631  0.0791
   50MOL   C13120809   3.017   3.964   4.379 -0.2486  0.0137  0.0005
   50MOL   C13220810   3.106   3.962   4.508 -0.3595 -0.2555  0.5874
   50MOL   C13320811   3.259   3.956   4.489  0.0271 -0.4416 -0.0827
   50MOL   C13420812   3.314   3.824   4.430  0.0595  0.1807 -0.4863
   50MOL   H13520813   2.678   3.707   4.218  1.8766  0.0029 -0.7221
   50MOL   H13620814   2.729   3.716   4.384 -1.0264 -2.8026 -1.1106
   50MOL   H13720815   2.846   3.914   4.190 -0.3001 -0.0457 -0.2598
   50MOL   H13820816   2.867   3.865   4.478 -0.5638 -1.3213 -1.8230
   50MOL   H13920817   2.821   4.033   4.450 -1.7515  0.6785 -1.5332
   50MOL   H14020818   3.032   4.056   4.324  1.3689 -0.9841 -1.2912
   50MOL   H14120819   3.042   3.882   4.311 -0.1186  1.4249 -1.6876
   50MOL   H14220820   3.083   3.873   4.568 -0.8136 -0.4676  0.1011
   50MOL   H14320821   3.064   4.037   4.575 -0.3522 -1.3569  1.8434
   50MOL   H14420822   3.310   3.990   4.579  0.2983 -0.5988 -0.1792
   50MOL   H14520823   3.285   4.035   4.418 -0.0049 -3.0045 -3.0131
   50MOL   H14620824   3.307   3.744   4.504  0.5134  1.3397  0.8109
   50MOL   H14720825   3.417   3.821   4.393  0.9907 -0.6255  2.0820
   50MOL   H14820826   3.253   3.785   4.349  2.2101  1.1442 -2.6383
   50MOL   C14920827   2.648   3.963   4.274 -0.1455 -0.7033 -0.9051
   50MOL   C15020828   2.652   4.117   4.239 -0.3218 -0.5410  0.0724
   50MOL   C15120829   2.515   4.195   4.268  0.3316 -0.2877 -0.2528
   50MOL   C15220830   2.491   4.223   4.420 -0.1526  0.3850  0.1699
   50MOL   C15320831   2.586   4.310   4.509 -0.3530 -0.3394  0.7233
   50MOL   C15420832   2.556   4.464   4.477  0.5161 -0.1632 -0.2393
   50MOL   C15520833   2.648   4.570   4.553  1.2147  0.7626 -0.2536
   50MOL   H15620834   2.599   3.911   4.192 -0.2602  0.8586 -1.8351
   50MOL   H15720835   2.577   3.949   4.356  2.1506  1.7578  1.6372
   50MOL   H15820836   2.717   4.152   4.320  0.9890 -1.6027 -0.5104
   50MOL   H15920837   2.516   4.289   4.213  0.1703 -0.1911 -0.0914
   50MOL   H16020838   2.423   4.150   4.230  1.6687 -1.5159 -2.1490
   50MOL   H16120839   2.483   4.128   4.473 -1.2644  0.3593 -0.0239
   50MOL   H16220840   2.388   4.258   4.425 -1.3991 -2.7441 -2.1057
   50MOL   H16320841   2.692   4.286   4.498 -0.0641  1.1011  0.1795
   50MOL   H16420842   2.553   4.284   4.610 -1.1810 -0.0773  0.5256
   50MOL   H16520843   2.452   4.497   4.485  1.1173  1.3413  1.6968
   50MOL   H16620844   2.583   4.469   4.372  0.1547  0.1874 -0.3189
   50MOL   H16720845   2.632   4.666   4.505  0.1761  0.0051 -1.4607
   50MOL   H16820846   2.754   4.548   4.539  1.8325  3.9150 -0.8546
   50MOL   H16920847   2.619   4.586   4.657  0.3026 -0.6364 -0.2812
   50MOL   C17020848   2.700   4.146   4.091 -0.3968 -0.1949  0.1785
   50MOL   C17120849   2.840   4.206   4.095  0.1966  0.1344  0.8734
   50MOL   C17220850   2.897   4.180   3.953 -0.0783 -0.0242 -0.0449
   50MOL   C17320851   2.811   4.233   3.838 -0.0454 -0.7453 -0.7607
   50MOL   C17420852   2.898   4.251   3.712 -0.5192  0.0864  0.3590
   50MOL   C17520853   2.821   4.267   3.585  0.7377 -0.5625 -0.1300
   50MOL   C17620854   2.905   4.260   3.457 -0.1188 -0.5348  0.1975
   50MOL   H17720855   2.636   4.213   4.033  0.6483 -0.4637 -1.3103
   50MOL   H17820856   2.692   4.054   4.033 -0.2808  0.4665 -0.8954
   50MOL   H17920857   2.898   4.137   4.156 -0.0023  0.8209  1.8347
   50MOL   H18020858   2.920   4.074   3.943  2.8169  0.3164  2.6466
   50MOL   H18120859   2.995   4.225   3.938 -0.0073 -1.0960 -3.2320
   50MOL   H18220860   2.764   4.329   3.858  2.0750 -0.2127  2.1006
   50MOL   H18320861   2.735   4.157   3.823 -0.6174 -0.4593  0.6070
   50MOL   H18420862   2.954   4.157   3.706  0.0637  0.5520 -1.8257
   50MOL   H18520863   2.961   4.338   3.726 -0.9875  0.5942 -0.6510
   50MOL   H18620864   2.754   4.351   3.600  0.8587 -0.8301  2.0939
   50MOL   H18720865   2.752   4.184   3.597 -0.6090  0.8239  2.1342
   50MOL   H18820866   2.954   4.164   3.443  1.2358  0.2567 -0.6159
   50MOL   H18920867   2.989   4.327   3.476 -0.3457 -0.7848  2.1600
   50MOL   H19020868   2.851   4.297   3.370  2.1860  1.9133 -0.2876
   50MOL   C19120869   2.852   4.359   4.129  0.2814  0.3802 -0.4417
   50MOL   C19220870   2.980   4.408   4.187 -0.1520  0.4658  0.5669
   50MOL   C19320871   3.029   4.532   4.108  0.1198 -0.0524 -0.8743
   50MOL   C19420872   3.081   4.504   3.965 -0.3081  0.0707  0.0527
   50MOL   C19520873   3.135   4.636   3.899  0.6697 -0.1955 -0.2426
   50MOL   C19620874   3.259   4.695   3.968  0.0445 -0.6879 -0.1767
   50MOL   C19720875   3.330   4.793   3.877 -0.1960  0.1500  0.4504
   50MOL   H19820876   2.772   4.392   4.196  1.1651  1.2850  0.1789
   50MOL   H19920877   2.819   4.415   4.042 -2.1714  0.7075  0.6403
   50MOL   H20020878   3.053   4.330   4.164  0.9049  2.2564 -2.3422
   50MOL   H20120879   3.111   4.576   4.165 -1.8007  0.9930  1.1617
   50MOL   H20220880   2.966   4.621   4.104 -0.7600 -0.6663 -0.7266
   50MOL   H20320881   3.012   4.451   3.899 -0.2699  1.0700 -0.8094
   50MOL   H20420882   3.168   4.445   3.993  0.0874  1.8236  2.6889
   50MOL   H20520883   3.158   4.622   3.794  0.2752 -0.2707 -0.3179
   50MOL   H20620884   3.058   4.713   3.903 -0.1173 -1.0089  0.9974
   50MOL   H20720885   3.325   4.614   3.999  0.7781  0.4187  1.1755
   50MOL   H20820886   3.241   4.749   4.061 -0.7502 -0.7902 -0.2689
   50MOL   H20920887   3.429   4.811   3.920  0.3219  1.8349 -1.3507
   50MOL   H21020888   3.268   4.883   3.874  0.0711  0.3041 -1.7511
   50MOL   H21120889   3.349   4.745   3.781 -0.6491 -1.6858  1.2581
   50MOL   C21220890   2.966   4.423   4.340 -0.1512 -0.9766 -0.8575
   50MOL   C21320891   3.091   4.457   4.419 -0.2702 -0.2169  0.0525
   50MOL   C21420892   3.060   4.461   4.575  0.0965 -0.1087  0.8908
   50MOL   C21520893   3.020   4.335   4.651 -0.5398  0.3600  1.1531
   50MOL   C21620894   2.915   4.369   4.756  0.3363 -0.7322 -0.0618
   50MOL   C21720895   2.890   4.259   4.851 -0.4774 -0.0785  0.2088
   50MOL   C21820896   2.797   4.299   4.965 -0.2591 -0.0935  0.0456
   50MOL   H21920897   2.918   4.332   4.376  1.7855 -1.8443 -0.3858
   50MOL   H22020898   2.895   4.498   4.374  1.0098 -0.3888  0.3180
   50MOL   H22120899   3.114   4.563   4.407 -1.7492  0.0132 -0.8474
   50MOL   H22220900   3.151   4.505   4.615  1.0990  0.2910 -1.7461
   50MOL   H22320901   2.984   4.537   4.591  0.1314  0.3078 -0.8739
   50MOL   H22420902   3.114   4.298   4.692 -0.3406 -0.9906 -0.4636
   50MOL   H22520903   2.988   4.257   4.582 -0.3255 -0.6202  2.1508
   50MOL   H22620904   2.938   4.460   4.811 -0.4229 -0.0382 -0.8795
   50MOL   H22720905   2.822   4.400   4.707  0.6052  0.6048  0.2498
   50MOL   H22820906   2.849   4.170   4.803 -0.9522 -0.1930  0.8196
   50MOL   H22920907   2.984   4.232   4.899 -1.3100 -2.0778  0.7690
   50MOL   H23020908   2.783   4.209   5.026 -0.7206 -0.1253 -0.1082
   50MOL   H23120909   2.699   4.324   4.927  0.9391  1.4201 -2.1249
   50MOL   H23220910   2.848   4.379   5.019 -2.2525  0.2406  1.5056
   50MOL   C23320911   3.219   4.370   4.395  0.1724 -0.4634 -0.0405
   50MOL   C23420912   3.330   4.422   4.296  0.5093 -0.3421 -0.4210
   50MOL   C23520913   3.376   4.566   4.332 -0.0689  0.0691  0.1334
   50MOL   C23620914   3.463   4.592   4.453  0.4631 -0.1497  0.8935
   50MOL   C23720915   3.529   4.731   4.459 -0.1171  0.3324  0.4543
   50MOL   C23820916   3.595   4.758   4.601 -0.3800 -0.9029  0.6029
   50MOL   C23920917   3.673   4.886   4.612  0.2033  0.2251  0.3587
   50MOL   H24020918   3.181   4.271   4.368 -0.9818 -0.9022  2.9536
   50MOL   H24120919   3.268   4.348   4.489  0.4931 -0.6419 -0.2472
   50MOL   H24220920   3.277   4.420   4.201  1.3509  0.3064 -0.9125
   50MOL   H24320921   3.285   4.624   4.332 -0.6904 -0.8830 -0.5750
   50MOL   H24420922   3.427   4.614   4.249 -2.4715  0.5062 -1.1280
   50MOL   H24520923   3.546   4.522   4.452  0.8416  0.2939  1.5082
   50MOL   H24620924   3.404   4.582   4.544 -0.5447 -2.6688  0.0050
   50MOL   H24720925   3.454   4.806   4.434  1.5815  2.1281  0.6961
   50MOL   H24820926   3.599   4.743   4.377  0.8371  0.7041  1.3079
   50MOL   H24920927   3.518   4.752   4.678 -1.6793 -1.8905 -0.7346
   50MOL   H25020928   3.672   4.681   4.610  1.2859  0.9661  2.7863
   50MOL   H25120929   3.718   4.908   4.516 -1.9402  0.4071 -0.6274
   50MOL   H25220930   3.609   4.971   4.635 -0.9989  0.3563 -3.2095
   50MOL   H25320931   3.750   4.874   4.689  0.2646 -0.3955  0.2041
   50MOL   C25420932   3.447   4.321   4.289  0.8129 -0.1520  0.3819
   50MOL   C25520933   3.551   4.325   4.174  0.3893  0.7964 -0.1513
   50MOL   C25620934   3.489   4.298   4.034  0.1909  0.2553 -0.0539
   50MOL   C25720935   3.383   4.179   4.029 -0.7211 -1.4843  0.2512
   50MOL   C25820936   3.347   4.152   3.881 -0.2031 -0.3792 -1.3024
   50MOL   C25920937   3.258   4.035   3.860  0.0525 -0.1174  0.1114
   50MOL   C26020938   3.221   4.010   3.715  0.2133 -0.0016 -0.9111
   50MOL   H26120939   3.383   4.233   4.284  0.4343  0.1176  0.4393
   50MOL   H26220940   3.497   4.321   4.386  0.9220 -1.3777  0.3381
   50MOL   H26320941   3.595   4.424   4.169  2.5685 -0.2157 -2.0930
   50MOL   H26420942   3.574   4.280   3.967  0.8007 -1.8975  1.2637
   50MOL   H26520943   3.437   4.385   3.993 -2.2128 -1.3076 -0.3707
   50MOL   H26620944   3.422   4.088   4.076 -1.3308 -2.0488 -0.3094
   50MOL   H26720945   3.291   4.213   4.077 -1.9611  0.0140 -3.0364
   50MOL   H26820946   3.446   4.139   3.837  0.5030  0.2918  0.0357
   50MOL   H26920947   3.321   4.247   3.835  0.7948  0.4531 -0.2178
   50MOL   H27020948   3.304   3.952   3.913  0.5760  1.0315  1.4804
   50MOL   H27120949   3.173   4.046   3.927  1.3176 -0.8434  1.8723
   50MOL   H27220950   3.184   4.101   3.668  0.6341  0.7060  0.1247
   50MOL   H27320951   3.307   3.980   3.655  1.5174  2.4870 -0.3469
   50MOL   H27420952   3.151   3.926   3.714 -0.9314  0.9355 -0.2374
   50MOL   C27520953   3.662   4.219   4.218 -0.6147 -0.5100 -0.9667
   50MOL   C27620954   3.763   4.260   4.329 -0.2579  0.3351  0.1882
   50MOL   C27720955   3.851   4.373   4.271  0.1934  0.7715 -0.1842
   50MOL   C27820956   3.882   4.483   4.376  0.3649  0.3153  0.0114
   50MOL   C27920957   4.017   4.556   4.366 -0.2939  0.0178  0.5989
   50MOL   C28020958   4.020   4.695   4.445  0.7080 -0.2345  0.2973
   50MOL   C28120959   4.007   4.677   4.597 -0.4145 -0.9669  0.5258
   50MOL   H28220960   3.721   4.189   4.131  0.3397 -1.0261 -0.1404
   50MOL   H28320961   3.614   4.126   4.248 -1.4379  0.2158 -0.0152
   50MOL   H28420962   3.716   4.309   4.414  0.4227  2.9343 -0.8913
   50MOL   H28520963   3.946   4.328   4.242  0.1127  0.8247 -0.5319
   50MOL   H28620964   3.811   4.417   4.180  1.6199 -1.8651 -2.1533
   50MOL   H28720965   3.872   4.434   4.474  0.8931 -3.8531 -1.8924
   50MOL   H28820966   3.798   4.551   4.364 -0.3085 -0.5374 -0.2077
   50MOL   H28920967   4.044   4.570   4.261 -1.9113  0.5535  0.2530
   50MOL   H29020968   4.096   4.495   4.410 -0.4919 -0.9326 -0.3553
   50MOL   H29120969   4.105   4.751   4.407  0.4199 -0.6613 -1.0001
   50MOL   H29220970   3.934   4.755   4.414 -0.8864 -1.1193  2.8251
   50MOL   H29320971   4.091   4.626   4.643 -0.4897 -1.0707  0.5479
   50MOL   H29420972   3.919   4.625   4.634 -1.4283  0.7967  0.6557
   50MOL   H29520973   3.995   4.776   4.642 -0.6697 -1.6229  1.9208
   50MOL   C29620974   3.842   4.143   4.379 -0.3112  0.0970  0.1691
   50MOL   C29720975   3.777   4.014   4.442 -0.0383 -0.0156  0.1231
   50MOL   C29820976   3.705   4.039   4.574  0.1161  0.8441 -0.2331
   50MOL   C29920977   3.785   4.104   4.695 -0.2523  0.3904  0.0790
   50MOL   C30020978   3.703   4.115   4.828  0.2273  0.1765  0.4022
   50MOL   C30120979   3.699   3.986   4.909  0.2834 -0.5158  0.3609
   50MOL   C30220980   3.826   3.943   4.993  0.3340  0.4471 -0.2982
   50MOL   H30320981   3.904   4.101   4.300 -2.4510 -0.6495 -1.1468
   50MOL   H30420982   3.906   4.174   4.461 -1.0908 -3.2588  2.1634
   50MOL   H30520983   3.709   3.972   4.367  0.6398  0.5845 -0.8367
   50MOL   H30620984   3.625   4.108   4.547 -1.0887 -0.3365  0.2960
   50MOL   H30720985   3.647   3.956   4.614  1.8626  0.3908  1.4232
   50MOL   H30820986   3.820   4.203   4.667  0.0487  0.1802 -0.2955
   50MOL   H30920987   3.876   4.046   4.713 -1.2478 -1.2032  0.0581
   50MOL   H31020988   3.599   4.142   4.812 -0.0613 -0.6800  0.8048
   50MOL   H31120989   3.750   4.195   4.886  2.1249  0.4023 -1.3866
   50MOL   H31220990   3.616   3.997   4.979 -0.0365 -1.1887  0.0901
   50MOL   H31320991   3.669   3.916   4.832 -0.2069  1.0830 -0.9237
   50MOL   H31420992   3.892   4.025   5.020  0.7322 -0.7674  2.6964
   50MOL   H31520993   3.778   3.914   5.087 -1.3433  0.2064 -1.2235
   50MOL   H31620994   3.887   3.861   4.955 -0.1203 -0.9903  1.9326
   50MOL   C31720995   3.875   3.897   4.453 -0.1709  0.0069 -0.1289
   50MOL   C31820996   3.821   3.752   4.462 -0.5514  0.6652 -0.4791
   50MOL   C31920997   3.766   3.689   4.331  0.0009 -0.2743 -0.3582
   50MOL   C32020998   3.872   3.663   4.214  0.0138  0.0535  0.0630
   50MOL   C32120999   3.816   3.575   4.108 -0.2277  0.6108 -0.0569
   50MOL   C32221000   3.827   3.429   4.144 -0.1457 -0.2915  0.8109
   50MOL   C32321001   3.789   3.346   4.017 -0.1119  0.5354 -0.3472
   50MOL   H32421002   3.947   3.933   4.527 -1.5242  2.1915  0.1626
   50MOL   H32521003   3.925   3.897   4.356 -2.4296  4.1270 -1.4447
   50MOL   H32621004   3.741   3.762   4.535  1.2133  1.6923  1.3585
   50MOL   H32721005   3.675   3.736   4.296 -0.0671  0.1854  0.4263
   50MOL   H32821006   3.730   3.592   4.366  2.2590 -1.0698 -0.1002
   50MOL   H32921007   3.970   3.629   4.246 -0.5150 -0.9396  0.6695
   50MOL   H33021008   3.890   3.760   4.169  0.0766 -0.4070 -0.9267
   50MOL   H33121009   3.887   3.603   4.030  1.7023 -0.3278  1.2931
   50MOL   H33221010   3.714   3.588   4.073 -0.4402 -0.5829  0.0745
   50MOL   H33321011   3.767   3.411   4.234  1.1346 -0.5981  1.6130
   50MOL   H33421012   3.928   3.404   4.177  0.0563  0.2964  0.6429
   50MOL   H33521013   3.683   3.365   4.003  0.0207  1.8895  0.3497
   50MOL   H33621014   3.801   3.240   4.037 -0.0155  0.8986  1.6089
   50MOL   H33721015   3.847   3.366   3.927  2.3812  0.6649  1.2094
   50MOL   C33821016   3.935   3.663   4.522  0.3520  0.8075 -0.4540
   50MOL   C33921017   3.901   3.520   4.571 -0.2346 -0.3657  0.4997
   50MOL   C34021018   3.865   3.516   4.721 -0.7420 -0.1382  0.5099
   50MOL   C34121019   3.739   3.589   4.759 -0.2261 -0.0295 -0.1890
   50MOL   C34221020   3.687   3.579   4.897 -0.7505 -0.5919  0.8340
   50MOL   C34321021   3.543   3.634   4.916 -0.2480  0.1420  0.1120
   50MOL   C34421022   3.503   3.642   5.066  0.1280 -0.2119  0.1887
   50MOL   H34521023   3.987   3.719   4.599  0.5502 -2.8281  2.1715
   50MOL   H34621024   4.010   3.654   4.443 -1.0579 -0.9496 -1.6537
   50MOL   H34721025   3.818   3.483   4.511 -0.3474  2.0549 -0.8880
   50MOL   H34821026   3.862   3.410   4.748 -2.8388 -0.2806 -0.1805
   50MOL   H34921027   3.948   3.550   4.783  0.0350  1.6557 -1.4839
   50MOL   H35021028   3.662   3.545   4.695  0.7218  0.4961 -1.6996
   50MOL   H35121029   3.749   3.694   4.732 -0.8608 -0.1880 -1.0532
   50MOL   H35221030   3.696   3.474   4.926 -0.5828 -1.5933 -2.6898
   50MOL   H35321031   3.756   3.629   4.965 -0.6410  1.9978 -1.0865
   50MOL   H35421032   3.552   3.737   4.883  2.9004 -0.2879 -0.5891
   50MOL   H35521033   3.466   3.575   4.867  1.8612 -1.6688 -1.1248
   50MOL   H35621034   3.466   3.549   5.109  0.0828  0.3710  1.4261
   50MOL   H35721035   3.443   3.731   5.079 -0.0767 -0.4715  1.0928
   50MOL   H35821036   3.590   3.668   5.126 -1.3664 -0.2709  2.4647
   50MOL   C35921037   4.008   3.427   4.537  0.0814 -0.3350 -0.5609
   50MOL   C36021038   4.150   3.449   4.606 -0.1900  0.1464  0.5389
   50MOL   C36121039   4.161   3.351   4.728 -0.0179 -0.4423  0.1578
   50MOL   C36221040   4.270   3.380   4.825 -0.1544  0.6868  0.0956
   50MOL   C36321041   4.233   3.500   4.919  0.6360 -0.2162  0.4935
   50MOL   C36421042   4.122   3.468   5.021 -0.2723 -0.0707  0.0138
   50MOL   C36521043   4.100   3.579   5.129  0.1582 -0.1678  0.4112
   50MOL   H36621044   4.034   3.440   4.432 -1.8644  0.9254 -0.9257
   50MOL   H36721045   3.979   3.327   4.569 -0.1461  0.1631  0.8725
   50MOL   H36821046   4.162   3.549   4.650  0.2615  0.4759 -0.3183
   50MOL   H36921047   4.067   3.349   4.782 -0.4502  0.5258 -0.5409
   50MOL   H37021048   4.181   3.251   4.691  2.2068 -0.9375  2.5108
   50MOL   H37121049   4.286   3.289   4.882 -3.2769 -0.2771 -0.4748
   50MOL   H37221050   4.364   3.405   4.775  0.1940 -1.6040 -0.4588
   50MOL   H37321051   4.324   3.530   4.971 -0.1471  0.7222  1.3490
   50MOL   H37421052   4.213   3.588   4.857  0.1765 -0.0580  0.8592
   50MOL   H37521053   4.032   3.439   4.967 -0.3195  1.2227 -0.6277
   50MOL   H37621054   4.146   3.376   5.075 -0.0555 -2.1922 -3.5248
   50MOL   H37721055   4.030   3.658   5.100  0.4150  0.4052  1.3240
   50MOL   H37821056   4.038   3.528   5.202  1.1641  0.3643  1.6678
   50MOL   H37921057   4.196   3.609   5.171  1.7122 -0.8874 -2.4631
   50MOL   C38021058   4.263   3.427   4.506 -0.1856  0.5001 -0.6376
   50MOL   C38121059   4.319   3.551   4.442  0.2587  0.1283 -0.5160
   50MOL   C38221060   4.417   3.619   4.533 -0.3919  0.1222  0.7693
   50MOL   C38321061   4.450   3.765   4.497 -0.5542  0.7475 -0.2331
   50MOL   C38421062   4.590   3.818   4.543  0.0079  0.9958  0.1499
   50MOL   C38521063   4.663   3.914   4.450 -0.4006  0.0133 -0.0970
   50MOL   C38621064   4.800   3.976   4.505  0.6555 -0.3186  0.3400
   50MOL   H38721065   4.342   3.367   4.551 -0.1547 -1.0670 -2.7259
   50MOL   H38821066   4.227   3.365   4.424  0.8163  0.0987 -0.7771
   50MOL   H38921067   4.234   3.619   4.436 -0.4087 -0.4298  2.0817
   50MOL   H39021068   4.501   3.552   4.517 -1.1911 -0.6706 -0.1988
   50MOL   H39121069   4.387   3.608   4.638 -1.5947 -2.6537  0.1905
   50MOL   H39221070   4.457   3.770   4.388 -1.6125 -3.3908 -0.5834
   50MOL   H39321071   4.372   3.833   4.531  1.0577  1.9210  1.2000
   50MOL   H39421072   4.584   3.859   4.644 -0.2902 -4.0237  2.3725
   50MOL   H39521073   4.656   3.731   4.553  0.1481  1.0159 -0.5745
   50MOL   H39621074   4.600   3.998   4.420 -0.5635 -0.7641 -2.0035
   50MOL   H39721075   4.685   3.857   4.359  2.2103  0.2411  0.3566
   50MOL   H39821076   4.870   3.893   4.509  0.2291 -0.6775  0.5391
   50MOL   H39921077   4.792   4.022   4.603  2.7849 -0.4360  0.5865
   50MOL   H40021078   4.842   4.060   4.450 -0.1360  1.3476  2.2168
   50MOL   C40121079   4.367   3.537   4.297 -0.2168  0.2539  0.9090
   50MOL   C40221080   4.255   3.533   4.199 -0.3705  0.3859 -0.1836
   50MOL   C40321081   4.299   3.481   4.060  0.2882  0.0334 -0.6501
   50MOL   C40421082   4.181   3.494   3.962  0.1328 -0.0879 -0.2259
   50MOL   C40521083   4.212   3.450   3.821 -0.4016 -0.1706 -0.3501
   50MOL   C40621084   4.095   3.495   3.729  0.4211  0.1850  0.2777
   50MOL   C40721085   4.109   3.641   3.673  0.3678  0.2629  0.6559
   50MOL   H40821086   4.440   3.458   4.282 -0.3748 -0.0576  1.7577
   50MOL   H40921087   4.427   3.621   4.261  0.4556 -0.2795  0.7868
   50MOL   H41021088   4.225   3.635   4.175 -0.1716  0.6746  0.7754
   50MOL   H41121089   4.326   3.376   4.071  1.0315 -0.1763 -3.9342
   50MOL   H41221090   4.394   3.524   4.030  0.3500 -0.5595 -1.3227
   50MOL   H41321091   4.144   3.596   3.956 -0.0194  0.0163  1.9031
   50MOL   H41421092   4.094   3.439   3.999 -0.0652 -0.3756 -1.1048
   50MOL   H41521093   4.305   3.482   3.774 -0.1700 -1.0242 -0.4879
   50MOL   H41621094   4.214   3.341   3.821 -0.0617 -0.1692  1.0663
   50MOL   H41721095   4.107   3.418   3.652 -0.1930 -0.4201  0.7816
   50MOL   H41821096   4.002   3.468   3.779  1.2520 -0.9091  1.2465
   50MOL   H41921097   4.025   3.677   3.613  1.2653 -0.3519 -1.0167
   50MOL   H42021098   4.197   3.654   3.611  1.3834 -2.6796  1.3855
   50MOL   H42121099   4.116   3.712   3.755 -1.9721  1.5516 -0.2227
   50MOL   H42221100   4.170   3.473   4.234  0.1186 -1.1172 -1.5538
   51MOL     C121101   2.320   1.809   7.566 -0.0565  0.2283 -0.2156
   51MOL     C221102   2.170   1.846   7.531 -0.1160 -0.4218 -0.5425
   51MOL     C321103   2.095   1.872   7.657  0.4706  0.1801 -0.7819
   51MOL     C421104   2.125   2.002   0.024 -0.3462 -0.2645  0.1783
   51MOL     C521105   2.012   2.049   0.118 -0.4147 -0.4858  0.1490
   51MOL     C621106   2.051   2.168   0.207 -0.0478 -0.4347  0.1458
   51MOL     C721107   1.958   2.182   0.326 -0.3524 -0.3377 -0.0419
   51MOL     H821108   2.314   1.720   7.628 -2.1120  0.5244  0.0607
   51MOL     H921109   2.370   1.888   7.621  0.5176 -0.4403  0.2287
   51MOL    H1021110   2.165   1.932   7.465  1.9730 -1.4425 -2.0992
   51MOL    H1121111   1.990   1.873   7.629  0.1521 -0.4729  0.3571
   51MOL    H1221112   2.119   1.784   0.003  1.4065  0.2036 -1.1170
   51MOL    H1321113   2.209   1.985   0.092 -0.9644  0.3570  1.1066
   51MOL    H1421114   2.145   2.086   7.671 -0.5565 -2.0134 -2.1609
   51MOL    H1521115   1.986   1.972   0.192 -1.1283  0.8442  1.3037
   51MOL    H1621116   1.934   2.077   0.049  0.9485 -0.8421 -1.5720
   51MOL    H1721117   2.047   2.258   0.145 -0.6310 -1.5628 -1.4935
   51MOL    H1821118   2.153   2.166   0.245 -0.2136  0.3649  0.6460
   51MOL    H1921119   1.854   2.182   0.293 -0.0283  0.3030 -1.0909
   51MOL    H2021120   1.982   2.277   0.374  1.6423 -0.8154 -0.0461
   51MOL    H2121121   1.964   2.103   0.401 -0.1587 -0.6016 -0.3357
   51MOL    H2221122   2.376   1.789   7.475 -0.9635  0.1230 -0.7654
   51MOL    C2321123   2.094   1.742   7.448  0.5733 -0.7963 -0.3001
   51MOL    C2421124   2.156   1.702   7.315  1.1772  0.4992 -0.1950
   51MOL    C2521125   2.173   1.834   7.230 -0.0817  0.8000  0.7639
   51MOL    C2621126   2.044   1.918   7.207  0.0113  0.1235 -0.6940
   51MOL    C2721127   2.070   2.015   7.086 -0.6752 -0.0005  0.4042
   51MOL    C2821128   1.942   2.083   7.038  0.2814  0.1234  0.2542
   51MOL    C2921129   1.873   2.162   7.153  0.2091  0.0064  0.2552
   51MOL    H3021130   2.087   1.649   7.503 -0.5768 -0.7200 -0.3134
   51MOL    H3121131   1.994   1.781   7.429  1.2306  0.6438 -0.9313
   51MOL    H3221132   2.254   1.662   7.337  0.6498 -0.3873  0.6028
   51MOL    H3321133   2.200   1.796   7.131 -3.2507 -1.2702  0.6019
   51MOL    H3421134   2.258   1.887   7.273  0.5977 -0.9660  1.6629
   51MOL    H3521135   2.025   1.981   7.294 -0.6359  2.2384 -2.3247
   51MOL    H3621136   1.956   1.866   7.170 -1.1825  2.0043 -0.5777
   51MOL    H3721137   2.110   1.962   6.999 -0.5760  0.9075 -0.1141
   51MOL    H3821138   2.147   2.084   7.119  0.0022 -0.2020 -0.7189
   51MOL    H3921139   1.876   2.016   6.983  0.5230 -0.3041  0.4837
   51MOL    H4021140   1.983   2.146   6.958 -1.4925  2.6668  1.2869
   51MOL    H4121141   1.811   2.102   7.220 -0.6248 -1.0066 -1.3922
   51MOL    H4221142   1.944   2.220   7.212  0.4040 -0.3271  0.3517
   51MOL    H4321143   1.812   2.242   7.111  3.2389  0.2456 -4.0292
   51MOL    C4421144   2.083   1.589   7.250 -0.5483 -0.1774  0.1147
   51MOL    C4521145   2.155   1.517   7.144 -0.4586 -0.1436  0.1758
   51MOL    C4621146   2.267   1.431   7.205  0.1076 -0.2683 -0.0427
   51MOL    C4721147   2.392   1.388   7.115  0.2241  0.6037  0.3886
   51MOL    C4821148   2.481   1.279   7.174  0.0551  0.0460 -0.4682
   51MOL    C4921149   2.624   1.277   7.135 -0.1505  0.0468 -0.3799
   51MOL    C5021150   2.698   1.168   7.212  0.5474 -0.5515 -0.7527
   51MOL    H5121151   1.999   1.641   7.203  0.4945  0.9446 -0.5161
   51MOL    H5221152   2.029   1.522   7.317 -2.0536 -0.4855 -1.3485
   51MOL    H5321153   2.193   1.593   7.076  2.0469 -0.4672  1.1452
   51MOL    H5421154   2.231   1.340   7.254  1.2745 -0.0059  1.3354
   51MOL    H5521155   2.310   1.481   7.291  0.4926 -0.1540 -0.3027
   51MOL    H5621156   2.363   1.376   7.011 -0.2980  1.6573  0.4103
   51MOL    H5721157   2.457   1.475   7.107  1.0664  0.0261  0.8335
   51MOL    H5821158   2.431   1.183   7.165 -2.0867  1.2589 -2.1331
   51MOL    H5921159   2.485   1.288   7.282 -1.4512  1.2304 -0.4994
   51MOL    H6021160   2.659   1.377   7.159 -0.7933  0.3603 -0.7319
   51MOL    H6121161   2.637   1.261   7.028 -1.4606  1.2071 -0.7259
   51MOL    H6221162   2.653   1.069   7.219 -0.3490  0.0319  2.3173
   51MOL    H6321163   2.698   1.194   7.317 -0.9642 -1.1538 -0.5936
   51MOL    H6421164   2.799   1.169   7.171  1.1354 -1.0895  0.6629
   51MOL    C6521165   2.062   1.427   7.062 -0.4556 -0.7633 -0.0390
   51MOL    C6621166   1.961   1.501   6.961 -0.1026  0.0121 -0.2092
   51MOL    C6721167   1.823   1.445   6.969 -0.4672  0.2992  0.2386
   51MOL    C6821168   1.755   1.469   7.108  0.0336 -0.2631 -0.2667
   51MOL    C6921169   1.715   1.614   7.135 -0.3056  0.0006 -0.1396
   51MOL    C7021170   1.702   1.646   7.282  0.2903 -0.4021 -0.4680
   51MOL    C7121171   1.654   1.790   7.311 -0.1950  0.4365 -0.1682
   51MOL    H7221172   2.128   1.359   7.009  0.1871  1.2974 -1.9633
   51MOL    H7321173   2.011   1.353   7.125  1.1130 -2.4100 -0.6729
   51MOL    H7421174   1.956   1.607   6.986 -1.4965 -0.0132 -0.3151
   51MOL    H7521175   1.757   1.483   6.892 -0.4203 -1.6583 -0.8030
   51MOL    H7621176   1.817   1.337   6.957 -1.1948  0.4334 -0.5810
   51MOL    H7721177   1.665   1.409   7.114  0.2747 -0.6561 -0.5153
   51MOL    H7821178   1.814   1.431   7.191  2.2440  2.3634 -0.5478
   51MOL    H7921179   1.788   1.682   7.091 -0.4180  0.1732 -0.0585
   51MOL    H8021180   1.624   1.643   7.082 -0.3930  1.1810  0.6437
   51MOL    H8121181   1.799   1.630   7.329  0.2729  1.1048  0.1050
   51MOL    H8221182   1.639   1.568   7.325 -1.5738  1.7573  0.8519
   51MOL    H8321183   1.727   1.870   7.305  0.2241  0.2520  2.0626
   51MOL    H8421184   1.581   1.814   7.234  1.0615  1.0490 -1.1703
   51MOL    H8521185   1.601   1.789   7.407  0.5122 -0.2197  0.2188
   51MOL    C8621186   2.022   1.507   6.818  0.0977  0.5699  0.2375
   51MOL    C8721187   1.954   1.620   6.730  0.4290  0.1243  0.5169
   51MOL    C8821188   2.019   1.751   6.762 -0.0303 -0.4494  0.4167
   51MOL    C8921189   1.974   1.869   6.671 -0.6373 -0.4554 -0.1667
   51MOL    C9021190   1.834   1.905   6.660  0.6026  0.4440  0.6323
   51MOL    C9121191   1.811   2.016   6.547 -0.3448 -0.1974 -0.7402
   51MOL    C9221192   1.663   2.046   6.527  0.1897  1.0572  0.4045
   51MOL    H9321193   2.124   1.542   6.824  0.0597  0.6820  0.2219
   51MOL    H9421194   2.025   1.413   6.763  0.7803 -0.3694  1.8507
   51MOL    H9521195   1.852   1.629   6.766 -0.4882 -2.1418 -1.3825
   51MOL    H9621196   1.994   1.770   6.866 -2.1457 -1.1214  0.0538
   51MOL    H9721197   2.127   1.741   6.753  0.2843  2.5724  0.2275
   51MOL    H9821198   2.018   1.961   6.707 -0.3658 -0.4070 -0.6132
   51MOL    H9921199   2.006   1.863   6.567  1.3079  1.5974  0.2855
   51MOL   H10021200   1.794   1.932   6.758 -2.0633 -1.8003  0.1972
   51MOL   H10121201   1.773   1.820   6.630 -0.2181  1.0325  0.6387
   51MOL   H10221202   1.861   2.109   6.574  1.9553 -2.1080  1.8511
   51MOL   H10321203   1.852   1.972   6.457  1.2632 -0.6986  0.2191
   51MOL   H10421204   1.626   2.090   6.619 -0.4980  0.1362  0.5808
   51MOL   H10521205   1.596   1.965   6.496  1.6787  0.8223 -2.4514
   51MOL   H10621206   1.655   2.124   6.452 -3.0624 -0.5457 -1.0309
   51MOL   C10721207   1.967   1.582   6.577 -0.3915 -0.6666 -0.3026
   51MOL   C10821208   1.886   1.467   6.525 -0.4367 -0.8904  0.2319
   51MOL   C10921209   1.734   1.495   6.542 -0.1526 -0.0921 -0.5903
   51MOL   C11021210   1.642   1.375   6.555  0.1882 -0.3401 -0.0223
   51MOL   C11121211   1.496   1.418   6.576  0.3937 -0.4699 -0.3244
   51MOL   C11221212   1.392   1.312   6.579  0.3865 -0.1977  0.3619
   51MOL   C11321213   1.256   1.351   6.634 -0.7173  0.5157 -0.0949
   51MOL   H11421214   2.073   1.558   6.567  0.1626  1.3199  0.5314
   51MOL   H11521215   1.947   1.670   6.516  1.3975 -0.4847 -0.6733
   51MOL   H11621216   1.910   1.385   6.592  3.1103  0.9259  1.3192
   51MOL   H11721217   1.701   1.540   6.448 -0.9689 -1.8402 -1.1504
   51MOL   H11821218   1.707   1.555   6.628 -0.4989 -3.2922  1.5894
   51MOL   H11921219   1.644   1.311   6.467 -1.8672  1.3227 -1.3439
   51MOL   H12021220   1.672   1.310   6.637 -1.4030 -1.7376 -0.5177
   51MOL   H12121221   1.478   1.499   6.507 -1.4835  0.0868  0.7981
   51MOL   H12221222   1.500   1.464   6.675  1.8594 -0.5231 -0.3467
   51MOL   H12321223   1.380   1.260   6.484 -0.1654  0.4031  0.1026
   51MOL   H12421224   1.434   1.236   6.645  1.7801  0.2560  0.0284
   51MOL   H12521225   1.182   1.273   6.615  0.1761 -0.1138 -1.0038
   51MOL   H12621226   1.267   1.354   6.743  0.3899 -1.3237 -0.1454
   51MOL   H12721227   1.208   1.441   6.595 -0.9397  0.2674 -0.3977
   51MOL   C12821228   1.912   1.454   6.370 -0.1603 -0.3943 -0.1707
   51MOL   C12921229   2.032   1.378   6.329  0.2348 -0.4712 -0.0364
   51MOL   C13021230   2.043   1.396   6.174 -0.4981  0.5408  0.6911
   51MOL   C13121231   2.177   1.353   6.107  0.0100 -0.3758 -0.1743
   51MOL   C13221232   2.204   1.437   5.975  0.0098  0.6580  0.0856
   51MOL   C13321233   2.334   1.392   5.911 -0.2506  0.1468  0.1857
   51MOL   C13421234   2.357   1.452   5.777  0.1143 -0.0325  1.1361
   51MOL   H13521235   1.822   1.405   6.336 -2.0223  1.9232  1.2077
   51MOL   H13621236   1.912   1.553   6.323 -2.9975 -0.5823 -0.6121
   51MOL   H13721237   2.122   1.417   6.376  0.2644 -0.4481 -0.1107
   51MOL   H13821238   2.024   1.498   6.138 -0.4323 -0.2291 -1.6034
   51MOL   H13921239   1.970   1.346   6.110  1.6135 -1.6532 -0.0399
   51MOL   H14021240   2.173   1.245   6.092 -2.0243 -0.3387 -0.0017
   51MOL   H14121241   2.257   1.364   6.180 -1.1391  2.9639  0.6721
   51MOL   H14221242   2.209   1.541   6.006 -0.6929  0.9640 -0.8245
   51MOL   H14321243   2.122   1.425   5.905  0.9004 -0.4495 -0.7827
   51MOL   H14421244   2.339   1.283   5.916 -1.4278  0.0828 -0.0069
   51MOL   H14521245   2.417   1.421   5.976 -0.6225 -0.4717  0.9479
   51MOL   H14621246   2.266   1.430   5.720  0.6172 -1.2866  0.7870
   51MOL   H14721247   2.442   1.398   5.737  1.6612  0.6788  3.3440
   51MOL   H14821248   2.379   1.558   5.790  1.8400 -0.1980 -0.3491
   51MOL   C14921249   2.020   1.226   6.364 -0.3531  0.0509  0.1934
   51MOL   C15021250   2.163   1.168   6.409 -0.1701 -0.6126  0.4726
   51MOL   C15121251   2.167   1.017   6.381  0.1282 -0.0054  0.0675
   51MOL   C15221252   2.174   0.970   6.233  0.4447 -0.1165 -0.1185
   51MOL   C15321253   2.303   0.993   6.171 -0.3334 -0.1374 -0.0295
   51MOL   C15421254   2.328   0.916   6.041 -0.1642 -0.8350 -0.7265
   51MOL   C15521255   2.464   0.939   5.982  0.2103  0.0838 -0.2683
   51MOL   H15621256   1.953   1.218   6.450  0.8631  1.8416  1.3341
   51MOL   H15721257   1.983   1.175   6.275  2.5096  1.1686 -1.6950
   51MOL   H15821258   2.244   1.217   6.354 -0.0129  0.6711  1.8120
   51MOL   H15921259   2.261   0.976   6.419 -0.0837 -0.3550  0.2098
   51MOL   H16021260   2.090   0.963   6.435  1.2757 -0.9666  0.7595
   51MOL   H16121261   2.091   1.011   6.175  0.4270  0.6428  0.4363
   51MOL   H16221262   2.161   0.862   6.230  0.0826 -0.0532 -1.8456
   51MOL   H16321263   2.383   0.961   6.238 -1.9563 -2.3202  0.8905
   51MOL   H16421264   2.329   1.099   6.169 -0.8926 -0.0264 -1.5420
   51MOL   H16521265   2.245   0.953   5.980 -0.3401 -1.7774 -1.0726
   51MOL   H16621266   2.315   0.808   6.048  0.1760 -0.9032 -1.1250
   51MOL   H16721267   2.468   1.046   5.964  0.5770  0.0666 -0.2921
   51MOL   H16821268   2.482   0.894   5.884  1.3981  2.7597 -1.3379
   51MOL   H16921269   2.552   0.936   6.045  1.4356  1.1836 -1.8885
   51MOL   C17021270   2.183   1.193   6.563 -0.1315  0.2789  0.1127
   51MOL   C17121271   2.318   1.148   6.625 -0.5012  0.1032 -0.2753
   51MOL   C17221272   2.436   1.234   6.576  0.1493 -0.4977  0.9522
   51MOL   C17321273   2.569   1.162   6.588 -0.2763 -0.2112  0.3470
   51MOL   C17421274   2.586   1.042   6.500 -0.1479 -0.3846  0.6353
   51MOL   C17521275   2.740   0.999   6.504 -0.0989 -0.4724  0.5804
   51MOL   C17621276   2.766   0.883   6.412  0.0149 -0.8748  0.2274
   51MOL   H17721277   2.102   1.147   6.619 -0.9965 -0.8874 -2.0466
   51MOL   H17821278   2.179   1.298   6.592 -0.0738  0.6571 -1.2308
   51MOL   H17921279   2.330   1.048   6.584  2.0789  0.7637 -1.2408
   51MOL   H18021280   2.438   1.331   6.626  1.0693 -0.1749  0.3007
   51MOL   H18121281   2.419   1.255   6.470  0.7352  2.2317  1.3709
   51MOL   H18221282   2.585   1.137   6.693 -0.4072 -0.1834  0.3747
   51MOL   H18321283   2.652   1.229   6.567  3.5952 -4.4979  1.1019
   51MOL   H18421284   2.551   1.050   6.397 -2.2391 -1.1714  1.2437
   51MOL   H18521285   2.530   0.966   6.554 -0.8964  1.7659  2.9701
   51MOL   H18621286   2.758   0.974   6.608  1.8021 -0.2927  0.3103
   51MOL   H18721287   2.809   1.078   6.476 -0.2170 -0.7614 -0.5438
   51MOL   H18821288   2.873   0.864   6.422 -0.1773 -1.9774  0.2207
   51MOL   H18921289   2.731   0.896   6.310 -0.8060 -1.0624  0.4792
   51MOL   H19021290   2.723   0.793   6.455  3.6756 -2.1111  1.5020
   51MOL   C19121291   2.316   1.133   6.776 -0.5109  0.6863 -0.2980
   51MOL   C19221292   2.237   1.021   6.844 -0.3840 -0.0836  0.0463
   51MOL   C19321293   2.285   0.882   6.804  0.3526 -0.4858  0.3794
   51MOL   C19421294   2.185   0.799   6.714 -1.0451  0.6311 -0.0006
   51MOL   C19521295   2.250   0.662   6.668 -1.4208 -0.1078  0.2706
   51MOL   C19621296   2.349   0.679   6.552 -0.0748  0.3577  1.2334
   51MOL   C19721297   2.395   0.549   6.492  0.3311  0.4391 -0.3972
   51MOL   H19821298   2.271   1.227   6.805  3.9274  2.2055  2.1627
   51MOL   H19921299   2.416   1.122   6.819 -0.4661 -1.3965 -0.8718
   51MOL   H20021300   2.138   1.031   6.799 -0.3475 -1.5065 -0.3786
   51MOL   H20121301   2.294   0.818   6.892 -1.1542 -2.2420 -0.6987
   51MOL   H20221302   2.381   0.889   6.753  1.4760  2.9058  2.8024
   51MOL   H20321303   2.151   0.848   6.622  1.3667 -0.9438 -1.7756
   51MOL   H20421304   2.091   0.783   6.767 -0.5728 -1.3294  0.2796
   51MOL   H20521305   2.289   0.607   6.754  0.6228 -0.5726 -0.9189
   51MOL   H20621306   2.171   0.595   6.633 -0.8817 -0.2587 -0.6581
   51MOL   H20721307   2.424   0.738   6.605  1.7436 -0.5041 -0.3392
   51MOL   H20821308   2.299   0.741   6.478 -0.3036  0.8267  1.7671
   51MOL   H20921309   2.476   0.581   6.426  0.7638  2.7092  1.1826
   51MOL   H21021310   2.316   0.516   6.424 -0.6199 -0.7111  1.2496
   51MOL   H21121311   2.426   0.478   6.568 -1.0813 -1.7733 -1.8507
   51MOL   C21221312   2.242   1.043   6.994 -0.3566 -0.1965 -1.0520
   51MOL   C21321313   2.137   0.960   7.071  0.4281  0.1345  0.4561
   51MOL   C21421314   2.193   0.900   7.209  0.3669 -0.9717  0.4337
   51MOL   C21521315   2.315   0.812   7.182 -0.9891 -0.4090 -0.1049
   51MOL   C21621316   2.347   0.758   7.325 -0.6422  0.5805 -0.3947
   51MOL   C21721317   2.445   0.641   7.318 -0.3590 -0.0743 -0.1054
   51MOL   C21821318   2.593   0.671   7.364  0.7443  0.7409 -0.4854
   51MOL   H21921319   2.245   1.148   7.023  0.0298 -0.9114  1.7061
   51MOL   H22021320   2.346   1.017   7.010  0.1808  1.5154 -1.6769
   51MOL   H22121321   2.118   0.879   7.001  1.3127  0.2670  0.0536
   51MOL   H22221322   2.210   0.993   7.263 -0.2740 -0.8720  0.4702
   51MOL   H22321323   2.111   0.849   7.258 -0.4149 -1.5978 -1.4757
   51MOL   H22421324   2.396   0.872   7.140  0.2407 -1.4706  0.7164
   51MOL   H22521325   2.294   0.732   7.111  0.6287 -2.3554  1.5828
   51MOL   H22621326   2.378   0.834   7.396 -0.5585 -0.0296  0.2233
   51MOL   H22721327   2.258   0.709   7.365 -0.4091 -0.8673 -1.5816
   51MOL   H22821328   2.418   0.557   7.381 -2.2752  0.2035 -0.5454
   51MOL   H22921329   2.451   0.600   7.217  0.8549 -0.4424  0.0973
   51MOL   H23021330   2.644   0.577   7.385  0.6686  0.7219 -0.3887
   51MOL   H23121331   2.605   0.718   7.462  1.3110 -0.8593  0.2411
   51MOL   H23221332   2.643   0.731   7.288  1.3695  0.0557 -0.6232
   51MOL   C23321333   1.996   1.031   7.094 -0.1760  0.3702 -0.1415
   51MOL   C23421334   1.874   0.953   7.160 -0.1166  0.0363 -0.0703
   51MOL   C23521335   1.741   1.029   7.138  0.5121 -0.0093 -0.6717
   51MOL   C23621336   1.668   0.996   7.009  0.4282  0.0137  0.3319
   51MOL   C23721337   1.582   1.110   6.952  0.8505  0.2369  0.6034
   51MOL   C23821338   1.471   1.151   7.050 -0.4192  0.2124 -0.3849
   51MOL   C23921339   1.366   1.254   7.004 -0.2540  0.0704 -0.1550
   51MOL   H24021340   1.960   1.071   6.999 -1.8492 -0.9120 -0.0644
   51MOL   H24121341   1.993   1.114   7.164  0.4984  0.2710  0.0114
   51MOL   H24221342   1.905   0.965   7.264  0.0183 -1.9091  0.1398
   51MOL   H24321343   1.751   1.137   7.151 -2.7188  0.0105  2.6805
   51MOL   H24421344   1.675   0.994   7.217 -0.8547  1.5145 -1.1209
   51MOL   H24521345   1.614   0.904   7.029  0.4056 -0.0003  0.2119
   51MOL   H24621346   1.738   0.965   6.931  0.6614 -2.8215  1.6238
   51MOL   H24721347   1.532   1.069   6.864  0.7937  3.1965 -0.8303
   51MOL   H24821348   1.639   1.193   6.908  1.6507 -0.6504 -0.0544
   51MOL   H24921349   1.414   1.065   7.083  0.4445 -0.7429 -1.3701
   51MOL   H25021350   1.530   1.198   7.129  1.4802 -0.6864 -1.2219
   51MOL   H25121351   1.408   1.346   6.964  0.1429 -0.8499 -1.9212
   51MOL   H25221352   1.303   1.211   6.926 -0.7459  0.0414  0.2552
   51MOL   H25321353   1.305   1.279   7.090  0.6869  0.8370  0.2915
   51MOL   C25421354   1.858   0.800   7.130 -0.1381 -0.3766 -0.1156
   51MOL   C25521355   1.756   0.718   7.220  0.3577 -0.1973  0.1155
   51MOL   C25621356   1.807   0.723   7.369 -0.6980 -0.2912 -0.4488
   51MOL   C25721357   1.936   0.648   7.402  0.0324 -0.3008  0.3099
   51MOL   C25821358   1.998   0.685   7.544  0.0283  0.9486 -0.0364
   51MOL   C25921359   2.017   0.835   7.574 -0.8427  0.9145 -0.2118
   51MOL   C26021360   2.101   0.848   7.694  0.6284 -0.3076 -0.8536
   51MOL   H26121361   1.955   0.750   7.129  1.2906  2.2471  1.5182
   51MOL   H26221362   1.821   0.785   7.028 -0.0804 -2.6315  0.1563
   51MOL   H26321363   1.660   0.769   7.213  0.4857  0.2406  1.3811
   51MOL   H26421364   1.736   0.668   7.429 -2.7576  4.3113  1.5535
   51MOL   H26521365   1.800   0.825   7.405 -0.9323 -0.0837 -1.0829
   51MOL   H26621366   1.912   0.542   7.395 -1.1207  0.0717 -1.6403
   51MOL   H26721367   2.006   0.681   7.325 -0.9466  1.1175  0.0032
   51MOL   H26821368   2.096   0.637   7.543 -0.5093 -0.1487 -0.6746
   51MOL   H26921369   1.938   0.625   7.613  2.5666 -1.2703  0.3165
   51MOL   H27021370   2.074   0.882   7.493  1.0716  0.8042  1.0499
   51MOL   H27121371   1.922   0.889   7.574 -0.0074  2.4864 -2.8409
   51MOL   H27221372   2.150   0.945   7.702 -0.3438  0.2387 -1.2978
   51MOL   H27321373   2.035   0.827   0.065 -0.8254  2.3451 -1.2581
   51MOL   H27421374   2.182   0.775   7.701  0.7861  0.0313  0.9849
   51MOL   C27521375   1.729   0.584   7.161  0.4917  0.7113  0.3217
   51MOL   C27621376   1.631   0.587   7.042  0.5943 -0.6114  0.9233
   51MOL   C27721377   1.485   0.579   7.085  0.2362 -0.3440 -0.2441
   51MOL   C27821378   1.424   0.441   7.117 -0.7250  0.4454  0.4142
   51MOL   C27921379   1.277   0.454   7.141  0.2969 -0.5412 -0.5746
   51MOL   C28021380   1.221   0.317   7.178 -0.0595  0.3049  0.2019
   51MOL   C28121381   1.069   0.325   7.206  0.6606  0.3794 -0.3308
   51MOL   H28221382   1.704   0.516   7.243 -0.6710 -0.0336 -0.6428
   51MOL   H28321383   1.817   0.536   7.120 -0.6364 -1.5482  0.4812
   51MOL   H28421384   1.641   0.684   6.992  1.0127 -1.5585 -0.8955
   51MOL   H28521385   1.455   0.654   7.159 -0.3895  0.4310 -1.2701
   51MOL   H28621386   1.436   0.610   6.993  0.7623  1.8503  0.1970
   51MOL   H28721387   1.481   0.396   7.199  0.2522  1.0716  0.0789
   51MOL   H28821388   1.449   0.377   7.032  1.6700  1.1282  0.5772
   51MOL   H28921389   1.224   0.474   7.048  0.5933 -1.5217 -0.9559
   51MOL   H29021390   1.260   0.529   7.219 -0.1943  0.0798 -1.2762
   51MOL   H29121391   1.241   0.233   7.112 -2.3530 -0.2631  0.2022
   51MOL   H29221392   1.270   0.288   7.272  0.1298  1.5664  0.5025
   51MOL   H29321393   1.040   0.401   7.279 -2.9123 -0.4930 -0.7392
   51MOL   H29421394   1.027   0.229   7.236 -0.8495  1.9896  2.9591
   51MOL   H29521395   1.021   0.354   7.113  0.4819  0.5468 -0.1867
   51MOL   C29621396   1.658   0.474   6.942 -0.0468 -0.5422 -0.0810
   51MOL   C29721397   1.765   0.502   6.843 -0.0157  0.1109  0.2956
   51MOL   C29821398   1.699   0.577   6.731 -0.0340 -0.1465 -0.2935
   51MOL   C29921399   1.788   0.668   6.650  0.3500  0.0685  0.3184
   51MOL   C30021400   1.711   0.744   6.538 -0.2188 -0.0342 -0.4038
   51MOL   C30121401   1.637   0.869   6.590  0.1772 -0.0677  0.1543
   51MOL   C30221402   1.725   0.988   6.627  0.2268 -0.3842  0.0834
   51MOL   H30321403   1.690   0.384   6.996 -0.4716 -0.9017 -0.4162
   51MOL   H30421404   1.569   0.434   6.893  1.5094  0.5649 -3.9165
   51MOL   H30521405   1.825   0.580   6.889 -1.6436  1.1928  0.6219
   51MOL   H30621406   1.658   0.501   6.665  1.5162 -0.2958 -1.1249
   51MOL   H30721407   1.617   0.635   6.773  0.2901  0.0480  0.0663
   51MOL   H30821408   1.864   0.614   6.593  0.8015  0.3110  0.6944
   51MOL   H30921409   1.832   0.738   6.720 -0.2389  1.4263 -0.6373
   51MOL   H31021410   1.642   0.677   6.487 -1.2785  0.8897 -0.1900
   51MOL   H31121411   1.776   0.785   6.460  0.1956 -1.0491 -0.5987
   51MOL   H31221412   1.566   0.902   6.515 -1.5791 -1.5881  1.0839
   51MOL   H31321413   1.582   0.827   6.674  1.9198  1.1576  1.9344
   51MOL   H31421414   1.657   1.071   6.647  0.6373  0.3767 -1.5272
   51MOL   H31521415   1.787   0.957   6.710  0.0091 -0.0069  0.3896
   51MOL   H31621416   1.786   1.026   6.545 -1.1032  2.2179  0.2431
   51MOL   C31721417   1.833   0.372   6.790 -0.5426  0.0027 -0.4264
   51MOL   C31821418   1.933   0.317   6.889 -0.0833 -0.3878 -0.4637
   51MOL   C31921419   1.946   0.166   6.867 -0.0855  0.6701 -0.1245
   51MOL   C32021420   1.987   0.114   6.729  0.2125 -1.1893 -0.0504
   51MOL   C32121421   1.984   7.674   6.734 -0.7146  0.0919 -0.0376
   51MOL   C32221422   2.040   7.611   6.605 -0.4383 -0.2947 -0.0781
   51MOL   C32321423   2.089   7.463   6.609 -0.3453  0.3206  0.0076
   51MOL   H32421424   1.880   0.383   6.693 -0.6784  1.3096 -0.3547
   51MOL   H32521425   1.758   0.298   6.765 -0.5484  0.2060 -1.0142
   51MOL   H32621426   1.904   0.317   6.995  0.8599  0.0860 -0.2030
   51MOL   H32721427   1.849   0.128   6.897  1.3025 -1.8131  1.3300
   51MOL   H32821428   2.008   0.133   6.950 -0.7018 -1.1464 -0.3631
   51MOL   H32921429   2.091   0.145   6.725 -0.9139  2.9428 -0.1799
   51MOL   H33021430   1.920   0.156   6.653  0.6193 -3.6896 -1.8444
   51MOL   H33121431   1.881   7.639   6.746 -2.2659  3.7241 -1.8874
   51MOL   H33221432   2.049   7.634   6.811 -0.4198 -1.9583 -1.3008
   51MOL   H33321433   2.122   7.672   6.567  0.4674 -0.8091  1.0497
   51MOL   H33421434   1.955   7.619   6.536 -1.4553 -1.4167  1.0253
   51MOL   H33521435   2.031   7.397   6.673  1.2605  0.2292  1.3863
   51MOL   H33621436   2.191   7.451   6.644 -0.0731  1.5654 -0.3344
   51MOL   H33721437   2.087   7.424   6.507  0.9227  1.0259 -0.2981
   51MOL   C33821438   2.067   0.393   6.890  0.0029 -0.3383 -0.4632
   51MOL   C33921439   2.154   0.366   7.014  0.4618  0.5121  0.4974
   51MOL   C34021440   2.108   0.446   7.144 -0.0368 -0.7489 -0.5365
   51MOL   C34121441   2.180   0.394   7.275  0.6211  0.5720  0.5447
   51MOL   C34221442   2.144   0.255   7.315  0.0526 -0.5066  0.3520
   51MOL   C34321443   2.176   0.227   7.460 -0.6585  0.7268 -0.1652
   51MOL   C34421444   2.164   0.078   7.503 -0.3935 -0.1785  0.2638
   51MOL   H34521445   2.049   0.500   6.899  3.1240  0.2685 -0.7913
   51MOL   H34621446   2.127   0.363   6.803  1.2110 -0.7484  0.4945
   51MOL   H34721447   2.166   0.259   7.031  3.7811  0.6422 -0.5802
   51MOL   H34821448   2.117   0.553   7.125  0.4475 -0.6714  0.1164
   51MOL   H34921449   2.004   0.439   7.176 -0.2897  2.3481 -0.4962
   51MOL   H35021450   2.145   0.464   7.350  1.4758  1.9078 -0.2909
   51MOL   H35121451   2.288   0.403   7.269  0.5658  1.9515  1.5519
   51MOL   H35221452   2.037   0.241   7.304 -0.1679  2.0303 -1.2721
   51MOL   H35321453   2.191   0.184   7.246  4.0773  0.2029  2.1803
   51MOL   H35421454   2.283   0.245   7.475 -0.3435 -0.3880 -0.9723
   51MOL   H35521455   2.118   0.298   7.519  0.9978  1.0163  1.1552
   51MOL   H35621456   2.058   0.053   7.495  0.0184 -1.6870 -0.7854
   51MOL   H35721457   2.209   0.049   7.597  1.9229 -0.0533 -0.7800
   51MOL   H35821458   2.206   0.014   7.425 -0.3032  0.7842 -0.4934
   51MOL   C35921459   2.299   0.409   6.993  0.4826 -0.6410  0.1848
   51MOL   C36021460   2.382   0.335   6.886 -0.1750 -0.4271 -0.7038
   51MOL   C36121461   2.528   0.380   6.887 -0.2110  0.6007 -0.1731
   51MOL   C36221462   2.558   0.525   6.867 -0.3509  0.0296  0.5731
   51MOL   C36321463   2.701   0.545   6.821  0.0880 -0.7292 -0.6553
   51MOL   C36421464   2.731   0.687   6.778 -0.2247 -0.2204  0.1570
   51MOL   C36521465   2.690   0.794   6.882  0.0313  0.7826 -0.3930
   51MOL   H36621466   2.364   0.403   7.080  1.8000  0.0570 -0.7430
   51MOL   H36721467   2.297   0.515   6.970  1.7074 -0.4403  0.9721
   51MOL   H36821468   2.336   0.372   6.794  0.0461 -1.0332 -1.0606
   51MOL   H36921469   2.570   0.364   6.986 -0.9641 -1.5406 -0.1716
   51MOL   H37021470   2.587   0.314   6.823 -0.9960 -0.9733  0.7037
   51MOL   H37121471   2.499   0.574   6.790 -1.8731 -0.7357  1.2182
   51MOL   H37221472   2.538   0.578   6.960 -1.6588  1.6611 -0.6213
   51MOL   H37321473   2.769   0.515   6.900  1.8583 -1.3614 -2.3868
   51MOL   H37421474   2.739   0.467   6.756  1.6493 -0.5862  0.0862
   51MOL   H37521475   2.839   0.692   6.765 -0.3103 -0.1625 -0.5565
   51MOL   H37621476   2.684   0.710   6.682 -2.1427 -1.0280  0.8741
   51MOL   H37721477   2.730   0.778   6.982 -1.4847  0.6046  0.1947
   51MOL   H37821478   2.704   0.896   6.846  1.4341  0.5134 -0.6307
   51MOL   H37921479   2.582   0.792   6.896  0.1635  0.1207  0.5604
   51MOL   C38021480   2.368   0.182   6.886 -0.6666  0.5675  0.9574
   51MOL   C38121481   2.422   0.103   6.766 -0.3157  0.2262 -0.0569
   51MOL   C38221482   2.374   7.665   6.776 -0.4412 -0.4064  0.4879
   51MOL   C38321483   2.406   7.589   6.907 -0.0806 -0.5305 -0.1029
   51MOL   C38421484   2.312   7.467   6.904 -0.1731 -0.0637  0.1518
   51MOL   C38521485   2.314   7.385   7.033 -0.2715  0.9156  0.1636
   51MOL   C38621486   2.227   7.256   7.033  0.0140  0.1112 -0.5766
   51MOL   H38721487   2.422   0.161   6.978  0.4997  0.1310  0.1821
   51MOL   H38821488   2.262   0.157   6.884 -0.7479  0.8886 -2.1480
   51MOL   H38921489   2.530   0.091   6.776 -0.4916  0.2865  2.0742
   51MOL   H39021490   2.428   7.606   6.702 -0.6113 -0.2194  0.2133
   51MOL   H39121491   2.269   7.664   6.748 -0.5923 -3.7536  1.0045
   51MOL   H39221492   2.510   7.559   6.896 -0.3543 -1.2566 -0.7077
   51MOL   H39321493   2.396   7.646   7.000  0.7977  2.8913 -2.0304
   51MOL   H39421494   2.207   7.496   6.894 -0.6241 -1.7312 -0.0430
   51MOL   H39521495   2.356   7.409   6.824  1.3414 -1.9182  2.2583
   51MOL   H39621496   2.286   7.450   7.115  1.3819 -0.5643  1.9384
   51MOL   H39721497   2.417   7.358   7.058 -0.3899  0.7131  0.4254
   51MOL   H39821498   2.282   7.163   7.017  1.0290  0.6734 -0.4128
   51MOL   H39921499   2.146   7.264   6.961  0.7503 -0.7350 -1.5008
   51MOL   H40021500   2.183   7.259   7.133 -0.6322  2.4411 -0.9047
   51MOL   C40121501   2.395   0.165   6.626  0.1088  0.8125 -0.2509
   51MOL   C40221502   2.420   0.083   6.503  0.2372  0.2535  0.3774
   51MOL   C40321503   2.419   0.162   6.366 -0.6074 -0.4080 -0.6832
   51MOL   C40421504   2.436   0.075   6.240  0.0093 -0.9683 -0.0118
   51MOL   C40521505   2.576   0.032   6.208  0.0598 -0.2023  0.3389
   51MOL   C40621506   2.579   7.624   6.116  1.1750 -0.1964 -1.1713
   51MOL   C40721507   2.531   7.650   5.977  0.3377  0.0002  0.0494
   51MOL   H40821508   2.471   0.243   6.618  0.7354  0.1947 -0.3010
   51MOL   H40921509   2.300   0.219   6.622 -0.9795 -0.9699  0.8238
   51MOL   H41021510   2.347   0.002   6.492 -1.5859  1.5811  2.2671
   51MOL   H41121511   2.500   0.233   6.384 -0.3038 -1.4179  2.1033
   51MOL   H41221512   2.316   0.198   6.367  0.0787  1.6153  0.5896
   51MOL   H41321513   2.391   0.120   6.151 -0.6645  1.1793  1.3623
   51MOL   H41421514   2.363   7.709   6.251 -1.2038  0.2452  0.8900
   51MOL   H41521515   2.620   0.121   6.163  0.5466 -0.2813  0.6525
   51MOL   H41621516   2.634   7.708   6.293 -2.7375 -0.4494  2.1853
   51MOL   H41721517   2.686   7.603   6.117  1.5507  1.5875  0.8836
   51MOL   H41821518   2.515   7.545   6.152  0.3155  1.6265  1.4956
   51MOL   H41921519   2.586   7.708   5.902 -1.7213 -0.8552 -2.1845
   51MOL   H42021520   2.424   7.668   5.966  0.5825  1.7233  0.2390
   51MOL   H42121521   2.531   7.554   5.926 -1.1791 -0.5276  1.0147
   51MOL   H42221522   2.518   0.037   6.508 -0.0973 -0.2960  1.9884
   52MOL     C121523   4.608   4.435   7.252 -0.0064  0.5251  0.0718
   52MOL     C221524   4.630   4.392   7.109 -0.8086  0.4187 -0.3452
   52MOL     C321525   4.768   4.323   7.086  0.0419 -0.1244 -0.0295
   52MOL     C421526   4.895   4.408   7.097 -0.5048  0.7343  0.3726
   52MOL     C521527   5.021   4.317   7.078 -0.4004 -0.2765  0.0479
   52MOL     C621528   5.157   4.390   7.074  0.4744 -0.2195 -0.2468
   52MOL     C721529   5.271   4.299   7.035  0.6108 -0.0962 -0.1014
   52MOL     H821530   4.504   4.462   7.268 -0.9554 -1.4996 -2.2876
   52MOL     H921531   4.670   4.520   7.281 -0.4131  0.3623  1.4530
   52MOL    H1021532   4.555   4.314   7.093 -1.6645  0.9834  0.8883
   52MOL    H1121533   4.775   4.246   7.163 -3.0840 -1.2210 -0.7889
   52MOL    H1221534   4.765   4.263   6.995 -1.5251 -1.2047  0.7125
   52MOL    H1321535   4.895   4.479   7.015 -1.3081  0.4719  0.1354
   52MOL    H1421536   4.881   4.456   7.194  0.4307 -0.2899  1.0222
   52MOL    H1521537   5.001   4.262   6.987 -0.0409  0.9272 -0.7779
   52MOL    H1621538   5.010   4.241   7.155 -1.3292  1.1785  1.4039
   52MOL    H1721539   5.175   4.455   7.160  0.7035 -1.1275  0.4056
   52MOL    H1821540   5.143   4.461   6.993  0.8806 -2.6070 -2.5072
   52MOL    H1921541   5.362   4.357   7.020  1.5337 -2.0209 -2.3335
   52MOL    H2021542   5.258   4.250   6.938  1.3858 -0.1272 -0.1942
   52MOL    H2121543   5.280   4.233   7.122 -1.9994  0.3386  0.5304
   52MOL    H2221544   4.629   4.361   7.329 -1.0362  0.3281  0.1603
   52MOL    C2321545   4.613   4.512   7.009  0.6721  0.3413 -0.1089
   52MOL    C2421546   4.626   4.473   6.855  0.0866 -0.8020 -0.2882
   52MOL    C2521547   4.639   4.606   6.774  0.2077 -0.2275  0.5706
   52MOL    C2621548   4.773   4.677   6.779  0.1066  0.0017  0.3737
   52MOL    C2721549   4.803   4.803   6.686 -0.1042  0.3660 -0.4323
   52MOL    C2821550   4.942   4.854   6.715 -0.3553  0.4851 -0.0919
   52MOL    C2921551   5.027   4.871   6.592 -0.3912 -0.5438 -0.1364
   52MOL    H3021552   4.509   4.541   7.021 -0.7406 -3.5152 -2.2077
   52MOL    H3121553   4.682   4.594   7.033  3.7463 -2.1341 -0.2237
   52MOL    H3221554   4.714   4.412   6.836  0.2399 -0.6292 -0.1295
   52MOL    H3321555   4.565   4.679   6.808 -0.6930  0.0585 -1.9168
   52MOL    H3421556   4.604   4.585   6.673  0.2030 -1.1618  0.7705
   52MOL    H3521557   4.857   4.608   6.780 -0.2962 -0.4839  1.3560
   52MOL    H3621558   4.780   4.725   6.877 -1.4709  0.7077  0.1455
   52MOL    H3721559   4.735   4.886   6.704  0.3662  0.6031  0.2818
   52MOL    H3821560   4.790   4.779   6.581  0.8096  3.8152 -1.4160
   52MOL    H3921561   4.988   4.781   6.781 -1.7379  0.4504  0.8577
   52MOL    H4021562   4.935   4.943   6.776  1.0132 -0.1320  0.9790
   52MOL    H4121563   5.084   4.783   6.560  1.6295  0.6031  0.2550
   52MOL    H4221564   4.976   4.913   6.506  1.1453 -3.8370 -2.7839
   52MOL    H4321565   5.112   4.934   6.617 -1.4069  0.3500  1.0937
   52MOL    C4421566   4.507   4.387   6.816  0.8616  0.3747  0.1739
   52MOL    C4521567   4.527   4.307   6.677  0.3784 -1.1674 -0.4357
   52MOL    C4621568   4.607   4.189   6.704  0.0689 -0.1090  0.0244
   52MOL    C4721569   4.679   4.142   6.574 -0.2708 -0.4743 -0.4093
   52MOL    C4821570   4.743   4.004   6.601 -0.2756 -0.2099  0.0296
   52MOL    C4921571   4.774   3.939   6.467 -0.2653  0.4972  0.3276
   52MOL    C5021572   4.825   3.795   6.484 -0.5252 -0.4217 -0.3346
   52MOL    H5121573   4.425   4.458   6.801 -0.3900 -1.2678 -0.8166
   52MOL    H5221574   4.470   4.326   6.899 -3.5698  1.0181 -1.1671
   52MOL    H5321575   4.595   4.375   6.625  0.5729 -1.7138 -0.9038
   52MOL    H5421576   4.543   4.119   6.758 -1.5736  1.8347  0.6784
   52MOL    H5521577   4.681   4.209   6.781  0.0958 -1.0504  0.2499
   52MOL    H5621578   4.603   4.126   6.498 -1.9083  1.1573  0.8433
   52MOL    H5721579   4.737   4.222   6.528 -3.1159  2.0057  0.1401
   52MOL    H5821580   4.675   3.955   6.671 -0.7029  0.5914  0.1898
   52MOL    H5921581   4.834   4.018   6.659 -1.0597  0.1458  1.1919
   52MOL    H6021582   4.856   3.988   6.414 -0.7799  0.6880 -0.2859
   52MOL    H6121583   4.684   3.941   6.405  0.5194 -0.4529 -0.8572
   52MOL    H6221584   4.771   3.736   6.558 -0.1814  0.3964  0.5727
   52MOL    H6321585   4.929   3.784   6.514 -1.2055 -0.0723  2.2728
   52MOL    H6421586   4.807   3.745   6.388 -1.0751  0.7533 -0.8591
   52MOL    C6521587   4.397   4.279   6.605  1.0822 -0.3761 -0.2468
   52MOL    C6621588   4.353   4.397   6.516 -0.2610  0.7206  0.1365
   52MOL    C6721589   4.200   4.421   6.534 -0.1022 -0.4732  0.4231
   52MOL    C6821590   4.109   4.312   6.501 -0.3220  0.7373  0.0326
   52MOL    C6921591   3.964   4.330   6.540  1.1583  0.5434 -0.7773
   52MOL    C7021592   3.931   4.299   6.683  0.3941  0.2402  0.2082
   52MOL    C7121593   3.781   4.302   6.703  0.2055  0.0943  0.9030
   52MOL    H7221594   4.369   4.185   6.559 -2.8588  0.6480 -0.1371
   52MOL    H7321595   4.333   4.258   6.691  0.6860  1.8794  0.0513
   52MOL    H7421596   4.407   4.481   6.561 -0.1949 -0.4116  2.2180
   52MOL    H7521597   4.188   4.437   6.641 -1.2167  3.9093 -0.2889
   52MOL    H7621598   4.186   4.520   6.492 -0.0899 -1.3178 -1.6174
   52MOL    H7721599   4.116   4.290   6.395  3.3121  1.0286  0.1417
   52MOL    H7821600   4.142   4.223   6.555 -0.1839 -1.0432 -2.9052
   52MOL    H7921601   3.932   4.433   6.528  0.3703  0.3496 -0.3876
   52MOL    H8021602   3.905   4.267   6.474 -0.5720 -1.2599  2.3663
   52MOL    H8121603   3.985   4.358   6.756  0.7006  1.0188 -0.6286
   52MOL    H8221604   3.959   4.194   6.688 -2.2837 -0.6035 -1.2506
   52MOL    H8321605   3.719   4.237   6.641  2.5284  0.8284 -2.3375
   52MOL    H8421606   3.759   4.279   6.807 -1.6981  2.8628  1.1475
   52MOL    H8521607   3.748   4.405   6.695  2.1990  0.6772 -0.0753
   52MOL    C8621608   4.414   4.393   6.369 -0.4540  0.6192 -0.8349
   52MOL    C8721609   4.378   4.511   6.278  0.6627 -0.5726 -0.2098
   52MOL    C8821610   4.452   4.651   6.308 -0.9683 -0.0428 -0.3150
   52MOL    C8921611   4.602   4.646   6.262 -0.0654 -0.0297  0.1559
   52MOL    C9021612   4.668   4.781   6.236  0.0576  0.3823  0.6973
   52MOL    C9121613   4.809   4.769   6.171 -0.6992  0.4156 -0.5455
   52MOL    C9221614   4.824   4.685   6.045 -0.4333  0.5180 -0.0545
   52MOL    H9321615   4.522   4.401   6.379 -0.4383 -0.5824  0.0473
   52MOL    H9421616   4.391   4.299   6.318  0.6233  0.1503 -0.4576
   52MOL    H9521617   4.273   4.521   6.301  0.8299  0.1325  0.2441
   52MOL    H9621618   4.409   4.741   6.264 -1.4686 -0.3802 -0.5263
   52MOL    H9721619   4.447   4.672   6.415  0.0391  0.9683 -0.4644
   52MOL    H9821620   4.669   4.591   6.329 -1.2211  1.0920  2.2827
   52MOL    H9921621   4.603   4.592   6.167 -0.6795 -3.2094  1.8894
   52MOL   H10021622   4.662   4.844   6.324 -1.6701  2.1229 -0.6161
   52MOL   H10121623   4.606   4.842   6.170  0.5277 -0.6838 -0.7638
   52MOL   H10221624   4.855   4.864   6.145  0.7420  0.1050  0.8205
   52MOL   H10321625   4.880   4.734   6.245 -0.5421  1.0605 -0.3882
   52MOL   H10421626   4.917   4.685   5.988  0.1547  2.6702  0.8450
   52MOL   H10521627   4.748   4.712   5.971 -0.5830  0.2134 -0.0095
   52MOL   H10621628   4.820   4.578   6.062  0.2832  0.6409  0.9620
   52MOL   C10721629   4.378   4.481   6.122 -0.5350  0.1569 -0.6786
   52MOL   C10821630   4.263   4.402   6.062  0.1170  0.4065 -0.4869
   52MOL   C10921631   4.126   4.482   6.082 -0.3087  0.3001  0.1201
   52MOL   C11021632   4.113   4.611   6.001 -0.3859 -0.0807  0.3168
   52MOL   C11121633   3.985   4.688   6.034 -0.1450 -0.8899  0.2183
   52MOL   C11221634   3.952   4.803   5.937 -0.1978 -0.2752 -0.0877
   52MOL   C11321635   3.813   4.861   5.959  0.0438  0.2656  0.1652
   52MOL   H11421636   4.472   4.441   6.082  0.1039  1.4331 -0.4814
   52MOL   H11521637   4.378   4.578   6.072 -0.5862  1.4023  1.6738
   52MOL   H11621638   4.250   4.317   6.130 -1.1161  1.1995  0.2954
   52MOL   H11721639   4.107   4.495   6.188  0.2460 -1.0258  0.3962
   52MOL   H11821640   4.042   4.420   6.051  0.4079 -0.5049 -0.2320
   52MOL   H11921641   4.193   4.673   6.043 -0.3036  0.2760 -0.3570
   52MOL   H12021642   4.131   4.595   5.894  0.2331 -0.7890  0.5167
   52MOL   H12121643   3.987   4.729   6.134  0.3787 -0.1990 -0.0749
   52MOL   H12221644   3.901   4.618   6.040 -0.7955 -0.0540  1.0743
   52MOL   H12321645   4.027   4.881   5.930 -1.4219  1.0501  1.2760
   52MOL   H12421646   3.947   4.773   5.833 -0.8493  0.5211 -0.2862
   52MOL   H12521647   3.777   4.943   5.899 -0.1404 -0.1863 -0.3419
   52MOL   H12621648   3.746   4.776   5.945  0.5039 -0.1628  0.5272
   52MOL   H12721649   3.808   4.891   6.064  0.7667  0.4399  0.1567
   52MOL   C12821650   4.284   4.353   5.923  0.1224  1.0960 -0.4090
   52MOL   C12921651   4.166   4.273   5.854 -0.0630 -0.0622  0.1439
   52MOL   C13021652   4.116   4.151   5.919 -0.5507 -0.1037 -0.1621
   52MOL   C13121653   3.978   4.096   5.876 -0.3195  0.0352  1.0629
   52MOL   C13221654   3.861   4.168   5.941 -0.0971  0.2145 -0.4091
   52MOL   C13321655   3.839   4.129   6.093  0.2483 -0.1546 -0.7594
   52MOL   C13421656   3.735   4.214   6.172 -0.2764  1.4255  0.2086
   52MOL   H13521657   4.319   4.434   5.860 -1.6192  1.0065 -1.5305
   52MOL   H13621658   4.371   4.288   5.925  0.3056  1.3708  1.4326
   52MOL   H13721659   4.088   4.349   5.857 -0.1441 -0.0644 -1.5522
   52MOL   H13821660   4.112   4.164   6.027 -1.2848  1.4549 -0.3715
   52MOL   H13921661   4.191   4.073   5.901  1.0748  1.3233  0.2197
   52MOL   H14021662   3.971   3.988   5.893 -0.6970 -0.3529 -1.4088
   52MOL   H14121663   3.964   4.097   5.768  0.2491  1.5586  0.9890
   52MOL   H14221664   3.769   4.150   5.885 -0.7570  1.5186  0.2276
   52MOL   H14321665   3.881   4.274   5.922  1.7813  0.2200  1.4423
   52MOL   H14421666   3.925   4.135   6.160 -0.3795  1.5067 -0.0712
   52MOL   H14521667   3.808   4.025   6.102 -1.2483  0.4077  0.8330
   52MOL   H14621668   3.744   4.322   6.172 -4.1601  1.8309 -0.5105
   52MOL   H14721669   3.739   4.185   6.277  1.2427  0.0472 -0.2135
   52MOL   H14821670   3.632   4.193   6.143  0.4844 -2.1472 -0.1658
   52MOL   C14921671   4.205   4.244   5.705  0.1031  0.0548  0.1583
   52MOL   C15021672   4.217   4.365   5.615  0.5994 -0.6809 -0.2824
   52MOL   C15121673   4.086   4.451   5.605 -0.3361 -0.3047 -0.1081
   52MOL   C15221674   3.961   4.373   5.583 -0.0705  0.2283 -0.3220
   52MOL   C15321675   3.839   4.458   5.542 -0.1860  0.1938 -0.2322
   52MOL   C15421676   3.709   4.381   5.542  0.1023 -0.4188 -0.3145
   52MOL   C15521677   3.585   4.459   5.512 -0.3528  0.6543 -1.4333
   52MOL   H15621678   4.298   4.187   5.709 -0.1067 -0.2851  0.2385
   52MOL   H15721679   4.125   4.178   5.669 -2.0401  2.0945  1.0488
   52MOL   H15821680   4.294   4.434   5.650 -1.0013  1.7056 -1.3066
   52MOL   H15921681   4.059   4.510   5.693 -1.7443  0.4302 -1.0042
   52MOL   H16021682   4.096   4.527   5.527 -0.3439 -1.0678 -0.8630
   52MOL   H16121683   3.936   4.317   5.673  1.0316  0.5442  0.1858
   52MOL   H16221684   3.977   4.294   5.509 -0.1897  1.2906 -1.4973
   52MOL   H16321685   3.845   4.512   5.448  1.9491 -0.6481 -0.6020
   52MOL   H16421686   3.826   4.535   5.619 -0.5776  0.9781 -1.0675
   52MOL   H16521687   3.695   4.335   5.639 -0.8298  1.1349  0.2986
   52MOL   H16621688   3.711   4.311   5.458 -0.8711 -1.0862  0.2077
   52MOL   H16721689   3.567   4.536   5.586  1.2631 -1.5367  1.3251
   52MOL   H16821690   3.491   4.404   5.507 -1.1879  1.9594 -0.4694
   52MOL   H16921691   3.578   4.499   5.411 -3.5773 -0.8190 -1.8571
   52MOL   C17021692   4.275   4.342   5.471  0.1172  0.0962 -0.0720
   52MOL   C17121693   4.419   4.392   5.440  0.1388  0.6153 -0.2316
   52MOL   C17221694   4.524   4.325   5.537  0.3690  0.2049  0.4234
   52MOL   C17321695   4.539   4.175   5.504 -0.6086  0.6080  0.3254
   52MOL   C17421696   4.627   4.100   5.599 -0.2371  0.0186 -0.5660
   52MOL   C17521697   4.641   3.947   5.562 -0.2799  0.7963 -0.0181
   52MOL   C17621698   4.752   3.941   5.457 -0.1614 -0.4986  0.3729
   52MOL   H17721699   4.209   4.394   5.401  0.5251 -1.2216 -1.4692
   52MOL   H17821700   4.269   4.235   5.452  1.6966  0.0496 -0.3928
   52MOL   H17921701   4.415   4.497   5.471 -0.0400  0.3404  0.6906
   52MOL   H18021702   4.497   4.357   5.638 -1.0183 -0.2129  0.1941
   52MOL   H18121703   4.621   4.376   5.530  0.4497  0.4116  2.4961
   52MOL   H18221704   4.580   4.169   5.404 -0.2933  2.8193  0.2963
   52MOL   H18321705   4.446   4.119   5.497 -1.0332  1.1279  1.6211
   52MOL   H18421706   4.572   4.106   5.693 -2.5896 -1.8896 -1.7917
   52MOL   H18521707   4.724   4.148   5.611 -0.1988 -0.1847 -0.0611
   52MOL   H18621708   4.553   3.899   5.519  1.2250 -1.1284 -1.0182
   52MOL   H18721709   4.674   3.903   5.656 -2.9552  0.1161  0.6585
   52MOL   H18821710   4.709   3.953   5.358  0.8874  0.9908  0.0682
   52MOL   H18921711   4.798   3.843   5.451  0.9497 -0.0879  1.8100
   52MOL   H19021712   4.832   4.014   5.470 -0.0310 -0.3925 -0.9284
   52MOL   C19121713   4.455   4.398   5.289 -0.0532  0.5610  0.4480
   52MOL   C19221714   4.364   4.477   5.198 -0.5405  0.3107 -0.8178
   52MOL   C19321715   4.441   4.601   5.135 -0.2381 -0.6718  0.2199
   52MOL   C19421716   4.523   4.680   5.240  0.6813  0.1971  0.1934
   52MOL   C19521717   4.529   4.829   5.197 -0.6084  0.6965  0.3246
   52MOL   C19621718   4.602   4.924   5.293 -0.3340  0.5499  0.0248
   52MOL   C19721719   4.752   4.889   5.299  1.3681  0.3243  0.0420
   52MOL   H19821720   4.448   4.295   5.254 -1.1754  1.4554 -2.0778
   52MOL   H19921721   4.560   4.423   5.280 -0.0430  1.1706  1.9914
   52MOL   H20021722   4.295   4.520   5.270  0.1538  1.7747 -1.0020
   52MOL   H20121723   4.359   4.660   5.094 -0.9477 -2.9162 -1.7054
   52MOL   H20221724   4.503   4.576   5.050  0.1964  0.9611  0.0404
   52MOL   H20321725   4.614   4.628   5.270  1.4698  2.2281  1.3779
   52MOL   H20421726   4.469   4.687   5.334  0.7355  0.7378  0.1854
   52MOL   H20521727   4.568   4.821   5.096 -0.8742 -2.4527  0.4314
   52MOL   H20621728   4.430   4.874   5.190 -0.9472 -0.3906 -2.7197
   52MOL   H20721729   4.568   4.904   5.394 -0.8143 -0.3589 -0.3110
   52MOL   H20821730   4.600   5.031   5.273  0.0609  0.1628 -2.2234
   52MOL   H20921731   4.809   4.888   5.206  1.4956  2.0728  0.0853
   52MOL   H21021732   4.771   4.791   5.342 -2.3044 -1.0120 -1.1942
   52MOL   H21121733   4.807   4.962   5.359  1.4465 -2.5177  3.5967
   52MOL   C21221734   4.297   4.391   5.090  0.5024  0.8110 -0.4423
   52MOL   C21321735   4.177   4.453   5.012  0.3554 -0.3062 -0.5229
   52MOL   C21421736   4.131   4.361   4.901 -0.6627 -0.3316 -0.2414
   52MOL   C21521737   4.221   4.340   4.780 -0.3137  0.2106  0.0136
   52MOL   C21621738   4.154   4.257   4.670 -0.7751  0.6445  0.0757
   52MOL   C21721739   4.266   4.240   4.562  0.1248  0.2235 -0.3681
   52MOL   C21821740   4.220   4.160   4.436 -0.1935 -0.4866  0.0835
   52MOL   H21921741   4.258   4.297   5.130  0.4992  0.9428 -0.1326
   52MOL   H22021742   4.373   4.373   5.015  1.0442  2.8329 -0.4008
   52MOL   H22121743   4.203   4.554   4.983  0.7928  0.3003  1.8244
   52MOL   H22221744   4.122   4.267   4.956 -0.1780 -0.7453 -0.8700
   52MOL   H22321745   4.031   4.384   4.862 -0.2551 -1.3124 -1.9337
   52MOL   H22421746   4.311   4.289   4.812  0.2259  0.2150 -1.4325
   52MOL   H22521747   4.262   4.432   4.739  2.1009 -0.1381  1.5614
   52MOL   H22621748   4.108   4.168   4.713 -1.0033  0.5956 -0.2715
   52MOL   H22721749   4.067   4.310   4.630 -0.7168 -0.6261 -1.7760
   52MOL   H22821750   4.302   4.337   4.526  1.3740  0.6194  1.8652
   52MOL   H22921751   4.354   4.197   4.609 -0.9480 -1.1020  0.4523
   52MOL   H23021752   4.126   4.187   4.389 -1.0417 -1.7991  0.9949
   52MOL   H23121753   4.199   4.059   4.471  0.9542 -0.4327  0.9479
   52MOL   H23221754   4.295   4.162   4.357 -1.0104  1.1081 -0.6813
   52MOL   C23321755   4.052   4.474   5.106 -0.0374 -0.5819 -0.2520
   52MOL   C23421756   3.951   4.582   5.056  0.3731 -0.1953  0.0034
   52MOL   C23521757   3.808   4.520   5.041  0.3168 -0.2687 -0.1619
   52MOL   C23621758   3.706   4.618   4.981 -0.8251  0.5379 -0.2308
   52MOL   C23721759   3.562   4.572   4.963  0.8113 -0.2696  0.6623
   52MOL   C23821760   3.547   4.477   4.847  0.5036  0.3160 -0.2673
   52MOL   C23921761   3.400   4.447   4.819  0.4596  0.0269 -0.5533
   52MOL   H24021762   4.093   4.496   5.204  1.8027 -2.7754 -0.5107
   52MOL   H24121763   4.008   4.378   5.131 -0.0117 -0.2448  1.1118
   52MOL   H24221764   3.986   4.615   4.959 -2.0652 -0.0845 -0.8743
   52MOL   H24321765   3.775   4.461   5.126  1.5059 -0.2670  0.3204
   52MOL   H24421766   3.820   4.441   4.967 -0.4513 -0.0746 -0.4963
   52MOL   H24521767   3.750   4.672   4.897  3.5226  1.3001  2.3580
   52MOL   H24621768   3.688   4.702   5.048 -1.2826 -0.0958  0.4510
   52MOL   H24721769   3.497   4.656   4.943 -0.7255 -1.7437 -0.6682
   52MOL   H24821770   3.531   4.504   5.043  1.1307  0.7541  1.6744
   52MOL   H24921771   3.596   4.503   4.753  1.5140 -1.9149 -0.3989
   52MOL   H25021772   3.597   4.385   4.878  1.7275  0.9098 -0.4386
   52MOL   H25121773   3.392   4.365   4.748 -0.6238 -2.6756  2.5610
   52MOL   H25221774   3.338   4.419   4.903  0.0194 -0.3654 -1.0090
   52MOL   H25321775   3.364   4.543   4.780 -4.0606 -0.5956  1.8765
   52MOL   C25421776   3.946   4.700   5.158 -0.1893 -0.4612 -0.1000
   52MOL   C25521777   4.063   4.791   5.137  0.2686  1.2263  0.1560
   52MOL   C25621778   4.085   4.874   5.263 -0.5792 -0.6591 -0.4355
   52MOL   C25721779   4.171   4.812   5.370  0.3131  0.0513 -0.4849
   52MOL   C25821780   4.168   4.873   5.513  0.4821  0.0663  0.4930
   52MOL   C25921781   4.174   5.028   5.523  0.2968 -0.7459 -0.1681
   52MOL   C26021782   4.309   5.084   5.477  0.2052 -0.3744  0.6480
   52MOL   H26121783   3.940   4.662   5.261 -0.0279 -0.8760 -0.2424
   52MOL   H26221784   3.856   4.761   5.148 -2.0225 -2.8263  1.1873
   52MOL   H26321785   4.147   4.727   5.111  0.4261  2.0870 -1.5662
   52MOL   H26421786   3.987   4.889   5.308 -0.5335 -0.8329 -0.2784
   52MOL   H26521787   4.126   4.973   5.242 -0.4491 -0.5791  0.1882
   52MOL   H26621788   4.155   4.704   5.368  0.3574  0.0527 -3.1364
   52MOL   H26721789   4.274   4.821   5.334 -0.1427  0.6651 -1.6513
   52MOL   H26821790   4.237   4.829   5.584 -0.1430  0.4404  1.3367
   52MOL   H26921791   4.069   4.845   5.550  1.0013 -0.2808  1.6405
   52MOL   H27021792   4.090   5.066   5.464  0.8285  2.6232  1.0955
   52MOL   H27121793   4.138   5.059   5.621 -0.8942  0.3788 -0.9368
   52MOL   H27221794   4.300   5.192   5.485  1.3367 -0.4118  2.7999
   52MOL   H27321795   4.388   5.034   5.534  1.4668  0.4230 -0.3605
   52MOL   H27421796   4.332   5.049   5.376 -0.1711 -0.0315  0.4427
   52MOL   C27521797   4.029   4.894   5.027 -0.6635 -0.1772  0.4667
   52MOL   C27621798   4.155   4.966   4.964  0.8943  0.5345 -0.0755
   52MOL   C27721799   4.115   5.104   4.913  0.8675  0.1606  0.3123
   52MOL   C27821800   4.022   5.104   4.789 -0.6309  0.4538  0.1377
   52MOL   C27921801   3.977   5.240   4.742 -0.1101 -0.1208 -0.1246
   52MOL   C28021802   3.858   5.221   4.642 -0.1778  0.3281  0.3913
   52MOL   C28121803   3.784   5.354   4.633 -0.5114  0.0679  0.3036
   52MOL   H28221804   3.944   4.951   5.065 -0.2741  0.4926  0.3588
   52MOL   H28321805   3.984   4.847   4.940 -1.0126 -0.1904  0.6549
   52MOL   H28421806   4.223   4.989   5.046  1.2591 -2.7839  0.6527
   52MOL   H28521807   4.067   5.155   4.996 -3.7589 -1.6265 -1.0541
   52MOL   H28621808   4.203   5.159   4.882  0.1478  2.7598  2.7453
   52MOL   H28721809   3.933   5.047   4.816 -1.4172  1.0037 -1.2406
   52MOL   H28821810   4.059   5.047   4.704 -0.6627  1.9858 -0.9191
   52MOL   H28921811   4.049   5.299   4.685 -0.1684  0.9620  0.8925
   52MOL   H29021812   3.940   5.296   4.828  0.4171  0.3621 -0.2093
   52MOL   H29121813   3.891   5.198   4.541  0.5840 -1.6152  1.0415
   52MOL   H29221814   3.792   5.142   4.678  0.2842 -0.2456 -0.0092
   52MOL   H29321815   3.849   5.441   4.638  0.4766 -0.6840  0.5749
   52MOL   H29421816   3.721   5.372   4.720 -0.0557 -0.4051  0.7307
   52MOL   H29521817   3.722   5.357   4.543 -1.1575  1.0269  0.7716
   52MOL   C29621818   4.242   4.883   4.858  0.4311  0.5979  0.7765
   52MOL   C29721819   4.355   4.958   4.782  0.8090 -0.3885 -0.0356
   52MOL   C29821820   4.442   4.852   4.702 -0.3858  0.5567  0.0481
   52MOL   C29921821   4.364   4.771   4.599 -0.9263 -0.7500  0.6195
   52MOL   C30021822   4.455   4.709   4.492  0.0436 -0.4921  0.6809
   52MOL   C30121823   4.380   4.617   4.397  0.1992  0.8444 -0.2029
   52MOL   C30221824   4.465   4.547   4.292  0.3459 -0.8035  0.1330
   52MOL   H30321825   4.285   4.803   4.917 -0.6031 -0.5167  0.0403
   52MOL   H30421826   4.183   4.834   4.780  1.1207  0.7548  0.1545
   52MOL   H30521827   4.315   5.024   4.704  0.9789  0.3747  0.5188
   52MOL   H30621828   4.522   4.901   4.647  1.3786 -3.0805 -0.8397
   52MOL   H30721829   4.483   4.771   4.763  0.5288  0.4503 -0.6950
   52MOL   H30821830   4.298   4.847   4.556  0.3251 -0.9103 -1.7137
   52MOL   H30921831   4.314   4.689   4.650 -0.3504 -2.5893 -1.6315
   52MOL   H31021832   4.540   4.663   4.543  1.0902  1.7409  1.0110
   52MOL   H31121833   4.508   4.783   4.432 -2.4689  0.1752 -0.7644
   52MOL   H31221834   4.318   4.554   4.460  0.5274 -1.6800 -2.2979
   52MOL   H31321835   4.323   4.681   4.328 -1.1343  0.2192  0.3142
   52MOL   H31421836   4.535   4.477   4.338  0.2619  0.4945  2.3048
   52MOL   H31521837   4.402   4.482   4.232 -0.7175 -1.5853  2.0547
   52MOL   H31621838   4.519   4.625   4.239  1.6839 -2.8881 -1.6558
   52MOL   C31721839   4.445   5.038   4.868 -0.0074 -0.1960 -0.4040
   52MOL   C31821840   4.554   5.131   4.808  1.0029 -0.4041  0.0739
   52MOL   C31921841   4.484   5.268   4.780  0.1204  0.9225  0.0568
   52MOL   C32021842   4.554   5.357   4.676  0.2639 -0.2911 -0.7638
   52MOL   C32121843   4.472   5.453   4.583  0.2064 -0.1957  0.3032
   52MOL   C32221844   4.568   5.524   4.485 -0.7462 -0.4698  0.4886
   52MOL   C32321845   4.515   5.655   4.427 -0.2830 -0.0230  0.1475
   52MOL   H32421846   4.502   4.959   4.917  2.3742  1.7893  0.0917
   52MOL   H32521847   4.393   5.092   4.948  0.4360 -0.7253  0.2441
   52MOL   H32621848   4.581   5.081   4.715  1.2000 -0.6524  0.2674
   52MOL   H32721849   4.456   5.322   4.870 -4.3781 -1.1981  0.0656
   52MOL   H32821850   4.386   5.246   4.736  0.3832 -0.2424  0.0305
   52MOL   H32921851   4.606   5.291   4.606  0.8827 -1.3481  0.6772
   52MOL   H33021852   4.624   5.415   4.735  1.2471 -1.0407 -1.1790
   52MOL   H33121853   4.437   5.524   4.657 -0.3128 -1.4663  1.2873
   52MOL   H33221854   4.383   5.417   4.532 -1.1927  1.4834  1.5358
   52MOL   H33321855   4.593   5.458   4.402 -1.5455  1.1157 -1.0423
   52MOL   H33421856   4.663   5.552   4.530 -0.5633 -3.2303  1.9493
   52MOL   H33521857   4.536   5.733   4.500  0.2773  1.2394 -1.3308
   52MOL   H33621858   4.409   5.652   4.404 -0.3156  2.2787 -0.1062
   52MOL   H33721859   4.563   5.696   4.338 -2.0451 -0.7322 -1.1563
   52MOL   C33821860   4.674   5.141   4.909  0.5211 -0.3682  0.4711
   52MOL   C33921861   4.808   5.201   4.857  0.8685  0.4226  0.0413
   52MOL   C34021862   4.879   5.118   4.741 -0.5841  0.5446 -0.6521
   52MOL   C34121863   4.920   4.979   4.799 -0.1564  0.1119  0.1087
   52MOL   C34221864   4.823   4.867   4.750 -0.3814  0.6837  0.2460
   52MOL   C34321865   4.862   4.726   4.785  0.7111 -0.6053 -0.0672
   52MOL   C34421866   4.821   4.691   4.933 -0.1105 -0.1051 -0.1179
   52MOL   H34521867   4.702   5.048   4.958  0.3994 -0.2778  0.7067
   52MOL   H34621868   4.634   5.206   4.986 -1.0541 -0.9168  0.1263
   52MOL   H34721869   4.788   5.290   4.797 -2.7723 -0.4308 -0.1165
   52MOL   H34821870   4.819   5.113   4.651  1.4585 -0.9527 -1.9813
   52MOL   H34921871   4.974   5.157   4.704 -0.6233  0.6002 -0.6940
   52MOL   H35021872   4.936   4.974   4.906  2.4997 -0.2623 -0.2703
   52MOL   H35121873   5.021   4.957   4.764  0.9658  4.2388  0.4885
   52MOL   H35221874   4.719   4.876   4.782 -0.5591 -0.4112 -0.0128
   52MOL   H35321875   4.818   4.879   4.642 -0.9256 -1.9186 -0.0616
   52MOL   H35421876   4.817   4.653   4.717  0.0893  0.5815 -0.9702
   52MOL   H35521877   4.970   4.713   4.777  0.6285 -0.7089 -1.1716
   52MOL   H35621878   4.729   4.742   4.959  0.6312  2.4278 -2.2639
   52MOL   H35721879   4.899   4.721   5.002 -2.6302  1.3527  2.1720
   52MOL   H35821880   4.814   4.583   4.945  0.7995  0.0419  1.8481
   52MOL   C35921881   4.907   5.246   4.966 -0.2300  0.2230 -0.3856
   52MOL   C36021882   4.849   5.357   5.064 -0.5241  0.5833  0.0043
   52MOL   C36121883   4.799   5.295   5.195 -0.2451 -0.0190  0.3068
   52MOL   C36221884   4.680   5.375   5.258 -0.7438  0.2810 -0.2904
   52MOL   C36321885   4.612   5.320   5.382 -0.3833  0.3827 -0.6144
   52MOL   C36421886   4.720   5.309   5.497  0.5407 -1.0602  0.9886
   52MOL   C36521887   4.658   5.222   5.608  0.3830  0.2586 -0.2388
   52MOL   H36621888   4.989   5.289   4.908  1.1165 -2.6812 -0.6959
   52MOL   H36721889   4.958   5.169   5.023 -1.7425 -0.3141  0.2647
   52MOL   H36821890   4.764   5.404   5.013  0.0563 -0.0626 -1.5899
   52MOL   H36921891   4.759   5.196   5.174  1.7257 -0.5695 -0.9327
   52MOL   H37021892   4.875   5.283   5.272  1.3177  2.1716 -0.8559
   52MOL   H37121893   4.705   5.479   5.280 -0.7009  0.3885 -0.8398
   52MOL   H37221894   4.599   5.387   5.187 -1.0899 -1.3030 -0.1756
   52MOL   H37321895   4.543   5.396   5.417 -1.1976 -1.1452  1.2359
   52MOL   H37421896   4.561   5.226   5.363 -0.5121  0.4734 -0.7102
   52MOL   H37521897   4.812   5.258   5.468  1.7081  0.9959  0.9755
   52MOL   H37621898   4.749   5.401   5.548  0.8357 -1.5461  1.7062
   52MOL   H37721899   4.634   5.123   5.568 -1.5369  1.4888 -2.2728
   52MOL   H37821900   4.730   5.199   5.686 -0.3189  1.1150  0.6659
   52MOL   H37921901   4.568   5.266   5.650  1.3329  1.8215  0.2008
   52MOL   C38021902   4.955   5.471   5.100 -0.1041  0.2336  0.4357
   52MOL   C38121903   5.018   5.550   4.985 -0.0839 -1.0338  0.1592
   52MOL   C38221904   4.917   5.602   4.882 -0.3544  0.3291  0.0381
   52MOL   C38321905   4.818   5.717   4.918  0.3505 -1.1494  1.3625
   52MOL   C38421906   4.733   5.769   4.796  0.0523 -0.1515 -0.1214
   52MOL   C38521907   4.806   5.859   4.688  0.1064  0.9406 -0.4323
   52MOL   C38621908   4.842   6.002   4.733  0.3525  0.5190  0.4549
   52MOL   H38721909   4.904   5.537   5.170 -0.6277 -0.9995  1.2484
   52MOL   H38821910   5.034   5.420   5.155 -0.5810 -2.3410 -1.1330
   52MOL   H38921911   5.086   5.487   4.927 -1.1053 -1.8060 -0.2216
   52MOL   H39021912   4.855   5.521   4.843  0.9085 -0.5213 -0.2583
   52MOL   H39121913   4.979   5.634   4.798 -0.2664 -0.9134 -0.3901
   52MOL   H39221914   4.760   5.681   5.003  0.4543 -1.4382  1.3092
   52MOL   H39321915   4.874   5.809   4.934 -1.8858  1.0057 -2.4953
   52MOL   H39421916   4.676   5.693   4.741  0.9004 -0.1841 -0.9689
   52MOL   H39521917   4.651   5.825   4.840  1.5415  1.5335  0.5485
   52MOL   H39621918   4.735   5.863   4.605  3.2703  0.9824 -3.2623
   52MOL   H39721919   4.890   5.799   4.651  1.1035  2.0405 -0.0015
   52MOL   H39821920   4.891   5.997   4.831  1.4856 -1.9856 -0.2001
   52MOL   H39921921   4.755   6.064   4.755 -1.6895 -1.3386 -2.0714
   52MOL   H40021922   4.902   6.050   4.656  0.7429 -0.0650  0.3924
   52MOL   C40121923   5.116   5.649   5.043  0.0560 -0.0074 -0.3274
   52MOL   C40221924   5.179   5.764   4.960  0.1717 -0.6245  0.1224
   52MOL   C40321925   5.235   5.879   5.043  0.4125  0.2379  0.0329
   52MOL   C40421926   5.135   6.000   5.067  0.2376 -0.6735  0.1169
   52MOL   C40521927   5.187   6.104   5.158 -0.1993  0.1686  0.1823
   52MOL   C40621928   5.088   6.211   5.193 -0.8332  0.1138  0.1998
   52MOL   C40721929   5.140   6.312   5.294 -0.2386 -0.4931 -0.0363
   52MOL   H40821930   5.197   5.594   5.090 -1.0720  0.3460  2.1061
   52MOL   H40921931   5.076   5.699   5.131  1.5655 -0.9681  0.9346
   52MOL   H41021932   5.116   5.805   4.882 -0.2665 -0.2197  0.6907
   52MOL   H41121933   5.322   5.910   4.986  0.2298  2.3566  0.8378
   52MOL   H41221934   5.273   5.839   5.136  0.4071  0.0834 -0.0318
   52MOL   H41321935   5.041   5.962   5.106 -1.7918  0.4210 -3.4265
   52MOL   H41421936   5.114   6.043   4.969  1.3223  0.1969  0.2541
   52MOL   H41521937   5.194   6.063   5.259 -0.0104  0.0400  0.1182
   52MOL   H41621938   5.285   6.141   5.128 -1.4520  0.3500 -3.9670
   52MOL   H41721939   5.050   6.261   5.104  0.3166  1.6004  0.5363
   52MOL   H41821940   4.992   6.171   5.226 -0.7097 -0.6092 -0.3061
   52MOL   H41921941   5.221   6.367   5.246 -0.5359 -0.0579 -0.0398
   52MOL   H42021942   5.174   6.252   5.378 -1.1015 -1.6603 -0.5187
   52MOL   H42121943   5.065   6.383   5.330 -0.8517 -1.2671  0.2236
   52MOL   H42221944   5.259   5.715   4.905  0.0143 -1.4765  0.6451
   53MOL     C121945   2.349   2.315   0.940  0.7372 -0.4529  0.0080
   53MOL     C221946   2.257   2.368   0.830 -0.0932 -0.0531 -0.1089
   53MOL     C321947   2.317   2.319   0.701  0.7575  0.6261 -0.2725
   53MOL     C421948   2.281   2.171   0.669  0.2481 -0.5371 -0.2727
   53MOL     C521949   2.357   2.130   0.544 -0.5957  0.1144  0.5073
   53MOL     C621950   2.317   1.982   0.506  0.1631 -0.8340  0.5440
   53MOL     C721951   2.408   1.916   0.404  1.1512  0.2971 -0.9149
   53MOL     H821952   2.437   2.378   0.955  1.0793 -0.6499 -1.0845
   53MOL     H921953   2.378   2.213   0.916 -0.4404 -1.3036  2.0751
   53MOL    H1021954   2.160   2.320   0.843 -0.7942  1.6157  1.0486
   53MOL    H1121955   2.268   2.375   0.621 -2.3256  0.7127  1.5950
   53MOL    H1221956   2.424   2.334   0.696  0.7395  1.1364  0.8559
   53MOL    H1321957   2.307   2.099   0.746  0.3376 -0.5057 -0.2732
   53MOL    H1421958   2.175   2.162   0.647  0.0924  0.8316 -0.1703
   53MOL    H1521959   2.464   2.125   0.565 -0.4217 -3.0487 -0.7924
   53MOL    H1621960   2.341   2.207   0.468 -0.8052  1.7950  2.2244
   53MOL    H1721961   2.215   1.992   0.469  0.3540 -0.4548  0.1037
   53MOL    H1821962   2.328   1.917   0.593  0.3123  1.2581  2.1189
   53MOL    H1921963   2.368   1.817   0.383  2.3496 -0.4574  0.3311
   53MOL    H2021964   2.504   1.887   0.446  0.0517 -0.0236  1.4496
   53MOL    H2121965   2.424   1.977   0.314 -0.4123  0.5657 -1.0205
   53MOL    H2221966   2.292   2.314   1.033  0.5337 -0.9734 -0.1222
   53MOL    C2321967   2.235   2.520   0.834  0.1815 -0.0947 -0.2975
   53MOL    C2421968   2.187   2.581   0.969  0.3530  0.0560 -0.0379
   53MOL    C2521969   2.038   2.571   0.979  0.0665 -0.0647 -0.5143
   53MOL    C2621970   1.972   2.561   1.119  0.2262  0.5807 -0.7602
   53MOL    C2721971   1.999   2.426   1.190  0.0371  0.1353 -0.1467
   53MOL    C2821972   1.934   2.436   1.331 -0.0905 -0.7004  0.1145
   53MOL    C2921973   1.963   2.321   1.425 -0.4031  0.0244  0.8820
   53MOL    H3021974   2.330   2.567   0.808  1.0985 -1.2111  0.9641
   53MOL    H3121975   2.167   2.547   0.754  0.4350  0.9890 -0.1572
   53MOL    H3221976   2.224   2.518   1.050  0.4019  1.2036  0.8341
   53MOL    H3321977   2.016   2.471   0.940  1.4808 -0.7771  0.4748
   53MOL    H3421978   2.000   2.637   0.902 -0.4898  0.7956  0.4905
   53MOL    H3521979   1.866   2.584   1.108  0.3575  1.6034 -0.0109
   53MOL    H3621980   2.007   2.635   1.191 -0.5615 -1.2926  1.6490
   53MOL    H3721981   2.106   2.413   1.209  0.0472  0.2818 -0.1071
   53MOL    H3821982   1.959   2.338   1.138  0.6518 -0.6160  0.6369
   53MOL    H3921983   1.829   2.460   1.310  0.3005  2.7478  1.7020
   53MOL    H4021984   1.964   2.530   1.377 -0.4686 -0.8413  0.6617
   53MOL    H4121985   2.069   2.326   1.449 -0.0877  3.1781 -0.8685
   53MOL    H4221986   1.916   2.333   1.522 -2.3045 -0.1915  0.0132
   53MOL    H4321987   1.933   2.222   1.390 -0.6358  1.1422 -2.2732
   53MOL    C4421988   2.220   2.738   0.989  0.1004  0.2609  0.0773
   53MOL    C4521989   2.372   2.782   0.981  0.2735 -1.0222  0.5175
   53MOL    C4621990   2.392   2.931   0.975 -0.0501 -0.2020 -0.4931
   53MOL    C4721991   2.359   3.005   0.843  0.2010  0.5874  0.3304
   53MOL    C4821992   2.457   2.982   0.732  0.5631 -0.1347 -0.1545
   53MOL    C4921993   2.413   3.047   0.596 -0.2912  0.2900  0.1521
   53MOL    C5021994   2.384   3.202   0.595 -0.3423  0.5552  0.6350
   53MOL    H5121995   2.173   2.765   1.083  1.6674 -0.8420  1.2061
   53MOL    H5221996   2.168   2.786   0.906  0.2444 -1.6337 -1.1439
   53MOL    H5321997   2.394   2.746   0.881 -2.0204 -0.4930 -0.2136
   53MOL    H5421998   2.495   2.954   1.004  1.0886 -0.5524 -4.0599
   53MOL    H5521999   2.333   2.968   1.059  0.9821 -1.8533  0.9891
   53MOL    H5622000   2.256   3.012   0.808  0.2593 -1.8047 -0.3647
   53MOL    H5722001   2.381   3.108   0.873 -0.3661  1.0276 -0.7483
   53MOL    H5822002   2.466   2.875   0.712 -0.7916 -0.3849  0.4563
   53MOL    H5922003   2.551   3.023   0.768  0.4205  0.3058 -0.2876
   53MOL    H6022004   2.325   2.996   0.556 -0.9304 -0.4816  2.4927
   53MOL    H6122005   2.491   3.023   0.523  0.2145  0.5502  0.6043
   53MOL    H6222006   2.388   3.242   0.493  0.8174 -1.7352 -0.2625
   53MOL    H6322007   2.456   3.271   0.640  1.1174 -0.4237 -0.1715
   53MOL    H6422008   2.284   3.223   0.633 -1.1189 -1.6178 -0.1777
   53MOL    C6522009   2.463   2.722   1.084 -0.0195  0.0190  0.2971
   53MOL    C6622010   2.618   2.710   1.057 -0.2437  0.0411 -0.2587
   53MOL    C6722011   2.655   2.581   0.975  0.4525  0.0506 -0.1577
   53MOL    C6822012   2.788   2.581   0.902 -0.5321 -0.1529  1.0674
   53MOL    C6922013   2.861   2.440   0.888  0.7051 -0.5645  0.0246
   53MOL    C7022014   2.773   2.327   0.842 -0.1698  0.4441 -0.4233
   53MOL    C7122015   2.709   2.335   0.695 -0.1426  0.6637 -0.4550
   53MOL    H7222016   2.445   2.776   1.178 -0.5530 -1.1682  0.8947
   53MOL    H7322017   2.426   2.621   1.103  1.2877 -0.4168  0.5805
   53MOL    H7422018   2.657   2.795   1.000  0.7663 -1.7074 -2.2236
   53MOL    H7522019   2.637   2.493   1.038 -1.9696 -0.6372 -1.7035
   53MOL    H7622020   2.580   2.563   0.898  1.2067 -2.3995 -0.3964
   53MOL    H7722021   2.773   2.619   0.801  1.7352  2.5603  1.6699
   53MOL    H7822022   2.860   2.656   0.935  0.7945 -0.4256 -1.0754
   53MOL    H7922023   2.945   2.446   0.818 -0.2758 -2.4694 -1.3885
   53MOL    H8022024   2.901   2.397   0.980 -0.4229  0.6693  1.1000
   53MOL    H8122025   2.692   2.325   0.913  0.9220  0.2674  0.8323
   53MOL    H8222026   2.833   2.236   0.846 -1.7244 -0.6158 -0.8812
   53MOL    H8322027   2.636   2.415   0.686 -1.2708 -0.5179 -2.1200
   53MOL    H8422028   2.787   2.343   0.619 -0.1548  0.0367 -0.5339
   53MOL    H8522029   2.650   2.246   0.673  0.1670 -0.3159  2.4363
   53MOL    C8622030   2.701   2.705   1.191 -0.5725  0.0895 -0.0128
   53MOL    C8722031   2.728   2.833   1.270  0.1184  0.6223 -0.6749
   53MOL    C8822032   2.736   2.808   1.428  0.1881 -0.4179 -0.1389
   53MOL    C8922033   2.860   2.728   1.484  0.4789  0.6964 -0.0194
   53MOL    C9022034   2.847   2.573   1.473 -0.2610 -0.1054 -0.7002
   53MOL    C9122035   2.983   2.517   1.478  0.8647 -0.3515  0.5350
   53MOL    C9222036   2.990   2.359   1.476  0.6097 -0.4096  0.2191
   53MOL    H9322037   2.647   2.632   1.251 -2.0279  1.3337  0.1937
   53MOL    H9422038   2.799   2.658   1.176 -0.0862  1.1909 -0.3543
   53MOL    H9522039   2.636   2.891   1.264  0.1209  0.8500  1.3862
   53MOL    H9622040   2.723   2.910   1.467 -2.7437 -0.3532 -1.1877
   53MOL    H9722041   2.647   2.760   1.470 -0.6726 -0.0488 -1.5084
   53MOL    H9822042   2.947   2.764   1.429 -0.5719  1.8999 -0.9347
   53MOL    H9922043   2.884   2.758   1.586  0.6511 -0.7411  0.3826
   53MOL   H10022044   2.790   2.546   1.384 -0.3371 -1.7565 -0.1819
   53MOL   H10122045   2.790   2.538   1.560  0.4364  1.0790  0.2514
   53MOL   H10222046   3.047   2.545   1.394 -1.1762 -0.1971 -1.0098
   53MOL   H10322047   3.028   2.549   1.572  1.5479  1.0645 -0.2561
   53MOL   H10422048   3.088   2.314   1.491  0.8415 -0.2797 -0.8638
   53MOL   H10522049   2.944   2.322   1.384  2.2675 -1.7030 -0.1245
   53MOL   H10622050   2.916   2.330   1.550 -1.6708  2.2435 -0.9327
   53MOL   C10722051   2.836   2.929   1.211 -0.2975  0.6862  0.1536
   53MOL   C10822052   2.826   3.079   1.253  0.4613  0.5019 -0.7754
   53MOL   C10922053   2.968   3.143   1.256 -0.1899  0.0869 -0.2264
   53MOL   C11022054   3.050   3.120   1.387  0.5935 -0.2124  0.8310
   53MOL   C11122055   3.156   3.232   1.415 -0.0957  0.2730  0.3441
   53MOL   C11222056   3.097   3.364   1.464  0.1486  0.1381  0.3934
   53MOL   C11322057   3.190   3.484   1.457 -0.0687  0.3382 -0.1035
   53MOL   H11422058   2.840   2.915   1.103 -1.0019 -1.5487  0.4006
   53MOL   H11522059   2.936   2.889   1.224 -0.9156 -0.4512  1.4547
   53MOL   H11622060   2.778   3.077   1.351 -1.3658 -1.3767 -1.6693
   53MOL   H11722061   2.958   3.250   1.240 -0.2238  0.5302  2.4637
   53MOL   H11822062   3.029   3.117   1.170 -0.6215  1.6151 -1.0068
   53MOL   H11922063   2.986   3.115   1.475 -0.6990 -2.9362 -0.2182
   53MOL   H12022064   3.102   3.024   1.384 -0.7454 -0.9529  1.2077
   53MOL   H12122065   3.211   3.250   1.323 -1.1615  0.4399 -0.2671
   53MOL   H12222066   3.230   3.189   1.482  1.1009  1.3652 -0.2610
   53MOL   H12322067   3.015   3.393   1.398  2.7737  1.5103 -2.4091
   53MOL   H12422068   3.055   3.345   1.562 -2.2778  0.5369 -0.5357
   53MOL   H12522069   3.261   3.487   1.540 -0.3014  1.6047  0.0622
   53MOL   H12622070   3.252   3.491   1.369 -0.6663 -1.7210 -0.7203
   53MOL   H12722071   3.128   3.573   1.461  1.8729  1.6805  0.7515
   53MOL   C12822072   2.726   3.141   1.154  0.4975 -0.1278  0.0224
   53MOL   C12922073   2.658   3.276   1.206 -0.0744  0.4092 -0.4100
   53MOL   C13022074   2.543   3.245   1.304  0.7695  0.4219  0.0342
   53MOL   C13122075   2.483   3.359   1.375  0.2648  0.6082  0.3006
   53MOL   C13222076   2.382   3.319   1.479 -0.0075 -0.0839 -0.0522
   53MOL   C13322077   2.345   3.432   1.573 -0.1285 -0.3301  0.0276
   53MOL   C13422078   2.218   3.409   1.662 -0.1706 -0.1294  0.4022
   53MOL   H13522079   2.769   3.165   1.057 -1.0519  2.1898 -0.1514
   53MOL   H13622080   2.642   3.074   1.140  0.1310  0.1608  0.8072
   53MOL   H13722081   2.737   3.335   1.255  0.4710  0.4432 -1.3227
   53MOL   H13822082   2.572   3.173   1.380  0.7286  0.5939  0.2118
   53MOL   H13922083   2.463   3.191   1.253 -1.7903  1.7429  2.5141
   53MOL   H14022084   2.434   3.432   1.311 -0.4085 -1.3356 -1.4401
   53MOL   H14122085   2.557   3.411   1.435  0.7629 -0.9673  1.0846
   53MOL   H14222086   2.422   3.232   1.532  2.2662  0.1793 -1.2737
   53MOL   H14322087   2.294   3.282   1.426 -0.4384  1.8417 -0.7328
   53MOL   H14422088   2.322   3.526   1.522 -2.2646 -0.8274  0.0171
   53MOL   H14522089   2.428   3.466   1.635 -1.2144  0.8342  0.8759
   53MOL   H14622090   2.214   3.481   1.743  0.6530 -0.1717  0.4834
   53MOL   H14722091   2.226   3.309   1.705 -0.6690 -0.5068 -0.3555
   53MOL   H14822092   2.121   3.412   1.613 -0.3532 -0.5086  0.7385
   53MOL   C14922093   2.619   3.358   1.080 -0.4371 -0.2912  0.1793
   53MOL   C15022094   2.730   3.448   1.024 -0.0812  0.3636  0.9199
   53MOL   C15122095   2.748   3.567   1.120  0.3758  0.2851  0.1134
   53MOL   C15222096   2.861   3.671   1.099  0.0131  0.2555  0.6865
   53MOL   C15322097   2.974   3.656   1.201  0.2873  0.8800  0.0545
   53MOL   C15422098   3.075   3.779   1.196  0.1876  0.5961 -0.0693
   53MOL   C15522099   3.016   3.901   1.261 -0.3318 -0.7820  0.5654
   53MOL   H15622100   2.577   3.290   1.006 -0.4771  0.6225 -0.6542
   53MOL   H15722101   2.529   3.414   1.103  0.0902  1.5474 -1.9975
   53MOL   H15822102   2.823   3.394   1.041 -1.0226 -1.4231  0.5646
   53MOL   H15922103   2.660   3.631   1.113  1.5547  2.1119  1.3876
   53MOL   H16022104   2.735   3.535   1.223  1.2429 -0.3799  0.0201
   53MOL   H16122105   2.830   3.774   1.114  0.4627  0.2249  1.9857
   53MOL   H16222106   2.906   3.677   1.000 -2.0374  2.2799 -0.1451
   53MOL   H16322107   3.013   3.558   1.227 -1.1172 -0.0777 -1.3250
   53MOL   H16422108   2.930   3.662   1.300  0.1432  0.0642  0.0391
   53MOL   H16522109   3.097   3.798   1.091 -0.0854 -0.5386 -0.3320
   53MOL   H16622110   3.174   3.759   1.238 -0.4963  1.6770  2.1118
   53MOL   H16722111   3.101   3.970   1.268 -1.2584  0.3274  1.1631
   53MOL   H16822112   2.997   3.878   1.366  1.6396  1.7298  1.5361
   53MOL   H16922113   2.924   3.946   1.224  0.1700  0.8295  1.2097
   53MOL   C17022114   2.695   3.488   0.874 -0.3257 -0.2872  0.2660
   53MOL   C17122115   2.783   3.414   0.773  0.5895 -0.9902 -0.7018
   53MOL   C17222116   2.775   3.257   0.775  0.1254 -0.4529  0.2764
   53MOL   C17322117   2.905   3.203   0.790  0.2361  0.1165  0.4831
   53MOL   C17422118   2.902   3.053   0.780  0.6381 -0.2991 -0.1822
   53MOL   C17522119   3.042   2.993   0.805  0.0924  0.4617  0.1410
   53MOL   C17622120   3.042   2.845   0.792  0.8836  0.7822 -0.0070
   53MOL   H17722121   2.709   3.595   0.859  3.0216 -0.9328 -1.6045
   53MOL   H17822122   2.590   3.473   0.850 -0.0749 -1.6687 -0.0115
   53MOL   H17922123   2.886   3.446   0.789  0.5577 -0.4383 -1.5352
   53MOL   H18022124   2.727   3.216   0.686  1.4934 -0.1737 -0.6118
   53MOL   H18122125   2.703   3.236   0.854  1.2952 -2.1883  0.8942
   53MOL   H18222126   2.940   3.235   0.888  0.7139 -1.6137  0.9021
   53MOL   H18322127   2.982   3.240   0.722  0.2103 -0.1951  0.2799
   53MOL   H18422128   2.879   3.019   0.680  0.9615 -2.9829  0.6207
   53MOL   H18522129   2.827   3.025   0.854  0.0660  1.0891 -0.2160
   53MOL   H18622130   3.067   3.021   0.908 -1.5853  3.1356 -0.1445
   53MOL   H18722131   3.119   3.044   0.747  0.7957 -1.6037 -0.7841
   53MOL   H18822132   2.987   2.804   0.877 -2.4404  0.8548 -2.0367
   53MOL   H18922133   3.142   2.802   0.794  1.4177  2.0125  0.0987
   53MOL   H19022134   2.991   2.811   0.702  1.7516  2.7873 -1.2799
   53MOL   C19122135   2.751   3.463   0.632  0.5125  0.1519  0.2176
   53MOL   C19222136   2.849   3.435   0.520 -0.1163 -0.0149  0.2692
   53MOL   C19322137   2.783   3.434   0.385  0.0709  0.0298  0.0863
   53MOL   C19422138   2.714   3.302   0.352  0.3995  0.0066 -0.2832
   53MOL   C19522139   2.668   3.280   0.208  0.1046  0.2839 -0.4052
   53MOL   C19622140   2.571   3.158   0.180 -0.7378  0.0163 -0.1637
   53MOL   C19722141   2.649   3.030   0.220 -0.8277 -0.2621  0.0835
   53MOL   H19822142   2.735   3.570   0.647  0.2499 -0.1323  2.0511
   53MOL   H19922143   2.655   3.417   0.611  0.2332 -0.5577  2.8246
   53MOL   H20022144   2.899   3.339   0.535 -1.5933 -0.9834 -0.8358
   53MOL   H20122145   2.854   3.429   0.302 -0.0301  0.0504 -0.0021
   53MOL   H20222146   2.727   3.525   0.367  1.2145  0.4894 -1.2542
   53MOL   H20322147   2.635   3.277   0.423 -0.4295 -1.4652 -1.6717
   53MOL   H20422148   2.790   3.223   0.360 -0.8617 -1.3103 -0.9984
   53MOL   H20522149   2.614   3.370   0.179  0.3817  0.9123  0.9698
   53MOL   H20622150   2.751   3.259   0.141  1.4291  0.6359  1.0899
   53MOL   H20722151   2.534   3.170   0.078  0.5628  1.2436 -0.5053
   53MOL   H20822152   2.478   3.156   0.236 -1.6193 -0.1377 -1.6090
   53MOL   H20922153   2.567   2.958   0.211 -2.6339  1.5250  1.8883
   53MOL   H21022154   2.687   3.036   0.322  2.0539  1.0032 -1.0235
   53MOL   H21122155   2.727   3.020   0.144  1.1234 -0.1271  2.0451
   53MOL   C21222156   2.961   3.540   0.519  0.1659  0.6763  0.0821
   53MOL   C21322157   3.087   3.485   0.444 -0.4533 -0.0045 -0.4652
   53MOL   C21422158   3.151   3.594   0.351 -0.3821  0.0719 -0.1167
   53MOL   C21522159   3.226   3.707   0.430  0.1412 -0.6687 -0.1109
   53MOL   C21622160   3.197   3.849   0.371 -0.3879 -0.5267  0.1308
   53MOL   C21722161   3.251   3.873   0.231 -0.6658  0.2311  0.4966
   53MOL   C21822162   3.214   4.008   0.162  0.9540 -0.0737  0.0167
   53MOL   H21922163   2.977   3.566   0.623 -1.9528  0.0772  0.5928
   53MOL   H22022164   2.917   3.626   0.468  1.5151  0.3274 -1.7311
   53MOL   H22122165   3.059   3.415   0.366  1.6636 -1.3315 -0.0774
   53MOL   H22222166   3.225   3.550   0.284  0.4097 -1.4851  1.7145
   53MOL   H22322167   3.073   3.633   0.285 -1.8250 -0.5152  1.1979
   53MOL   H22422168   3.330   3.674   0.435  0.0619 -0.8468  0.4025
   53MOL   H22522169   3.191   3.711   0.533 -2.3573 -1.3763 -0.8936
   53MOL   H22622170   3.091   3.874   0.382 -0.5193  0.2457 -2.7000
   53MOL   H22722171   3.253   3.921   0.431 -0.9988  1.2555 -1.3831
   53MOL   H22822172   3.358   3.873   0.253 -0.7377 -0.4284  0.8674
   53MOL   H22922173   3.226   3.786   0.171  1.8331 -0.5224  0.4779
   53MOL   H23022174   3.277   4.094   0.187  0.6453  0.1288  0.0953
   53MOL   H23122175   3.111   4.040   0.175  0.0187 -2.1620 -1.9583
   53MOL   H23222176   3.224   3.990   0.055  0.3625 -1.2549  0.1530
   53MOL   C23322177   3.200   3.419   0.530 -0.0076  0.4908  0.2755
   53MOL   C23422178   3.262   3.289   0.461  0.2807 -0.1369  0.7407
   53MOL   C23522179   3.400   3.248   0.518 -0.5979 -0.0443  0.2570
   53MOL   C23622180   3.508   3.354   0.514 -0.4932 -0.3923 -0.8086
   53MOL   C23722181   3.645   3.308   0.565  0.0044 -0.5956 -0.0712
   53MOL   C23822182   3.748   3.417   0.545 -0.2197  0.2794  0.4127
   53MOL   C23922183   3.887   3.355   0.565 -0.4569 -0.2094  0.0171
   53MOL   H24022184   3.150   3.384   0.620  0.7987  0.0679  0.5666
   53MOL   H24122185   3.273   3.493   0.561  0.6190  0.7078 -1.5995
   53MOL   H24222186   3.277   3.313   0.356  0.3653 -3.6745 -0.1239
   53MOL   H24322187   3.436   3.167   0.455 -0.5964  0.6271 -0.6297
   53MOL   H24422188   3.401   3.219   0.623 -1.5274  0.3142  0.3666
   53MOL   H24522189   3.473   3.445   0.562 -2.9843 -0.4670 -2.3938
   53MOL   H24622190   3.510   3.385   0.409 -0.3100 -2.4480 -1.4322
   53MOL   H24722191   3.678   3.227   0.500  1.5600  0.5397 -0.7269
   53MOL   H24822192   3.641   3.280   0.670  0.6916  0.6716  0.3023
   53MOL   H24922193   3.748   3.471   0.450  1.7450 -0.6882 -0.1801
   53MOL   H25022194   3.735   3.482   0.631 -1.4365 -1.1211  1.3035
   53MOL   H25122195   3.897   3.281   0.485 -1.1407  0.7515 -0.9797
   53MOL   H25222196   3.977   3.416   0.564 -0.2299 -0.5470 -0.3641
   53MOL   H25322197   3.898   3.298   0.657  0.3335 -1.9237 -1.1037
   53MOL   C25422198   3.165   3.174   0.460  0.6040 -0.1740 -0.4075
   53MOL   C25522199   3.152   3.079   0.338 -0.0487 -0.6706 -0.8146
   53MOL   C25622200   3.084   3.143   0.211  0.6217 -1.2774 -0.1055
   53MOL   C25722201   3.177   3.201   0.109  0.2208  0.3257 -0.0142
   53MOL   C25822202   3.099   3.269   7.712 -0.3350 -0.7210 -0.6291
   53MOL   C25922203   3.187   3.331   7.603 -0.4497  0.2273  0.0054
   53MOL   C26022204   3.253   3.459   7.644  0.4342  0.5379 -0.0735
   53MOL   H26122205   3.063   3.211   0.472  1.1306  1.3904 -0.7144
   53MOL   H26222206   3.188   3.125   0.555 -0.0072  1.1253  0.4128
   53MOL   H26322207   3.254   3.062   0.304  0.7784 -1.3039  1.8173
   53MOL   H26422208   3.005   3.209   0.246  0.4866 -2.7149  2.4463
   53MOL   H26522209   3.031   3.061   0.161 -0.2163 -1.8875  1.7122
   53MOL   H26622210   3.247   3.278   0.143 -0.6085  1.4718 -0.8647
   53MOL   H26722211   3.225   3.117   0.061 -1.5539 -1.2112  0.8248
   53MOL   H26822212   3.010   3.319   0.038 -0.0114 -0.8456  0.2577
   53MOL   H26922213   3.056   3.186   7.656  0.9076 -2.0949  0.4423
   53MOL   H27022214   3.275   3.272   7.577  0.6023  1.7223  0.1580
   53MOL   H27122215   3.133   3.340   7.508  1.1092  0.3535 -0.8785
   53MOL   H27222216   3.188   3.516   7.711 -1.2639 -0.2510 -1.0187
   53MOL   H27322217   3.351   3.445   7.690  0.9219 -0.2393 -1.3418
   53MOL   H27422218   3.268   3.509   7.548  2.7310  0.9358  0.4562
   53MOL   C27522219   3.088   2.940   0.388  0.0310  0.6653  1.2634
   53MOL   C27622220   3.044   2.829   0.291  0.1611 -0.5311 -0.9987
   53MOL   C27722221   2.998   2.709   0.377  0.2218  0.7865  0.2118
   53MOL   C27822222   2.873   2.717   0.472 -0.3513 -0.7438 -0.2979
   53MOL   C27922223   2.739   2.693   0.403 -1.1264  0.0365  0.2490
   53MOL   C28022224   2.620   2.688   0.503 -0.8218 -0.0967  0.3835
   53MOL   C28122225   2.489   2.683   0.437  0.1091  0.2486 -0.0516
   53MOL   H28222226   2.995   2.965   0.441 -0.8682  1.1850 -0.5250
   53MOL   H28322227   3.154   2.894   0.461 -1.9332 -1.8689  1.5243
   53MOL   H28422228   2.958   2.869   0.238  0.0523  0.4691 -0.0859
   53MOL   H28522229   2.973   2.632   0.304  0.8413 -0.8400  1.6863
   53MOL   H28622230   3.087   2.678   0.432 -0.2920 -0.4606  0.3467
   53MOL   H28722231   2.872   2.815   0.518  0.2420 -0.9654  0.1874
   53MOL   H28822232   2.876   2.648   0.556  0.6208  1.6272  1.6629
   53MOL   H28922233   2.742   2.601   0.344 -2.2348 -0.1323  0.4537
   53MOL   H29022234   2.722   2.775   0.334 -2.6131  0.1239  0.7112
   53MOL   H29122235   2.632   2.602   0.570  1.2829 -1.1421 -1.2482
   53MOL   H29222236   2.628   2.776   0.567  0.6792 -0.2462  0.4379
   53MOL   H29322237   2.479   2.609   0.358  0.0351  0.0784  0.1166
   53MOL   H29422238   2.468   2.773   0.379  0.2895  1.6646  2.0248
   53MOL   H29522239   2.398   2.670   0.494  2.1903 -0.5821  3.2309
   53MOL   C29622240   3.157   2.783   0.202 -0.4063  0.3751  0.2341
   53MOL   C29722241   3.120   2.694   0.076  0.1346 -0.4341 -0.1045
   53MOL   C29822242   3.240   2.639   7.704  0.1262 -0.4895 -0.3175
   53MOL   C29922243   3.340   2.553   0.079  0.7543  0.0161 -0.4578
   53MOL   C30022244   3.456   2.504   7.708 -0.1181  0.2033 -0.4325
   53MOL   C30122245   3.419   2.379   7.632  0.4293 -0.4808  0.1174
   53MOL   C30222246   3.542   2.326   7.553  0.4336 -0.0248 -0.5231
   53MOL   H30322247   3.211   2.871   0.164  0.9006 -0.5587 -0.1141
   53MOL   H30422248   3.231   2.734   0.266 -0.5315  0.2057  0.2465
   53MOL   H30522249   3.069   2.606   0.115 -0.3368 -0.1081  0.0182
   53MOL   H30622250   3.222   2.586   7.611  2.1132 -1.0089 -0.4159
   53MOL   H30722251   3.290   2.731   7.674 -1.3272  0.6741  0.7090
   53MOL   H30822252   3.297   2.473   0.140  1.7671 -1.5583 -1.7599
   53MOL   H30922253   3.382   2.619   0.155 -0.2680  2.4754 -1.9745
   53MOL   H31022254   3.550   2.486   0.046 -0.9152 -1.4199  0.4959
   53MOL   H31122255   3.484   2.587   7.643 -0.8973 -0.2088 -1.3247
   53MOL   H31222256   3.380   2.295   7.689  0.0921 -0.2010  0.2991
   53MOL   H31322257   3.333   2.390   7.566  1.5117  2.0977 -0.9012
   53MOL   H31422258   3.553   2.387   7.464  2.3829 -0.0910 -0.3708
   53MOL   H31522259   3.635   2.324   7.610  0.7456  1.1631 -0.9727
   53MOL   H31622260   3.527   2.226   7.511  2.3942 -0.0923 -1.1311
   53MOL   C31722261   3.017   2.775   7.702 -0.1282 -0.0093 -0.0514
   53MOL   C31822262   2.905   2.691   7.631 -0.3402  0.3012 -0.0372
   53MOL   C31922263   2.796   2.640   0.020 -0.1296 -0.3340  0.8161
   53MOL   C32022264   2.739   2.501   7.693  0.4746  0.6225  0.1480
   53MOL   C32122265   2.652   2.437   0.087  0.1236 -0.1837  0.3423
   53MOL   C32222266   2.555   2.330   0.025  0.3838 -0.0777 -0.2188
   53MOL   C32322267   2.475   2.272   0.133  0.1928 -0.1659  0.6590
   53MOL   H32422268   3.069   2.840   7.633  1.0684 -1.4895 -0.5719
   53MOL   H32522269   2.961   2.850   0.044 -0.8405 -1.2685  0.9788
   53MOL   H32622270   2.950   2.604   7.583 -0.6378  0.4906 -0.6666
   53MOL   H32722271   2.710   2.707   0.029  1.2756  1.3284  2.2812
   53MOL   H32822272   2.827   2.648   0.124  4.7862 -0.8012 -0.4825
   53MOL   H32922273   2.824   2.435   7.679 -0.3044 -0.8074  1.9380
   53MOL   H33022274   2.673   2.511   7.607 -2.0049  0.5543  1.9836
   53MOL   H33122275   2.603   2.522   0.135 -0.1681  1.6426 -2.9605
   53MOL   H33222276   2.719   2.397   0.162  1.2084  1.7075  0.4325
   53MOL   H33322277   2.610   2.255   7.683  1.4011 -0.0265  0.6946
   53MOL   H33422278   2.486   2.390   7.680  0.1646 -0.5231 -0.4143
   53MOL   H33522279   2.407   2.344   0.179  0.6121 -0.2090  1.3487
   53MOL   H33622280   2.530   2.228   0.216 -1.3481 -1.2351  1.1310
   53MOL   H33722281   2.413   2.196   0.086  1.7108  0.7259 -2.9983
   53MOL   C33822282   2.840   2.771   7.522  0.2058  0.1338  0.2673
   53MOL   C33922283   2.912   2.771   7.390  0.0854  0.5092  0.2009
   53MOL   C34022284   2.918   2.912   7.318  1.5512 -0.9649 -0.1072
   53MOL   C34122285   3.010   2.926   7.200  0.2096 -0.6352 -0.5492
   53MOL   C34222286   3.019   3.064   7.120  0.4413  0.4640 -0.2446
   53MOL   C34322287   3.116   3.064   7.001 -0.6884  0.7507  0.4934
   53MOL   C34422288   3.116   3.202   6.940 -0.0485  0.6811  0.0573
   53MOL   H34522289   2.819   2.870   7.561  0.2522  0.5094 -0.6276
   53MOL   H34622290   2.742   2.727   7.504  0.5960 -0.8076  0.4492
   53MOL   H34722291   3.018   2.747   7.391 -0.0344 -0.5265 -3.1981
   53MOL   H34822292   2.814   2.934   7.291  1.0569 -3.4910 -0.4631
   53MOL   H34922293   2.949   2.981   7.396 -0.7651 -2.0027  1.8164
   53MOL   H35022294   2.966   2.868   7.119  0.2549 -0.2776 -0.8325
   53MOL   H35122295   3.107   2.885   7.226  1.5922  2.6501 -0.2377
   53MOL   H35222296   2.928   3.115   7.091  1.1702  1.8316 -0.1688
   53MOL   H35322297   3.061   3.136   7.190 -0.3437 -0.3331  1.0637
   53MOL   H35422298   3.212   3.031   7.041 -1.4592  0.0416  1.7890
   53MOL   H35522299   3.090   2.984   6.931  0.2216 -0.5127  1.5733
   53MOL   H35622300   3.178   3.196   6.851  2.7428 -2.6670  2.1261
   53MOL   H35722301   3.159   3.272   7.012 -2.4939  2.3574 -0.0203
   53MOL   H35822302   3.018   3.238   6.908 -1.4150 -0.6283  2.5882
   53MOL   C35922303   2.853   2.660   7.293  0.5379  0.1957  0.4836
   53MOL   C36022304   2.858   2.510   7.334 -0.3970  0.1384  0.1231
   53MOL   C36122305   2.781   2.423   7.233  0.3831 -0.4286  0.2605
   53MOL   C36222306   2.775   2.274   7.280 -0.0247  0.3931  0.5766
   53MOL   C36322307   2.664   2.201   7.203  0.0810  0.2900 -0.1486
   53MOL   C36422308   2.642   2.053   7.238  0.5024  0.4536 -0.3250
   53MOL   C36522309   2.572   2.029   7.372  0.6640  0.5431 -0.3914
   53MOL   H36622310   2.885   2.668   7.189 -1.4843 -0.9806 -0.2479
   53MOL   H36722311   2.746   2.675   7.285  0.3694 -1.2854 -0.1204
   53MOL   H36822312   2.813   2.496   7.432 -0.4150  0.6621  0.1913
   53MOL   H36922313   2.680   2.462   7.223  0.7958  0.4715 -0.5116
   53MOL   H37022314   2.829   2.421   7.136 -0.4835 -1.2031 -0.1544
   53MOL   H37122315   2.878   2.238   7.275 -0.4710 -1.5035  3.6971
   53MOL   H37222316   2.741   2.265   7.383 -2.1853 -2.0595 -0.2959
   53MOL   H37322317   2.566   2.247   7.218  0.8484  0.9230  3.2486
   53MOL   H37422318   2.695   2.191   7.099  2.4896  1.8000  0.3893
   53MOL   H37522319   2.590   2.009   7.153  0.2285  0.2102 -0.0359
   53MOL   H37622320   2.742   2.014   7.253  1.0497  3.0422  3.4848
   53MOL   H37722321   2.468   2.060   7.377  1.0840  2.2277 -1.5009
   53MOL   H37822322   2.573   1.923   7.397 -4.1757  0.0429 -1.7744
   53MOL   H37922323   2.635   2.079   7.445 -0.2988 -0.3268  1.0711
   53MOL   C38022324   3.008   2.455   7.350 -0.3038  0.2153 -0.1773
   53MOL   C38122325   3.092   2.433   7.219 -0.3805 -0.2164 -0.3190
   53MOL   C38222326   3.146   2.564   7.154 -0.2767  0.1254  0.4670
   53MOL   C38322327   3.105   2.593   7.006  0.6079  0.2681  0.5473
   53MOL   C38422328   3.206   2.681   6.934  0.0239 -0.0851  0.3839
   53MOL   C38522329   3.146   2.725   6.793  0.3316  0.2370  0.1393
   53MOL   C38622330   3.248   2.786   6.701  0.4786  0.2840 -0.6931
   53MOL   H38722331   3.069   2.520   7.413  0.0112 -0.2735  0.0302
   53MOL   H38822332   3.009   2.361   7.404  2.5060 -0.2483 -0.9745
   53MOL   H38922333   3.046   2.373   7.140  0.4376 -0.0602 -0.9222
   53MOL   H39022334   3.255   2.572   7.150 -0.2997  0.0670 -0.4849
   53MOL   H39122335   3.119   2.656   7.206 -1.0505  0.4752 -0.5207
   53MOL   H39222336   3.102   2.492   6.965 -2.1948 -0.4091  2.3292
   53MOL   H39322337   3.004   2.633   7.006  1.4770  2.5821 -0.8981
   53MOL   H39422338   3.218   2.772   6.993  0.2930  0.4524 -0.4872
   53MOL   H39522339   3.303   2.632   6.926  0.6361  1.1849 -0.0776
   53MOL   H39622340   3.064   2.796   6.803 -0.9797 -1.4813  2.0806
   53MOL   H39722341   3.099   2.641   6.742  1.3175 -0.0939 -0.2300
   53MOL   H39822342   3.311   2.861   6.748 -1.1441  2.4871 -1.9335
   53MOL   H39922343   3.204   2.831   6.612 -2.8796  0.4534  0.9764
   53MOL   H40022344   3.314   2.705   6.669 -1.4245 -2.2834  1.6655
   53MOL   C40122345   3.216   2.351   7.260 -0.3327  0.0410  0.9702
   53MOL   C40222346   3.307   2.318   7.139  0.4044  0.0846  0.5552
   53MOL   C40322347   3.413   2.212   7.177 -0.2063 -0.0103 -0.2176
   53MOL   C40422348   3.506   2.162   7.069  0.1562 -0.0852 -0.4151
   53MOL   C40522349   3.621   2.082   7.127 -0.1808 -0.3425  0.5775
   53MOL   C40622350   3.727   2.014   7.038  0.1922 -0.3480  0.0740
   53MOL   C40722351   3.799   2.114   6.939  0.9419  0.1340 -0.7642
   53MOL   H40822352   3.181   2.258   7.304 -2.0521  0.8301  1.3010
   53MOL   H40922353   3.271   2.406   7.337  3.2378 -0.5839 -0.9937
   53MOL   H41022354   3.365   2.405   7.107 -0.8583  0.9981  0.7181
   53MOL   H41122355   3.372   2.127   7.232  1.7286 -0.1919  0.9850
   53MOL   H41222356   3.475   2.267   7.247 -2.2591  1.1697  0.7043
   53MOL   H41322357   3.535   2.247   7.007  1.6904  0.3024  0.8048
   53MOL   H41422358   3.452   2.103   6.996 -1.3510 -0.0728  0.6623
   53MOL   H41522359   3.676   2.155   7.185 -0.4677 -0.6118  1.1874
   53MOL   H41622360   3.579   2.012   7.200  1.0526 -0.6579  0.9827
   53MOL   H41722361   3.800   1.966   7.102 -1.8208  0.6988  3.2914
   53MOL   H41822362   3.687   1.935   6.973  0.1225 -0.6831  0.5236
   53MOL   H41922363   3.860   2.193   6.983  1.9129 -0.3307 -1.2565
   53MOL   H42022364   3.719   2.177   6.899  1.0995  1.0232  0.2976
   53MOL   H42122365   3.852   2.068   6.855  1.8552 -0.9814  0.4138
   53MOL   H42222366   3.250   2.298   7.048  1.6864  0.2324 -0.2857
   54MOL     C122367   1.239   6.781   6.017  0.0105  1.0143 -0.2929
   54MOL     C222368   1.312   6.735   5.890 -0.8659 -0.3583 -0.1609
   54MOL     C322369   1.410   6.621   5.927 -0.6346  1.0957  0.5880
   54MOL     C422370   1.491   6.568   5.802  0.3035 -0.3764  0.0938
   54MOL     C522371   1.543   6.426   5.830  0.7588  0.4606  0.6751
   54MOL     C622372   1.621   6.370   5.712  0.0842 -0.8324 -0.3796
   54MOL     C722373   1.687   6.238   5.737 -0.4258 -0.1552  0.2006
   54MOL     H822374   1.172   6.866   6.005 -0.5400  0.7960  1.1745
   54MOL     H922375   1.300   6.812   6.102  1.3053 -4.2361  0.8424
   54MOL    H1022376   1.245   6.701   5.811 -2.7248  2.5324  0.1216
   54MOL    H1122377   1.468   6.647   6.016  0.7352  1.1669 -0.3104
   54MOL    H1222378   1.348   6.539   5.963  1.3062 -1.6004 -1.9541
   54MOL    H1322379   1.431   6.574   5.711  0.7997 -0.0071 -0.2070
   54MOL    H1422380   1.574   6.637   5.790 -0.3685  0.2747 -0.8173
   54MOL    H1522381   1.462   6.354   5.841  0.2492  0.6708 -1.4585
   54MOL    H1622382   1.588   6.413   5.929  1.1298 -1.3632  0.2882
   54MOL    H1722383   1.702   6.441   5.693 -1.0397  0.7055  0.5288
   54MOL    H1822384   1.563   6.365   5.619 -2.0663 -1.5873  0.9708
   54MOL    H1922385   1.608   6.164   5.724 -0.0939 -0.2358 -1.3930
   54MOL    H2022386   1.717   6.236   5.842 -0.9285  0.5759  0.3608
   54MOL    H2122387   1.772   6.212   5.674  0.1210 -0.0695  0.8945
   54MOL    H2222388   1.193   6.693   6.060 -0.6074  0.3528 -2.2445
   54MOL    C2322389   1.385   6.857   5.833 -0.6457 -0.2613  0.6329
   54MOL    C2422390   1.298   6.979   5.786  0.0689 -0.0933 -0.3908
   54MOL    C2522391   1.187   6.941   5.688  0.4088 -0.0833  0.1864
   54MOL    C2622392   1.077   7.047   5.665  0.0569  0.7238  0.1414
   54MOL    C2722393   0.961   7.024   5.766 -0.1051 -0.4075  0.5447
   54MOL    C2822394   0.854   7.139   5.756 -0.7771 -0.3558 -0.2058
   54MOL    C2922395   0.726   7.103   5.840  0.6121 -1.1496  1.0600
   54MOL    H3022396   1.471   6.891   5.891 -0.1342  0.8381 -0.7437
   54MOL    H3122397   1.428   6.820   5.740 -1.2277  0.5632  0.0284
   54MOL    H3222398   1.250   7.013   5.878 -1.0740  1.7757 -1.6584
   54MOL    H3322399   1.139   6.847   5.713  0.4870 -0.2271 -0.1912
   54MOL    H3422400   1.238   6.920   5.593 -0.4536 -0.8209 -0.1196
   54MOL    H3522401   1.029   7.034   5.568 -2.8016 -2.8393  1.8835
   54MOL    H3622402   1.113   7.149   5.680  0.0053  0.7529  0.0658
   54MOL    H3722403   0.998   7.010   5.867 -1.9748  0.8210  1.4398
   54MOL    H3822404   0.902   6.935   5.745 -0.6609  0.0368  0.1799
   54MOL    H3922405   0.823   7.149   5.653 -0.4892 -0.7024 -0.3273
   54MOL    H4022406   0.901   7.233   5.788 -2.4599  0.3765  0.1903
   54MOL    H4122407   0.697   6.998   5.831  1.0735 -1.0777 -1.5740
   54MOL    H4222408   0.737   7.148   5.939  0.9345  1.4203 -0.1066
   54MOL    H4322409   0.641   7.160   5.801  0.8467 -1.6928 -0.2713
   54MOL    C4422410   1.391   7.088   5.734  0.1858 -0.5006  0.1099
   54MOL    C4522411   1.506   7.161   5.820 -0.0889  0.6895 -0.3611
   54MOL    C4622412   1.567   7.280   5.732  0.4975  0.5996  0.7133
   54MOL    C4722413   1.688   7.232   5.647 -0.1004 -0.4252  0.0608
   54MOL    C4822414   1.758   7.354   5.583  0.4132 -0.1738  0.5670
   54MOL    C4922415   1.873   7.314   5.491 -0.0055 -0.8494 -0.0933
   54MOL    C5022416   1.938   7.451   5.438  0.0715 -0.4074  0.0323
   54MOL    H5122417   1.325   7.172   5.711  0.4333  0.1819  1.7500
   54MOL    H5222418   1.437   7.055   5.641  1.7525  0.9344  0.3357
   54MOL    H5322419   1.578   7.085   5.850 -0.4851  0.3346 -0.2982
   54MOL    H5422420   1.586   7.372   5.788 -0.7450 -0.5628  3.1147
   54MOL    H5522421   1.488   7.316   5.665  0.3835  0.0182  0.5359
   54MOL    H5622422   1.762   7.175   5.703  0.8297 -0.6351 -1.3487
   54MOL    H5722423   1.663   7.165   5.565 -1.8059  0.0842  0.1550
   54MOL    H5822424   1.792   7.414   5.667  2.3164 -0.6175  0.1277
   54MOL    H5922425   1.676   7.410   5.539  0.8763  0.1609  0.1215
   54MOL    H6022426   1.822   7.262   5.410 -2.3067 -0.8405  1.3312
   54MOL    H6122427   1.943   7.245   5.538 -0.0099 -0.6386  0.2263
   54MOL    H6222428   2.017   7.438   5.364  2.5172 -0.9669  2.6231
   54MOL    H6322429   1.965   7.512   5.525 -1.0977  2.6683 -1.6741
   54MOL    H6422430   1.862   7.498   5.376  0.5427 -2.2074 -1.9393
   54MOL    C6522431   1.457   7.225   5.949 -0.0536 -0.0565  0.7969
   54MOL    C6622432   1.571   7.257   6.054  0.1827  0.3431 -0.2814
   54MOL    C6722433   1.645   7.142   6.117 -0.3222 -0.1194  0.0394
   54MOL    C6822434   1.557   7.032   6.196  0.1203  0.0573 -0.0467
   54MOL    C6922435   1.645   6.920   6.255  0.3503  1.0802 -0.6325
   54MOL    C7022436   1.548   6.820   6.325 -0.6885  0.2300 -0.0588
   54MOL    C7122437   1.461   6.882   6.438  0.6750  0.2001 -0.1380
   54MOL    H7222438   1.403   7.314   5.917  0.7796  0.2891  0.3309
   54MOL    H7322439   1.400   7.148   6.001  2.1110 -2.0164  0.3598
   54MOL    H7422440   1.644   7.315   5.997 -0.1517  1.0245 -0.0269
   54MOL    H7522441   1.699   7.101   6.032  1.9329  0.3335  1.2142
   54MOL    H7622442   1.724   7.172   6.186  0.2879  0.0346 -0.7225
   54MOL    H7722443   1.502   7.077   6.278 -1.2290  0.1435 -0.9791
   54MOL    H7822444   1.481   6.999   6.125 -0.1956 -0.0014  0.3171
   54MOL    H7922445   1.711   6.882   6.177 -0.0375  0.4506 -0.6572
   54MOL    H8022446   1.703   6.966   6.335  0.4781 -0.3051  0.1003
   54MOL    H8122447   1.620   6.750   6.368  2.3613  1.5979 -2.7444
   54MOL    H8222448   1.494   6.752   6.258  2.7125 -1.5196 -1.1312
   54MOL    H8322449   1.378   6.943   6.405  1.0530  0.6121 -0.3352
   54MOL    H8422450   1.406   6.805   6.493  1.6695 -0.9670 -0.7365
   54MOL    H8522451   1.529   6.930   6.509  0.0709 -1.5229  1.6813
   54MOL    C8622452   1.517   7.352   6.162 -0.5545 -0.3642  0.3681
   54MOL    C8722453   1.619   7.408   6.271 -0.0795 -0.3022  0.5673
   54MOL    C8822454   1.744   7.464   6.194  0.1328 -0.3725  0.2575
   54MOL    C8922455   1.856   7.509   6.293  0.1954  0.5409  0.3049
   54MOL    C9022456   1.982   7.578   6.227  0.1559  0.1211 -0.9257
   54MOL    C9122457   1.965   0.007   6.169 -0.3245 -0.5212  0.2775
   54MOL    C9222458   2.089   0.037   6.087  0.0817 -0.5987  0.1138
   54MOL    H9322459   1.476   7.437   6.108  0.6418 -1.3152 -2.1298
   54MOL    H9422460   1.435   7.309   6.221 -0.3660  0.5878  1.3440
   54MOL    H9522461   1.649   7.319   6.326 -2.4946 -1.2036  0.4561
   54MOL    H9622462   1.783   7.393   6.122 -1.3835 -2.1875  1.1724
   54MOL    H9722463   1.710   7.553   6.142  2.4140  0.8098  0.7482
   54MOL    H9822464   1.811   7.589   6.352  0.0503  0.2476  0.5919
   54MOL    H9922465   1.889   7.431   6.362 -2.3450  1.3665  2.5396
   54MOL   H10022466   2.017   7.505   6.154  0.0515 -0.3355 -0.5208
   54MOL   H10122467   2.061   7.580   6.302 -0.6905 -0.8583 -0.0084
   54MOL   H10222468   1.876   0.019   6.108  1.9711  0.0344 -3.0771
   54MOL   H10322469   1.959   0.074   6.255 -0.4982 -0.1340 -0.0370
   54MOL   H10422470   2.094   7.689   5.996 -0.6578  0.0369 -0.3611
   54MOL   H10522471   2.176   0.011   6.147 -1.0251  0.8297  2.3981
   54MOL   H10622472   2.093   0.142   6.060  0.9259 -0.5006  0.6147
   54MOL   C10722473   1.554   7.515   6.369 -0.4584  0.6912 -0.0497
   54MOL   C10822474   1.587   7.496   6.523  0.3224  0.2262 -0.1834
   54MOL   C10922475   1.568   7.626   6.603  0.0649  0.4261  0.5409
   54MOL   C11022476   1.454   0.007   6.564 -0.4821 -0.0895 -0.0346
   54MOL   C11122477   1.467   0.143   6.635 -0.1286 -0.5428  0.1337
   54MOL   C11222478   1.353   0.238   6.615  0.1665  0.2972  0.1230
   54MOL   C11322479   1.367   0.374   6.687  0.0323  0.3741 -0.7458
   54MOL   H11422480   1.446   7.504   6.362 -0.3086  0.0981 -1.7132
   54MOL   H11522481   1.589   7.613   6.336  2.8994 -0.8297 -1.2588
   54MOL   H11622482   1.692   7.467   6.521  0.1960 -0.4243  1.9878
   54MOL   H11722483   1.669   7.668   6.596  0.2439  0.3378  2.3618
   54MOL   H11822484   1.566   7.598   6.708  1.5519 -1.6666  0.0523
   54MOL   H11922485   1.443   0.017   6.456  1.3754 -2.7535 -0.5358
   54MOL   H12022486   1.360   7.675   6.594 -0.4631 -1.0907 -1.4001
   54MOL   H12122487   1.562   0.179   6.594 -1.0739  1.9782  0.0629
   54MOL   H12222488   1.476   0.134   6.743 -1.9230  3.0652  0.6604
   54MOL   H12322489   1.343   0.253   6.508 -0.3269  1.4624  0.3255
   54MOL   H12422490   1.257   0.201   6.650 -0.1348 -0.1302 -1.1512
   54MOL   H12522491   1.399   0.355   6.790  0.0569  0.1022 -0.8041
   54MOL   H12622492   1.440   0.440   6.641  0.6256 -0.3846 -0.8981
   54MOL   H12722493   1.274   0.431   6.693 -0.3100 -0.1538 -0.9177
   54MOL   C12822494   1.512   7.382   6.593  0.4024 -0.2533 -0.0450
   54MOL   C12922495   1.573   7.287   6.693  0.5647  0.5138 -0.1687
   54MOL   C13022496   1.689   7.199   6.629  0.4566 -0.0316  0.7162
   54MOL   C13122497   1.786   7.145   6.733  0.4800  0.1993  0.1850
   54MOL   C13222498   1.898   7.072   6.662  0.2773  0.4152 -0.1702
   54MOL   C13322499   1.858   6.929   6.631 -0.4305  0.2726 -0.2493
   54MOL   C13422500   1.960   6.847   6.553 -0.0374  0.0994  0.5946
   54MOL   H13522501   1.412   7.416   6.621 -0.7218 -1.1019 -2.8541
   54MOL   H13622502   1.480   7.320   6.510 -0.6041  0.3505 -0.1192
   54MOL   H13722503   1.619   7.342   6.775  1.3670  1.8036 -1.4598
   54MOL   H13822504   1.754   7.254   6.561 -1.2743  1.4970  0.2859
   54MOL   H13922505   1.647   7.119   6.568  0.4486  1.9131 -1.9396
   54MOL   H14022506   1.738   7.083   6.808  0.5016  0.3905  0.3591
   54MOL   H14122507   1.820   7.236   6.782 -1.3647  0.3756  1.1489
   54MOL   H14222508   1.982   7.079   6.731  0.1266  0.1825  0.0375
   54MOL   H14322509   1.927   7.115   6.567  0.3192 -2.0860 -1.3291
   54MOL   H14422510   1.771   6.924   6.566  0.1540  1.5648 -1.1672
   54MOL   H14522511   1.842   6.871   6.722  0.9524 -1.5036 -1.1014
   54MOL   H14622512   1.926   6.755   6.506  0.2553 -0.2887  1.1435
   54MOL   H14722513   2.050   6.818   6.607 -0.2599 -2.9819 -0.5641
   54MOL   H14822514   2.002   6.904   6.470 -1.6242  0.1836 -0.1620
   54MOL   C14922515   1.455   7.190   6.740  0.2200 -0.1439  0.1163
   54MOL   C15022516   1.356   7.256   6.843 -0.0699  0.4380  0.1305
   54MOL   C15122517   1.404   7.239   6.989 -1.0073 -0.1499 -0.1224
   54MOL   C15222518   1.352   7.356   7.077 -0.6513  0.1656  0.3278
   54MOL   C15322519   1.380   7.344   7.228  0.0811  0.0882  0.2989
   54MOL   C15422520   1.307   7.459   7.308  0.1494 -0.0076 -0.1826
   54MOL   C15522521   1.356   7.460   7.454 -0.7400 -0.3822  0.2574
   54MOL   H15622522   1.404   7.155   6.650 -0.0845  1.3971 -0.3229
   54MOL   H15722523   1.491   7.097   6.785 -0.8002 -1.1257 -1.0542
   54MOL   H15822524   1.351   7.364   6.828 -1.1081  0.5912  1.4668
   54MOL   H15922525   1.380   7.144   7.037 -0.0079 -0.1430  0.3913
   54MOL   H16022526   1.512   7.233   6.979 -0.9308 -0.2848  0.7591
   54MOL   H16122527   1.249   7.379   7.052 -1.2921 -1.4824  1.3909
   54MOL   H16222528   1.400   7.444   7.034  2.2607 -1.5699 -0.1269
   54MOL   H16322529   1.487   7.342   7.247 -0.0737 -0.9260  1.1174
   54MOL   H16422530   1.348   7.245   7.261  1.2766  0.5167  2.7813
   54MOL   H16522531   1.199   7.445   7.309 -0.0983  1.5579 -2.3844
   54MOL   H16622532   1.326   7.559   7.269 -0.5311  1.2597  2.5506
   54MOL   H16722533   1.462   7.483   7.458 -1.3270  3.1853 -2.0193
   54MOL   H16822534   1.336   7.371   7.514 -1.0310 -1.5763 -1.5753
   54MOL   H16922535   1.315   7.547   7.507  0.0462  0.5379 -0.6275
   54MOL   C17022536   1.217   7.191   6.821  0.4079  0.9549 -0.8814
   54MOL   C17122537   1.142   7.236   6.694  0.1664  1.0034  0.9647
   54MOL   C17222538   1.139   7.123   6.590 -0.4738  0.1774 -0.7912
   54MOL   C17322539   1.119   7.176   6.444 -0.3643 -1.0671 -0.7484
   54MOL   C17422540   1.104   7.059   6.340  0.4434  0.1395 -0.3990
   54MOL   C17522541   1.041   7.102   6.207 -0.2767  0.1680  0.1672
   54MOL   C17622542   1.123   7.206   6.132 -0.1081 -0.3104 -0.4065
   54MOL   H17722543   1.159   7.209   6.912 -0.3928 -0.3827 -1.1142
   54MOL   H17822544   1.224   7.083   6.819  2.6861  1.0802 -0.1864
   54MOL   H17922545   1.211   7.309   6.651  0.1116 -0.3853 -1.6161
   54MOL   H18022546   1.069   7.047   6.624 -2.7479  1.4536 -2.4579
   54MOL   H18122547   1.231   7.065   6.587 -0.6590 -0.0927 -1.4070
   54MOL   H18222548   1.208   7.234   6.419 -0.5448 -1.1114 -1.4997
   54MOL   H18322549   1.032   7.240   6.431  0.8391  0.3567 -1.9422
   54MOL   H18422550   1.044   6.974   6.371 -1.6066  1.8689  0.4915
   54MOL   H18522551   1.204   7.022   6.318  1.0771  2.5923 -1.8893
   54MOL   H18622552   0.938   7.140   6.209 -0.4752 -0.2937  4.5442
   54MOL   H18722553   1.039   7.011   6.147  2.0084  0.1385  0.1030
   54MOL   H18822554   1.084   7.220   6.031  1.4010 -0.5186 -1.0316
   54MOL   H18922555   1.227   7.173   6.134 -0.2880 -0.8724 -0.0727
   54MOL   H19022556   1.104   7.301   6.181 -0.2182  0.1092 -1.2562
   54MOL   C19122557   1.011   7.309   6.731 -0.1734 -0.6141 -0.2823
   54MOL   C19222558   1.033   7.448   6.809 -0.4336 -0.2743  0.4208
   54MOL   C19322559   1.090   7.566   6.726 -0.0475 -0.0575  0.1725
   54MOL   C19422560   0.992   7.597   6.607  0.1844 -0.2478 -0.2720
   54MOL   C19522561   1.053   7.656   6.477 -0.0512 -0.0068  0.0713
   54MOL   C19622562   1.112   7.554   6.386  0.0058  0.1871  0.0135
   54MOL   C19722563   1.178   7.635   6.271  0.4283 -1.1184 -0.4595
   54MOL   H19822564   0.944   7.245   6.789 -1.0218  1.3508  0.9611
   54MOL   H19922565   0.944   7.320   6.646 -1.5095  2.4157  1.0805
   54MOL   H20022566   1.100   7.436   6.894  1.1252  1.0623 -0.5929
   54MOL   H20122567   1.187   7.530   6.690 -0.1971  0.8806 -1.2017
   54MOL   H20222568   1.113   7.652   6.788  1.2867  0.3878 -0.9181
   54MOL   H20322569   0.924   7.676   6.641 -0.8253 -0.9178 -0.7211
   54MOL   H20422570   0.922   7.519   6.577  1.1021 -1.1774 -0.0152
   54MOL   H20522571   0.973   7.708   6.422 -0.1966 -3.0629 -2.7864
   54MOL   H20622572   1.128   0.011   6.515 -2.0006  1.0783  2.0817
   54MOL   H20722573   1.033   7.488   6.348  0.5253  1.4884 -3.5545
   54MOL   H20822574   1.184   7.480   6.421 -0.5517  0.2607  1.3513
   54MOL   H20922575   1.116   0.008   6.247 -0.4198 -0.7575  2.7856
   54MOL   H21022576   1.192   7.584   6.176  1.5291 -0.2124 -0.7948
   54MOL   H21122577   1.272   7.682   6.299 -0.4681  1.0262 -0.9366
   54MOL   C21222578   0.903   7.485   6.880 -0.0133  0.0485  0.2318
   54MOL   C21322579   0.866   7.410   7.015  0.2565  0.6199 -0.8648
   54MOL   C21422580   0.946   7.460   7.141  0.0424 -0.7363  0.6337
   54MOL   C21522581   0.906   7.589   7.201 -0.0260 -0.0952 -0.0702
   54MOL   C21622582   0.968   7.626   7.343  0.3779  0.4785 -0.2891
   54MOL   C21722583   0.885   0.025   7.402 -0.7982  0.0086 -0.3160
   54MOL   C21822584   0.746   7.702   7.469  0.1978  0.1348 -0.2751
   54MOL   H21922585   0.816   7.475   6.815  1.4495 -1.0195 -1.6467
   54MOL   H22022586   0.908   7.592   6.899  2.1836 -0.1390  0.9092
   54MOL   H22122587   0.897   7.306   6.999 -1.6039 -0.1105  0.2278
   54MOL   H22222588   0.925   7.390   7.222  0.1963 -0.0878  1.2375
   54MOL   H22322589   1.051   7.457   7.111 -0.6984 -3.0367 -1.9264
   54MOL   H22422590   0.799   7.574   7.220 -0.4568  1.6373 -0.9964
   54MOL   H22522591   0.899   7.673   7.132 -1.3079 -1.3727 -1.5080
   54MOL   H22622592   0.959   7.539   7.409 -1.1473 -0.2593 -1.4429
   54MOL   H22722593   1.074   7.647   7.329  0.1995  0.6282 -1.4629
   54MOL   H22822594   0.952   0.073   7.473 -0.7008  0.6742 -0.8435
   54MOL   H22922595   0.868   0.111   7.336  0.2592  0.7288  0.3415
   54MOL   H23022596   0.758   7.635   7.554 -2.9939  0.5437  0.5605
   54MOL   H23122597   0.681   7.657   7.395 -1.4977  0.8300  0.7689
   54MOL   H23222598   0.693   0.081   7.494 -0.5938 -0.6335  0.9340
   54MOL   C23322599   0.713   7.408   7.031  0.6583 -1.3103  0.7486
   54MOL   C23422600   0.646   7.337   7.156 -1.2829 -0.4148 -0.9338
   54MOL   C23522601   0.499   7.337   7.144 -0.5043 -0.0045  0.1237
   54MOL   C23622602   0.434   7.303   7.277 -0.1889 -0.2843  0.4003
   54MOL   C23722603   0.277   7.296   7.272 -0.1346 -0.3533 -0.6319
   54MOL   C23822604   0.201   7.231   7.388  0.5820 -0.5663  0.8778
   54MOL   C23922605   0.273   7.123   7.464 -0.8575  0.2208  0.2099
   54MOL   H24022606   0.665   7.366   6.943  0.1878 -0.1219  0.4348
   54MOL   H24122607   0.677   7.511   7.032  0.9080 -1.2117 -0.4945
   54MOL   H24222608   0.684   7.392   7.242 -0.3480 -1.5012 -0.6284
   54MOL   H24322609   0.463   7.262   7.073 -1.0369 -0.7457  1.1627
   54MOL   H24422610   0.454   7.432   7.114  1.1090  0.6932 -0.1181
   54MOL   H24522611   0.467   7.378   7.349  1.3155 -0.7430  0.2000
   54MOL   H24622612   0.471   7.205   7.304  0.3272 -0.5851 -1.3786
   54MOL   H24722613   0.246   7.234   7.189 -3.1206 -0.6877  0.6600
   54MOL   H24822614   0.245   7.400   7.268  0.4649 -0.0218  1.9213
   54MOL   H24922615   0.196   7.310   7.463  0.0740 -0.2069  0.4698
   54MOL   H25022616   0.097   7.215   7.360  0.6491 -1.3978  1.0796
   54MOL   H25122617   0.367   7.162   7.501 -0.7246  0.4560 -0.3720
   54MOL   H25222618   0.209   7.095   7.548 -2.4639 -2.2136 -1.7593
   54MOL   H25322619   0.281   7.034   7.401 -1.2416  0.1433  0.2641
   54MOL   C25422620   0.713   7.193   7.177 -0.2156  0.6104  0.2592
   54MOL   C25522621   0.673   7.091   7.065 -0.0766 -0.1125 -0.3232
   54MOL   C25622622   0.552   6.993   7.107  0.3997  0.2119 -0.1705
   54MOL   C25722623   0.603   6.875   7.195  0.5788 -0.4321 -0.1805
   54MOL   C25822624   0.491   6.809   7.276 -0.0950  0.5919  0.1978
   54MOL   C25922625   0.538   6.716   7.389 -0.0658  1.3687 -0.3713
   54MOL   C26022626   0.619   6.592   7.332 -0.0401 -0.3455 -0.1036
   54MOL   H26122627   0.688   7.146   7.273 -2.3448  1.1267 -0.0168
   54MOL   H26222628   0.821   7.198   7.173 -0.1944 -0.9811 -2.3665
   54MOL   H26322629   0.640   7.161   6.988 -0.6641  2.2424  1.9879
   54MOL   H26422630   0.509   6.958   7.013  0.5404 -1.0446  0.2121
   54MOL   H26522631   0.481   7.045   7.170  0.0986 -0.3710 -0.0226
   54MOL   H26622632   0.661   6.808   7.131  0.8900  0.0456 -0.3974
   54MOL   H26722633   0.679   6.913   7.263  0.7139 -3.2589  1.3258
   54MOL   H26822634   0.424   6.757   7.208 -2.8966  0.4729  2.9622
   54MOL   H26922635   0.432   6.887   7.324  3.3783  2.0177  2.3973
   54MOL   H27022636   0.598   6.779   7.454  1.3997 -0.1120 -0.2629
   54MOL   H27122637   0.458   6.676   7.451 -0.4792  0.5502 -1.4177
   54MOL   H27222638   0.672   6.541   7.412  3.4905 -1.8116 -3.2280
   54MOL   H27322639   0.553   6.518   7.287 -0.8364  1.0377 -1.2898
   54MOL   H27422640   0.688   6.618   7.251 -0.4301 -0.9454 -0.6352
   54MOL   C27522641   0.798   7.023   6.998  0.2279  0.6483 -0.5296
   54MOL   C27622642   0.782   6.915   6.887 -0.0267 -0.0826  0.3762
   54MOL   C27722643   0.923   6.852   6.864  0.2169  0.2661  0.4025
   54MOL   C27822644   0.931   6.701   6.837  0.3480  0.1820 -0.2472
   54MOL   C27922645   1.075   6.650   6.796 -0.0814  0.0217 -0.2025
   54MOL   C28022646   1.073   6.502   6.819 -0.2506  0.0252  0.1850
   54MOL   C28122647   1.196   6.423   6.789 -0.0479  0.4261  0.2384
   54MOL   H28222648   0.862   6.990   7.080  0.5426  0.5520 -0.8126
   54MOL   H28322649   0.865   7.100   6.959 -1.5415  1.4706 -2.0097
   54MOL   H28422650   0.714   6.841   6.931 -0.3069  0.5014  0.9320
   54MOL   H28522651   0.973   6.906   6.784 -2.4102  2.1642 -0.0613
   54MOL   H28622652   0.995   6.865   6.945  0.9973  1.2921 -0.4424
   54MOL   H28722653   0.859   6.678   6.758  0.1343 -0.3802  0.1038
   54MOL   H28822654   0.892   6.642   6.920  0.6753 -1.7478 -1.4367
   54MOL   H28922655   1.140   6.704   6.865 -3.0365  0.6977  2.1654
   54MOL   H29022656   1.094   6.672   6.691  1.5252  1.4923  0.3728
   54MOL   H29122657   1.044   6.477   6.921 -0.7553 -1.4808 -0.3150
   54MOL   H29222658   0.983   6.467   6.769 -0.3733 -1.4030  1.3699
   54MOL   H29322659   1.280   6.433   6.858  0.1544  0.5840 -0.0311
   54MOL   H29422660   1.223   6.443   6.686 -2.0342 -3.4392 -1.1342
   54MOL   H29522661   1.175   6.316   6.781  1.3771  0.3602 -3.2867
   54MOL   C29622662   0.710   6.963   6.762  0.7033 -0.0069 -0.4343
   54MOL   C29722663   0.659   6.859   6.664 -0.4933  0.1538 -0.8623
   54MOL   C29822664   0.752   6.863   6.541 -0.2489 -0.6661 -0.1516
   54MOL   C29922665   0.756   6.723   6.466  0.3420 -0.2181  0.2529
   54MOL   C30022666   0.890   6.689   6.391  0.4997  0.3462  0.5019
   54MOL   C30122667   0.904   6.544   6.345  0.3122 -0.5244 -0.0995
   54MOL   C30222668   1.026   6.526   6.258  0.1314  0.6683 -0.9047
   54MOL   H30322669   0.626   7.020   6.801  1.2869  0.1484  0.6234
   54MOL   H30422670   0.779   7.036   6.720 -1.6078  0.9640 -2.6339
   54MOL   H30522671   0.650   6.761   6.712 -0.8095  0.8050  0.4331
   54MOL   H30622672   0.750   6.948   6.473  0.6756 -0.0908  0.5336
   54MOL   H30722673   0.848   6.878   6.590 -0.9151 -0.8116  1.2426
   54MOL   H30822674   0.672   6.725   6.397 -0.2929 -0.5765  1.0084
   54MOL   H30922675   0.746   6.644   6.540  4.3990  0.4214  1.6650
   54MOL   H31022676   0.978   6.713   6.450  1.8199 -1.2011 -0.7988
   54MOL   H31122677   0.904   6.751   6.303  0.2017 -3.5251 -2.4141
   54MOL   H31222678   0.902   6.467   6.422  1.8696 -0.9901 -0.4918
   54MOL   H31322679   0.814   6.520   6.289  0.7705 -0.4121 -0.9101
   54MOL   H31422680   1.038   6.590   6.171  0.0235  0.9204 -0.7360
   54MOL   H31522681   1.115   6.540   6.319 -0.9718 -2.3932  1.5306
   54MOL   H31622682   1.033   6.421   6.231 -1.0979  0.1654  0.6356
   54MOL   C31722683   0.521   6.905   6.614 -0.1470 -0.3941  0.0158
   54MOL   C31822684   0.394   6.903   6.703  0.1308 -0.5051 -0.0824
   54MOL   C31922685   0.303   7.028   6.695  0.3880  0.2212  0.3239
   54MOL   C32022686   0.369   7.144   6.771  0.1530 -0.4451  0.7896
   54MOL   C32122687   0.265   7.261   6.801 -0.0192  0.2587 -0.2836
   54MOL   C32222688   0.342   7.392   6.788 -0.0667 -0.3495 -0.3510
   54MOL   C32322689   0.273   7.515   6.841 -0.2623 -0.1718 -0.3980
   54MOL   H32422690   0.499   6.845   6.526  1.0256  0.6452 -0.9925
   54MOL   H32522691   0.536   7.009   6.583  0.1267  0.1540  1.9143
   54MOL   H32622692   0.439   6.887   6.801 -0.9143 -0.2320  0.4421
   54MOL   H32722693   0.207   7.006   6.743 -0.5887  2.9433 -0.2624
   54MOL   H32822694   0.274   7.046   6.591  0.9675  0.6921  0.2431
   54MOL   H32922695   0.460   7.185   6.727 -0.9741  0.4822 -0.7250
   54MOL   H33022696   0.399   7.110   6.870  0.3360 -1.8435  0.2624
   54MOL   H33122697   0.228   7.253   6.904 -0.5167 -1.9389 -0.6193
   54MOL   H33222698   0.183   7.269   6.730 -1.5161 -1.1768  1.2143
   54MOL   H33322699   0.373   7.410   6.685  1.6104 -1.5063 -0.0656
   54MOL   H33422700   0.437   7.380   6.840 -0.2776 -0.8729 -0.0765
   54MOL   H33522701   0.332   7.604   6.824 -1.1191  0.3124 -0.8619
   54MOL   H33622702   0.260   7.506   6.949 -2.0588  1.3245 -0.4622
   54MOL   H33722703   0.181   7.541   6.789  0.1245  2.2601  0.0836
   54MOL   C33822704   0.312   6.775   6.672 -0.0107 -0.1489  0.7862
   54MOL   C33922705   0.369   6.637   6.710  0.6348  0.0216 -0.3791
   54MOL   C34022706   0.314   6.530   6.614  0.2341  0.4563 -0.0270
   54MOL   C34122707   0.376   6.531   6.467 -0.1237 -0.0763  0.0589
   54MOL   C34222708   0.361   6.398   6.398  0.4160 -0.2892  0.6137
   54MOL   C34322709   0.427   6.408   6.258  0.6685  0.0231 -0.4169
   54MOL   C34422710   0.573   6.417   6.241 -0.3694 -0.1162 -0.1183
   54MOL   H34522711   0.287   6.774   6.565  2.5442 -1.6314  0.1703
   54MOL   H34622712   0.208   6.787   6.703 -0.2124 -0.2061  0.1400
   54MOL   H34722713   0.476   6.648   6.692  0.4329  0.7362 -1.1731
   54MOL   H34822714   0.342   6.437   6.663 -0.3158  1.2090  1.7526
   54MOL   H34922715   0.205   6.533   6.613  0.2451  1.0002  0.2721
   54MOL   H35022716   0.481   6.558   6.478 -0.3177  1.0023 -0.6938
   54MOL   H35122717   0.338   6.619   6.415 -2.2557 -2.4602 -2.6099
   54MOL   H35222718   0.400   6.312   6.452  0.7094 -1.0360 -0.7749
   54MOL   H35322719   0.253   6.391   6.385  0.2147  2.0456  0.8698
   54MOL   H35422720   0.395   6.329   6.191  0.6300 -1.4975  1.3744
   54MOL   H35522721   0.381   6.498   6.216 -0.1050  0.5746  1.5367
   54MOL   H35622722   0.599   6.508   6.295  1.3163 -1.1648  0.8871
   54MOL   H35722723   0.606   6.427   6.137  0.1944 -0.4406  0.0286
   54MOL   H35822724   0.630   6.340   6.292 -1.3653 -0.6906  0.1425
   54MOL   C35922725   0.327   6.606   6.861 -0.2544  0.3895 -0.4879
   54MOL   C36022726   0.405   6.490   6.931  1.0147 -0.5431 -0.6041
   54MOL   C36122727   0.555   6.523   6.940 -0.0365  0.5160  0.6743
   54MOL   C36222728   0.649   6.410   6.884 -1.0316  0.4056 -1.1380
   54MOL   C36322729   0.637   6.385   6.733 -0.5067 -0.1947 -0.1891
   54MOL   C36422730   0.733   6.273   6.685  0.3695  0.5937  0.6730
   54MOL   C36522731   0.734   6.240   6.538 -0.2810 -0.1056 -0.4531
   54MOL   H36622732   0.221   6.584   6.881  0.2141 -1.6494 -0.1220
   54MOL   H36722733   0.338   6.684   6.937 -0.7749 -0.1658  0.1755
   54MOL   H36822734   0.391   6.407   6.862 -2.9764 -0.3030 -0.1836
   54MOL   H36922735   0.571   6.621   6.895 -0.1645  0.3763  0.3279
   54MOL   H37022736   0.585   6.540   7.044  3.0127 -0.6572  0.0483
   54MOL   H37122737   0.754   6.424   6.909 -1.7869  2.5065  0.9842
   54MOL   H37222738   0.621   6.317   6.933 -1.7673  2.3977  2.3876
   54MOL   H37322739   0.537   6.363   6.696 -0.8976  0.3966  0.5021
   54MOL   H37422740   0.669   6.478   6.685  1.8228 -1.3698 -1.0402
   54MOL   H37522741   0.835   6.279   6.723  0.4883 -2.3837  0.9797
   54MOL   H37622742   0.701   6.180   6.734 -0.5430  1.0692  1.0049
   54MOL   H37722743   0.783   6.302   6.463 -4.4809 -0.3425 -3.6133
   54MOL   H37822744   0.776   6.140   6.523  1.7040  0.1505  2.9435
   54MOL   H37922745   0.633   6.228   6.497 -0.1272 -2.2646 -0.2579
   54MOL   C38022746   0.342   6.455   7.073  0.4265  0.5051 -0.2687
   54MOL   C38122747   0.205   6.385   7.086 -0.2156  0.3025  0.0790
   54MOL   C38222748   0.224   6.233   7.054 -0.3076 -1.1535  0.6034
   54MOL   C38322749   0.097   6.145   7.036 -0.3098  0.7911  0.1367
   54MOL   C38422750   0.124   5.998   7.011 -0.3625 -0.1247 -0.1670
   54MOL   C38522751   0.176   5.969   6.871 -0.3688  0.6386  0.2890
   54MOL   C38622752   0.066   5.955   6.766 -0.4466 -1.0300 -0.0532
   54MOL   H38722753   0.418   6.397   7.125  0.6723  2.0381  1.1120
   54MOL   H38822754   0.348   6.539   7.142 -1.2435 -0.1699  0.7184
   54MOL   H38922755   0.140   6.428   7.010 -0.3650 -2.3877 -1.3440
   54MOL   H39022756   0.285   6.192   7.135  1.7196  0.8522  0.1337
   54MOL   H39122757   0.286   6.218   6.966  0.3558  1.9930  0.4850
   54MOL   H39222758   0.039   6.158   7.127  0.6348 -0.4117  0.9246
   54MOL   H39322759   0.039   6.183   6.952 -2.5809 -2.3165  0.2128
   54MOL   H39422760   0.194   5.960   7.086 -0.8445  0.1437  0.4239
   54MOL   H39522761   0.035   5.935   7.016 -0.3893 -0.1486 -0.8289
   54MOL   H39622762   0.215   5.868   6.875 -1.6150  0.1940  3.6433
   54MOL   H39722763   0.252   6.041   6.841  0.0063 -0.4923 -1.5039
   54MOL   H39822764   0.006   6.046   6.756  2.1814  0.6081 -1.5185
   54MOL   H39922765   7.703   5.885   6.799 -1.1744 -0.1280  0.1931
   54MOL   H40022766   0.094   5.937   6.663  1.0503  0.3478  0.0922
   54MOL   C40122767   0.139   6.402   7.226  0.7715 -0.6731 -0.1092
   54MOL   C40222768   7.699   6.418   7.213 -0.0730  0.0957 -0.5530
   54MOL   C40322769   7.616   6.447   7.343 -0.1445 -0.5149  0.0675
   54MOL   C40422770   7.640   6.345   7.458  0.1397 -0.1636  0.4690
   54MOL   C40522771   7.585   6.386   7.593  0.3417  0.4719 -0.0274
   54MOL   C40622772   7.592   6.280   7.706 -0.0243  0.1227 -0.1802
   54MOL   C40722773   7.458   6.226   0.030 -0.3878 -0.1811  0.1248
   54MOL   H40822774   0.172   6.490   7.280  0.6567 -1.0086  0.5148
   54MOL   H40922775   0.169   6.318   7.289 -0.3862  0.4936  2.0176
   54MOL   H41022776   7.653   6.336   7.158  0.2780  0.2608 -1.0998
   54MOL   H41122777   7.511   6.436   7.317  0.7568 -0.9345 -3.7284
   54MOL   H41222778   7.629   6.547   7.383 -3.2571 -0.1838  0.3745
   54MOL   H41322779   0.032   6.320   7.472  0.6974  2.0319  0.3814
   54MOL   H41422780   7.580   6.260   7.428  0.0486  0.2425 -0.5159
   54MOL   H41522781   7.646   6.473   7.615  0.8233  0.2308 -0.4001
   54MOL   H41622782   7.482   6.421   7.585  0.2851  0.2786 -0.1517
   54MOL   H41722783   7.658   6.201   7.670  0.0388 -0.0413  0.2946
   54MOL   H41822784   7.640   6.317   0.083 -0.7671  0.7359 -0.0241
   54MOL   H41922785   7.466   6.133   0.085 -2.5600 -0.4694 -0.0199
   54MOL   H42022786   7.394   6.212   7.656 -1.5600  0.4183  0.8832
   54MOL   H42122787   7.407   6.293   0.099 -1.5385 -1.1540  0.2311
   54MOL   H42222788   7.669   6.495   7.141 -1.7762 -1.1030 -1.1604
   55MOL     C122789   7.187   3.302   6.648  1.0850  0.0289  0.2219
   55MOL     C222790   7.339   3.301   6.641 -0.3453 -0.6166  0.0127
   55MOL     C322791   7.406   3.161   6.667  0.3862  0.6104  0.0222
   55MOL     C422792   7.339   3.031   6.611 -0.5198  0.4284 -0.2487
   55MOL     C522793   7.402   2.901   6.652 -0.2847 -0.0340 -0.0892
   55MOL     C622794   7.333   2.773   6.599  0.1494  0.0350  0.3041
   55MOL     C722795   7.386   2.639   6.659 -0.2751  0.5626 -0.4792
   55MOL     H822796   7.129   3.249   6.573  0.2688  0.3117  0.6488
   55MOL     H922797   7.139   3.400   6.651 -3.6229 -2.1618  1.4878
   55MOL    H1022798   7.362   3.319   6.536  2.1014 -2.0456  0.2804
   55MOL    H1122799   7.510   3.170   6.634 -0.2342 -1.2974 -2.5683
   55MOL    H1222800   7.404   3.146   6.775 -1.7415 -0.4615 -0.1328
   55MOL    H1322801   7.234   3.019   6.639  0.2970 -2.1064  1.9074
   55MOL    H1422802   7.331   3.037   6.503 -1.0277 -0.4301 -0.2613
   55MOL    H1522803   7.410   2.889   6.760 -0.2071  1.2867  0.0668
   55MOL    H1622804   7.502   2.912   6.609 -0.7660 -1.0139 -1.4589
   55MOL    H1722805   7.334   2.767   6.490 -0.9772  1.5662  0.1911
   55MOL    H1822806   7.229   2.772   6.631 -0.5725 -1.7265 -1.9097
   55MOL    H1922807   7.494   2.622   6.656 -0.0134  0.8455  3.9207
   55MOL    H2022808   7.348   2.556   6.599 -0.6056  0.9563 -0.8172
   55MOL    H2122809   7.343   2.629   6.759  2.3893 -0.3687  0.6125
   55MOL    H2222810   7.168   3.246   6.740  0.5198  1.0543  0.7382
   55MOL    C2322811   7.390   3.398   6.742 -0.0818 -0.1657 -0.2660
   55MOL    C2422812   7.397   3.541   6.686  0.6702  0.3306 -0.3399
   55MOL    C2522813   7.510   3.575   6.587  0.8510  0.4356  0.2240
   55MOL    C2622814   7.485   3.656   6.456  0.2350 -0.6466 -0.2101
   55MOL    C2722815   7.613   3.662   6.371 -0.6808 -0.0619  0.1497
   55MOL    C2822816   7.598   3.757   6.242 -0.5032  0.6664  0.6388
   55MOL    C2922817   7.585   3.909   6.267  0.7429 -0.0235 -0.2028
   55MOL    H3022818   7.330   3.393   6.833 -0.3261 -1.3683 -0.4869
   55MOL    H3122819   7.494   3.376   6.763  0.4577  1.3905 -1.1864
   55MOL    H3222820   7.303   3.554   6.632  0.3298 -1.1628 -0.1133
   55MOL    H3322821   7.555   3.484   6.546 -3.0416 -1.5182  0.0531
   55MOL    H3422822   7.597   3.621   6.634  0.0618  2.0418  0.1442
   55MOL    H3522823   7.466   3.761   6.479  2.5439 -0.8656  3.3132
   55MOL    H3622824   7.404   3.617   6.396 -0.4425  0.4404 -0.0149
   55MOL    H3722825   7.643   3.560   6.344  0.9056  0.6948 -1.0512
   55MOL    H3822826   7.693   3.702   6.433  0.2947 -0.9847 -0.4980
   55MOL    H3922827   7.521   3.727   6.171  0.8375  0.5240 -0.7811
   55MOL    H4022828   7.690   3.759   6.185  0.0094  1.8263  1.4839
   55MOL    H4122829   7.671   3.949   6.320  0.5457 -1.5697  1.3084
   55MOL    H4222830   7.596   3.951   6.167  0.3246  0.2613 -0.1288
   55MOL    H4322831   7.497   3.947   6.319  1.7840 -1.5730  2.8203
   55MOL    C4422832   7.396   3.646   6.806 -0.3028 -0.3182 -0.0721
   55MOL    C4522833   7.346   3.785   6.766 -0.0306  0.2385  0.5054
   55MOL    C4622834   7.207   3.803   6.699 -0.2820 -0.3565  0.5405
   55MOL    C4722835   7.091   3.734   6.769 -0.5049  0.6230  0.9362
   55MOL    C4822836   6.966   3.718   6.681  0.1525 -0.2114 -0.0452
   55MOL    C4922837   6.874   3.604   6.705  0.4116  0.3791 -0.8216
   55MOL    C5022838   6.737   3.624   6.647  0.0734 -0.0834  0.6064
   55MOL    H5122839   7.498   3.636   6.843 -0.5869  0.4173  0.9405
   55MOL    H5222840   7.326   3.608   6.880  1.6084 -0.8486  1.4887
   55MOL    H5322841   7.425   3.821   6.700 -0.8568  2.4748  0.6924
   55MOL    H5422842   7.210   3.779   6.593  0.2976 -0.3839  0.5624
   55MOL    H5522843   7.176   3.907   6.706 -1.3968 -0.6498  0.1158
   55MOL    H5622844   7.112   3.631   6.799 -0.5261  1.0128  2.3239
   55MOL    H5722845   7.068   3.803   6.850 -1.1076  1.7193 -0.1461
   55MOL    H5822846   7.002   3.707   6.578 -0.3945 -0.4911 -0.2084
   55MOL    H5922847   6.911   3.811   6.694  2.6509  0.9870  2.3493
   55MOL    H6022848   6.858   3.594   6.812  0.7522  0.5463 -0.7533
   55MOL    H6122849   6.929   3.511   6.690  0.4657  0.0503  1.2325
   55MOL    H6222850   6.665   3.664   6.719 -1.3172 -0.0116 -0.7912
   55MOL    H6322851   6.702   3.527   6.612  0.3150  0.1842 -0.3962
   55MOL    H6422852   6.725   3.683   6.556  2.3830 -1.6643 -0.7707
   55MOL    C6522853   7.357   3.884   6.887 -0.0895 -0.0791  0.6214
   55MOL    C6622854   7.491   3.943   6.919 -0.2901 -0.8772 -0.4070
   55MOL    C6722855   7.498   3.989   7.075  0.4624  0.1998  0.1554
   55MOL    C6822856   7.511   3.868   7.172  0.8425  0.3765  0.3979
   55MOL    C6922857   7.503   3.894   7.320 -0.7351 -0.0604  0.3783
   55MOL    C7022858   7.554   3.775   7.399 -0.4499  0.0916  0.3106
   55MOL    C7122859   7.507   3.771   7.542  0.2850  0.6849 -0.4002
   55MOL    H7222860   7.289   3.968   6.874  1.1366  1.0430  1.2905
   55MOL    H7322861   7.300   3.841   6.970  2.0330 -0.1240  2.0901
   55MOL    H7422862   7.545   3.851   6.897  0.5032 -0.0179 -2.1786
   55MOL    H7522863   7.583   4.051   7.103 -0.2361  1.4549 -0.4883
   55MOL    H7622864   7.400   4.033   7.096  0.0303 -0.3744 -0.6325
   55MOL    H7722865   7.438   3.791   7.145  0.5961  1.0543 -0.8994
   55MOL    H7822866   7.609   3.822   7.158  0.2747 -0.2528 -1.8432
   55MOL    H7922867   7.554   3.986   7.350  0.6628 -1.1373  1.4199
   55MOL    H8022868   7.399   3.905   7.348 -1.1687  0.5803 -1.4371
   55MOL    H8122869   7.662   3.789   7.403 -0.0587 -2.2299 -0.7246
   55MOL    H8222870   7.537   3.681   7.345 -1.9510  1.1860 -1.1830
   55MOL    H8322871   7.409   3.726   7.563  1.2753 -0.8566  1.0796
   55MOL    H8422872   7.575   3.708   7.598  1.2234  0.9548 -1.2215
   55MOL    H8522873   7.510   3.872   7.583 -0.0180  0.9410 -0.9976
   55MOL    C8622874   7.528   4.054   6.817 -0.1628 -0.0523  0.1197
   55MOL    C8722875   7.676   4.121   6.831  0.3496  1.1006  0.3402
   55MOL    C8822876   0.076   4.020   6.876  0.4555 -0.8905  0.2173
   55MOL    C8922877   0.110   3.920   6.762  0.3036 -0.2692 -0.0968
   55MOL    C9022878   0.213   3.826   6.809 -0.1224  0.5159  0.1240
   55MOL    C9122879   0.296   3.775   6.693  0.0448 -0.2111  0.1390
   55MOL    C9222880   0.407   3.674   6.744 -0.0120  0.4283 -0.3671
   55MOL    H9322881   7.526   4.012   6.717  2.7872 -0.7395  0.2763
   55MOL    H9422882   7.445   4.124   6.811 -0.8733 -0.8328  0.6813
   55MOL    H9522883   7.666   4.196   6.909  1.4533  1.4870  0.1118
   55MOL    H9622884   0.159   4.073   6.922 -1.8679  3.1232  0.0385
   55MOL    H9722885   0.048   3.961   6.963 -0.5490  0.4446  0.8195
   55MOL    H9822886   0.017   3.866   6.745 -0.0299  0.3277 -0.1762
   55MOL    H9922887   0.146   3.965   6.670  1.0366  0.0189  0.3312
   55MOL   H10022888   0.167   3.745   6.866  2.5705 -0.7116  0.6545
   55MOL   H10122889   0.279   3.878   6.879 -0.3460  0.6658  0.2223
   55MOL   H10222890   0.228   3.718   6.630 -0.8914 -0.6321  1.5110
   55MOL   H10322891   0.336   3.853   6.628  1.2302 -2.1621 -1.5459
   55MOL   H10422892   0.477   3.710   6.819 -0.4013  0.8996 -0.2310
   55MOL   H10522893   0.458   3.659   6.649 -1.3797  0.8166 -1.1720
   55MOL   H10622894   0.382   3.571   6.768  1.5915 -0.0115 -0.4948
   55MOL   C10722895   0.005   4.205   6.709  0.2163  0.0806  0.6403
   55MOL   C10822896   7.617   4.321   6.687  0.0750  0.3326 -0.3156
   55MOL   C10922897   7.693   4.455   6.701 -0.0090 -0.7288 -0.1462
   55MOL   C11022898   0.100   4.487   6.610  0.0998 -0.1053  0.4806
   55MOL   C11122899   0.131   4.640   6.617  0.3095  0.1870  0.2464
   55MOL   C11222900   0.031   4.726   6.541 -0.4605 -0.3022 -0.1641
   55MOL   C11322901   0.099   4.855   6.494 -0.5185 -0.5367 -0.0487
   55MOL   H11422902   0.017   4.143   6.621 -1.2650  0.3124  0.2649
   55MOL   H11522903   0.099   4.250   6.740  0.2038  0.2002  0.5007
   55MOL   H11622904   7.547   4.328   6.770  0.4199  0.0442  0.0006
   55MOL   H11722905   0.023   4.469   6.800  0.7001  0.0382 -0.5609
   55MOL   H11822906   7.617   4.533   6.690 -1.3060 -2.1172 -1.3052
   55MOL   H11922907   0.191   4.433   6.635 -0.2748 -1.1353 -0.3671
   55MOL   H12022908   0.088   4.461   6.505  0.1486 -2.2715  1.0004
   55MOL   H12122909   0.222   4.641   6.557 -0.4059  0.9500 -0.8513
   55MOL   H12222910   0.146   4.667   6.721  4.5467 -1.6938  0.2394
   55MOL   H12322911   0.020   4.672   6.447  2.9598  2.3769 -2.2163
   55MOL   H12422912   7.644   4.734   6.583 -0.5512 -1.9497 -0.0291
   55MOL   H12522913   0.038   4.905   6.419 -1.5067 -0.1911  0.9647
   55MOL   H12622914   0.096   4.927   6.576  0.9211 -0.3799 -0.1174
   55MOL   H12722915   0.201   4.855   6.455  0.0937  0.0512  1.5054
   55MOL   C12822916   7.540   4.306   6.557 -0.1121  0.1774 -0.3743
   55MOL   C12922917   7.434   4.416   6.521  0.0499  0.1645  0.4988
   55MOL   C13022918   7.337   4.451   6.637  0.7362  0.4210  0.7607
   55MOL   C13122919   7.264   4.586   6.632 -0.4687 -0.1172 -0.0797
   55MOL   C13222920   7.353   4.713   6.614 -0.6660  0.2968  0.9435
   55MOL   C13322921   7.266   4.840   6.632  0.7243 -1.1032  0.0160
   55MOL   C13422922   7.356   4.971   6.628 -0.1091  0.5540 -0.1679
   55MOL   H13522923   7.612   4.305   6.475  2.4306  1.2696  1.8060
   55MOL   H13622924   7.492   4.208   6.552  2.6358 -1.1840 -1.4560
   55MOL   H13722925   7.491   4.508   6.506  2.1682 -1.1854  0.0954
   55MOL   H13822926   7.383   4.457   6.735  1.9724 -0.1537  0.2209
   55MOL   H13922927   7.259   4.374   6.637  1.1478 -0.0355 -1.0862
   55MOL   H14022928   7.199   4.616   6.714  1.6560 -0.1038  1.6396
   55MOL   H14122929   7.196   4.574   6.547 -1.2532 -0.9505  0.6388
   55MOL   H14222930   7.397   4.706   6.515 -1.6111  1.7764  0.4148
   55MOL   H14322931   7.436   4.707   6.684  0.7177 -1.1928 -0.7894
   55MOL   H14422932   7.216   4.829   6.728 -1.2464  0.1112 -0.8211
   55MOL   H14522933   7.188   4.864   6.559 -0.1557 -1.5715  0.7890
   55MOL   H14622934   7.430   4.968   6.708  1.2650  0.4982 -1.4337
   55MOL   H14722935   7.299   5.064   6.625 -0.8699  0.0693 -1.8216
   55MOL   H14822936   7.419   4.964   6.540  1.4140  1.4402  0.8265
   55MOL   C14922937   7.343   4.393   6.397  0.4342 -0.4418 -0.4667
   55MOL   C15022938   7.415   4.373   6.263  0.1680 -0.4711 -0.8852
   55MOL   C15122939   7.522   4.476   6.238 -0.0213 -0.1269  1.0222
   55MOL   C15222940   7.607   4.445   6.112  0.4996 -0.4039  0.0995
   55MOL   C15322941   7.665   4.313   6.099 -0.1630  0.2981  0.0690
   55MOL   C15422942   0.072   4.316   6.008  0.7590 -0.2981  0.0313
   55MOL   C15522943   0.143   4.180   5.982 -0.1049 -0.3326  0.2399
   55MOL   H15622944   7.292   4.299   6.420  0.8533 -0.3136  1.0631
   55MOL   H15722945   7.268   4.472   6.392  0.8298  0.3114  3.7267
   55MOL   H15822946   7.452   4.271   6.272 -0.8925 -0.7569  0.2868
   55MOL   H15922947   7.485   4.578   6.241 -0.8552 -0.2739 -2.3091
   55MOL   H16022948   7.599   4.476   6.315  0.6428 -0.4005  0.3635
   55MOL   H16122949   7.690   4.515   6.108  0.7866 -0.7918 -1.2456
   55MOL   H16222950   7.552   4.461   6.019 -0.7026 -0.4036  0.7998
   55MOL   H16322951   7.594   4.241   6.059 -2.7563  2.0835  1.2839
   55MOL   H16422952   7.689   4.272   6.197 -0.5017  1.8717  0.8395
   55MOL   H16522953   0.138   4.395   6.044  0.0365 -0.4884  1.8234
   55MOL   H16622954   0.033   4.352   5.912  2.4672  0.3710 -0.4423
   55MOL   H16722955   0.227   4.183   5.913  0.2085  0.3159  0.6467
   55MOL   H16822956   0.078   4.112   5.927 -0.2592  0.7797 -0.9819
   55MOL   H16922957   0.172   4.131   6.075  1.0830  0.2103  0.1659
   55MOL   C17022958   7.308   4.375   6.146 -0.4371 -0.6551  0.6988
   55MOL   C17122959   7.200   4.268   6.139 -0.4371 -0.4713  0.5353
   55MOL   C17222960   7.094   4.308   6.036 -0.9820 -0.2437 -0.2554
   55MOL   C17322961   6.980   4.393   6.092 -0.4296 -0.1570 -0.2704
   55MOL   C17422962   6.876   4.441   5.979  0.3570  0.5647 -0.0823
   55MOL   C17522963   6.935   4.538   5.870 -1.0047 -0.6636  0.1613
   55MOL   C17622964   6.979   4.670   5.935  0.3920 -0.1331 -0.4363
   55MOL   H17722965   7.365   4.356   6.055  0.5793  0.5863  1.0543
   55MOL   H17822966   7.268   4.476   6.137  1.2813 -0.0305 -0.2965
   55MOL   H17922967   7.149   4.258   6.234  1.3352 -2.6980  1.3158
   55MOL   H18022968   7.052   4.215   5.996 -0.9523 -0.2547 -0.2622
   55MOL   H18122969   7.150   4.362   5.960  1.7663 -1.0452  1.1468
   55MOL   H18222970   7.015   4.476   6.154 -0.1903 -1.1972  0.9991
   55MOL   H18322971   6.916   4.341   6.163 -2.3487  3.9939  1.2094
   55MOL   H18422972   6.784   4.483   6.021 -0.9005 -0.0912 -2.1072
   55MOL   H18522973   6.837   4.350   5.933  1.0148 -0.2579  0.9773
   55MOL   H18622974   6.860   4.560   5.794  0.4982  0.2847 -1.0582
   55MOL   H18722975   7.015   4.489   5.815 -0.7224 -1.1750  1.0117
   55MOL   H18822976   7.027   4.742   5.868 -4.6178  2.0981 -1.8310
   55MOL   H18922977   7.048   4.644   6.016 -0.2832 -0.5443  0.0087
   55MOL   H19022978   6.890   4.716   5.978 -1.1060 -1.8484 -1.6388
   55MOL   C19122979   7.257   4.125   6.100  0.5183 -0.7109  0.1035
   55MOL   C19222980   7.169   3.999   6.130  0.0011 -0.1328 -0.5912
   55MOL   C19322981   7.210   3.871   6.057  0.6580  0.3880 -0.1181
   55MOL   C19422982   7.184   3.862   5.905 -0.5677 -0.0261  0.0057
   55MOL   C19522983   7.229   3.728   5.847 -0.5349 -0.5644  0.0010
   55MOL   C19622984   7.217   3.736   5.694 -0.4880 -0.9979  0.2312
   55MOL   C19722985   7.296   3.634   5.610  0.1192  0.2551  0.4179
   55MOL   H19822986   7.345   4.111   6.162 -0.3492 -0.6435  1.3780
   55MOL   H19922987   7.288   4.123   5.996 -1.0712 -1.1043 -0.3852
   55MOL   H20022988   7.072   4.021   6.084  0.6738  0.3699 -1.8034
   55MOL   H20122989   7.158   3.787   6.102  2.4132 -0.0658  1.1282
   55MOL   H20222990   7.316   3.853   6.078  0.3634 -0.8626  0.2869
   55MOL   H20322991   7.234   3.940   5.847  2.6984 -2.2607 -0.2739
   55MOL   H20422992   7.076   3.870   5.893 -0.2353  1.3190 -2.4275
   55MOL   H20522993   7.333   3.710   5.873 -1.2844 -1.8554  2.2171
   55MOL   H20622994   7.160   3.647   5.870 -1.6040  0.0510 -0.9329
   55MOL   H20722995   7.249   3.831   5.650  0.7147 -1.1000  0.8388
   55MOL   H20822996   7.114   3.737   5.659  0.2383  0.6386 -1.9718
   55MOL   H20922997   7.280   3.628   5.502  1.5342 -0.3354  0.2303
   55MOL   H21022998   7.277   3.533   5.647 -0.7168  0.1862 -0.1905
   55MOL   H21122999   7.401   3.652   5.631  0.2106  1.9639 -1.3306
   55MOL   C21223000   7.142   3.974   6.284 -0.1086  0.0259  0.2813
   55MOL   C21323001   7.010   4.038   6.340 -0.0615  0.4300 -0.0365
   55MOL   C21423002   6.885   3.945   6.319  0.1248 -0.3990  0.3145
   55MOL   C21523003   6.835   3.928   6.179 -0.3151  0.1181  0.5493
   55MOL   C21623004   6.693   3.870   6.163  0.5133 -0.0577  0.7057
   55MOL   C21723005   6.628   3.871   6.020 -0.1066 -0.0777 -0.0766
   55MOL   C21823006   6.720   3.829   5.911  0.1091  0.5435  0.3187
   55MOL   H21923007   7.226   4.019   6.336  0.0597 -1.8965  1.7110
   55MOL   H22023008   7.149   3.871   6.317  1.4335  0.3740  1.0806
   55MOL   H22123009   6.995   4.125   6.275  0.7654 -0.3707 -1.3030
   55MOL   H22223010   6.912   3.850   6.365  1.0268  0.7489  2.1828
   55MOL   H22323011   6.798   3.974   6.378 -1.2647 -2.2734 -0.7292
   55MOL   H22423012   6.908   3.872   6.120  0.3326  2.0183 -0.5060
   55MOL   H22523013   6.833   4.028   6.136 -2.6146  0.3722  1.1503
   55MOL   H22623014   6.701   3.765   6.193 -1.6495  0.2406  2.4774
   55MOL   H22723015   6.619   3.902   6.235  1.3189 -0.8970  1.9296
   55MOL   H22823016   6.541   3.807   6.015 -0.2290  0.2631 -2.8657
   55MOL   H22923017   6.588   3.971   6.005 -0.8887 -0.6484 -1.8922
   55MOL   H23023018   6.778   3.911   5.868  1.0610 -0.4943 -0.4087
   55MOL   H23123019   6.663   3.782   5.830  1.5983 -1.5330  0.4263
   55MOL   H23223020   6.788   3.747   5.934 -1.3452 -0.3202  1.6064
   55MOL   C23323021   7.023   4.082   6.490 -0.0053  0.6581  0.1341
   55MOL   C23423022   6.919   4.181   6.545 -0.2396  0.4371 -0.3154
   55MOL   C23523023   6.908   4.183   6.698  0.1327 -0.1739  0.1857
   55MOL   C23623024   7.026   4.252   6.771  0.4370 -0.4175  1.3622
   55MOL   C23723025   7.057   4.209   6.922 -1.0343 -0.5695 -1.0668
   55MOL   C23823026   7.185   4.274   6.973  0.1096  0.4730  1.2696
   55MOL   C23923027   7.174   4.426   6.976  0.6816  0.3549  0.1626
   55MOL   H24023028   7.123   4.122   6.505 -0.3839  1.1231  1.4414
   55MOL   H24123029   7.028   3.988   6.544  1.0000  1.1756  0.9483
   55MOL   H24223030   6.827   4.142   6.501 -2.9077  1.5610  3.9142
   55MOL   H24323031   6.906   4.079   6.732 -0.8898 -0.3146 -0.2823
   55MOL   H24423032   6.810   4.215   6.733  0.1098  0.8668 -0.7964
   55MOL   H24523033   7.018   4.360   6.760 -1.6807 -0.5847  1.0905
   55MOL   H24623034   7.107   4.200   6.719  0.6764  1.1199  0.1811
   55MOL   H24723035   7.068   4.101   6.924  2.8360 -0.2076  1.7882
   55MOL   H24823036   6.975   4.230   6.990  0.5430  0.0773  0.6585
   55MOL   H24923037   7.200   4.231   7.073 -0.5556  1.6494  1.8877
   55MOL   H25023038   7.269   4.244   6.910  0.9355  0.8075  2.1793
   55MOL   H25123039   7.261   4.477   7.018 -0.5801  0.9557  2.1016
   55MOL   H25223040   7.151   4.465   6.876 -1.5750  1.5817  1.1164
   55MOL   H25323041   7.088   4.467   7.029 -0.2013 -0.4149 -0.6363
   55MOL   C25423042   6.927   4.326   6.487 -0.0807  0.4102 -0.2640
   55MOL   C25523043   6.813   4.414   6.529  0.3934 -0.0250 -1.0339
   55MOL   C25623044   6.671   4.360   6.506  0.4958 -0.3993  0.0099
   55MOL   C25723045   6.639   4.335   6.353 -0.7563 -0.2721 -0.8827
   55MOL   C25823046   6.492   4.309   6.323 -0.4484  0.0174 -0.1501
   55MOL   C25923047   6.453   4.284   6.182  0.1961 -0.4218  0.2933
   55MOL   C26023048   6.457   4.415   6.114 -0.3636  0.2261  0.4083
   55MOL   H26123049   6.911   4.305   6.381  0.1347 -0.3909 -0.1459
   55MOL   H26223050   7.024   4.373   6.508 -0.0622  0.6114 -0.7852
   55MOL   H26323051   6.818   4.423   6.637  0.2886  0.5699 -1.0782
   55MOL   H26423052   6.599   4.428   6.552 -0.2134 -1.4575  0.4583
   55MOL   H26523053   6.640   4.274   6.564  1.6045  1.2670  3.1665
   55MOL   H26623054   6.678   4.413   6.288  2.6769  0.6426  2.1084
   55MOL   H26723055   6.698   4.247   6.327 -2.3081 -2.1625  1.7122
   55MOL   H26823056   6.436   4.391   6.368 -1.3576 -1.1419  0.8701
   55MOL   H26923057   6.465   4.222   6.382  1.3380  0.9781  2.1652
   55MOL   H27023058   6.516   4.204   6.143  1.3966  0.6610 -0.0206
   55MOL   H27123059   6.350   4.249   6.191 -0.4040  1.5482  1.3281
   55MOL   H27223060   6.381   4.488   6.139 -2.2105 -0.0220 -3.9325
   55MOL   H27323061   6.556   4.461   6.117  0.6064 -1.7209 -0.4049
   55MOL   H27423062   6.436   4.404   6.007  0.5178 -0.4454  0.2978
   55MOL   C27523063   6.830   4.555   6.476  0.1378  0.5194 -0.3453
   55MOL   C27623064   6.738   4.670   6.536  0.3899 -0.3818 -0.0686
   55MOL   C27723065   6.630   4.705   6.433  0.0082  0.3857 -0.0020
   55MOL   C27823066   6.648   4.793   6.309  0.6305  0.1764 -0.2822
   55MOL   C27923067   6.514   4.805   6.232  0.4159 -0.4103  0.4089
   55MOL   C28023068   6.539   4.897   6.110 -0.0651 -0.4859 -0.1466
   55MOL   C28123069   6.419   4.895   6.015  0.0494  0.2110  0.9837
   55MOL   H28223070   6.810   4.552   6.369 -1.0628  0.1611 -0.1194
   55MOL   H28323071   6.934   4.584   6.489  0.0842  1.5949 -2.1579
   55MOL   H28423072   6.683   4.626   6.619 -2.0967  4.6013  1.1143
   55MOL   H28523073   6.579   4.613   6.403 -0.6711  0.4805  0.8547
   55MOL   H28623074   6.552   4.752   6.493  0.5131  0.7849  0.3467
   55MOL   H28723075   6.718   4.752   6.236 -0.1935  0.2204 -1.1043
   55MOL   H28823076   6.680   4.895   6.330  1.5300 -0.1308 -0.1345
   55MOL   H28923077   6.431   4.834   6.295  0.9681  2.0746  0.0475
   55MOL   H29023078   6.482   4.706   6.202 -2.6202  0.7184 -0.1879
   55MOL   H29123079   6.531   4.992   6.163  1.4521 -0.2110 -0.3874
   55MOL   H29223080   6.634   4.879   6.059 -0.4809 -0.6737 -0.8620
   55MOL   H29323081   6.444   4.924   5.913  1.3851  1.6192  1.6819
   55MOL   H29423082   6.340   4.954   6.062 -0.0035  0.1405  0.9834
   55MOL   H29523083   6.370   4.799   6.004  0.8333 -0.0161 -0.7148
   55MOL   C29623084   6.822   4.791   6.586  0.0641  0.6372  0.6098
   55MOL   C29723085   6.746   4.903   6.656  0.7642 -0.5523  0.2881
   55MOL   C29823086   6.842   5.013   6.704  0.6875  0.3017  0.0925
   55MOL   C29923087   6.940   4.975   6.813 -0.4226  0.5726 -0.0627
   55MOL   C30023088   7.025   5.095   6.865  0.1075  0.4729  0.6975
   55MOL   C30123089   7.142   5.050   6.955  0.8889  0.4424  0.0495
   55MOL   C30223090   7.233   5.171   6.995  0.5352 -0.0333  0.0170
   55MOL   H30323091   6.895   4.754   6.658  1.8480  1.2820 -0.8049
   55MOL   H30423092   6.884   4.836   6.508  0.3323  0.2513  0.5996
   55MOL   H30523093   6.692   4.940   6.569  0.7449 -0.5842  0.2866
   55MOL   H30623094   6.895   5.052   6.617 -0.2546 -0.0219 -0.6327
   55MOL   H30723095   6.789   5.105   6.730 -0.3510 -0.2925  0.0925
   55MOL   H30823096   7.005   4.904   6.762 -1.5594  0.4231 -1.3431
   55MOL   H30923097   6.887   4.929   6.896 -1.0020 -1.3750 -1.4769
   55MOL   H31023098   6.960   5.158   6.925  0.6434  1.9446 -0.2460
   55MOL   H31123099   7.055   5.145   6.773  0.1105  1.2252  1.1078
   55MOL   H31223100   7.105   5.001   7.045  1.1764  1.4220  0.7113
   55MOL   H31323101   7.207   4.977   6.906  1.0552  0.1506  0.7051
   55MOL   H31423102   7.290   5.216   6.913  2.2923  0.3589  1.4230
   55MOL   H31523103   7.199   5.261   7.046  1.5188 -0.3314  1.2186
   55MOL   H31623104   7.311   5.143   7.066  0.7525 -0.0136 -0.2121
   55MOL   C31723105   6.641   4.862   6.766 -0.7890  0.7776  0.0953
   55MOL   C31823106   6.562   4.973   6.841 -0.8991 -0.2466  0.2952
   55MOL   C31923107   6.489   5.065   6.749 -0.5046 -0.2947 -0.2965
   55MOL   C32023108   6.360   5.005   6.672  0.4745 -0.0965  0.3070
   55MOL   C32123109   6.282   5.106   6.586  0.0305 -0.1033 -0.1010
   55MOL   C32223110   6.142   5.058   6.541 -0.1187  0.2417  0.0388
   55MOL   C32323111   6.144   4.983   6.400  0.4615 -0.2834  0.1024
   55MOL   H32423112   6.690   4.799   6.839  0.0626 -2.0574 -2.8460
   55MOL   H32523113   6.571   4.801   6.709  0.7645 -1.3214  0.3756
   55MOL   H32623114   6.640   5.037   6.883  1.6378 -2.1119 -1.3892
   55MOL   H32723115   6.549   5.108   6.669 -1.1705  3.7104  1.2282
   55MOL   H32823116   6.446   5.138   6.818 -2.3237  0.4483 -2.1788
   55MOL   H32923117   6.288   4.970   6.746 -0.0670  0.5609  0.0974
   55MOL   H33023118   6.393   4.917   6.617 -2.2110 -1.3614  0.6460
   55MOL   H33123119   6.338   5.130   6.495  0.5525  0.5648  0.3983
   55MOL   H33223120   6.274   5.197   6.645 -2.1279 -1.1761  1.3489
   55MOL   H33323121   6.067   5.136   6.532 -0.1787  0.0752 -0.9663
   55MOL   H33423122   6.104   4.983   6.609  2.5430 -2.3151 -1.1625
   55MOL   H33523123   6.239   4.940   6.370  1.3033  0.7741  1.2298
   55MOL   H33623124   6.128   5.057   6.321  1.5811  0.5656  0.6562
   55MOL   H33723125   6.062   4.911   6.401 -0.6774  0.9509 -0.9298
   55MOL   C33823126   6.482   4.910   6.960  0.3014  0.2205  0.3555
   55MOL   C33923127   6.472   4.973   7.097 -0.1129  0.6092 -0.0441
   55MOL   C34023128   6.420   4.873   7.201 -0.2048  0.3839  0.3470
   55MOL   C34123129   6.274   4.826   7.188 -0.3206 -0.3510  0.4034
   55MOL   C34223130   6.236   4.714   7.282 -0.8026 -0.5413 -0.9635
   55MOL   C34323131   6.312   4.591   7.265 -0.0819 -0.8639  0.0351
   55MOL   C34423132   6.276   4.479   7.361 -0.1108  0.7438 -0.0664
   55MOL   H34523133   6.525   4.812   6.979  0.3684 -0.2823 -2.1698
   55MOL   H34623134   6.378   4.888   6.936  0.4363  1.0581 -1.0757
   55MOL   H34723135   6.574   5.004   7.122 -0.7306  1.7839  1.0976
   55MOL   H34823136   6.491   4.791   7.207  0.6085  1.2258  4.6336
   55MOL   H34923137   6.435   4.915   7.301  1.0035 -2.6516  1.4983
   55MOL   H35023138   6.244   4.795   7.088 -0.5468 -0.1738  0.4158
   55MOL   H35123139   6.202   4.905   7.207  0.5563  0.7766 -0.9112
   55MOL   H35223140   6.247   4.746   7.385 -0.3664 -0.7368 -0.9518
   55MOL   H35323141   6.129   4.704   7.263 -1.7309  2.3289  2.2330
   55MOL   H35423142   6.302   4.553   7.163 -1.2287 -0.1163 -0.1397
   55MOL   H35523143   6.420   4.602   7.282 -0.2847 -0.8976  1.4215
   55MOL   H35623144   6.169   4.478   7.382 -0.1677  1.4679 -0.3350
   55MOL   H35723145   6.316   4.503   7.460  3.1760 -0.8668 -0.9515
   55MOL   H35823146   6.298   4.381   7.320 -0.7280  1.1180 -1.3032
   55MOL   C35923147   6.386   5.105   7.099 -0.0352  0.0748 -0.0680
   55MOL   C36023148   6.388   5.191   7.234 -0.8560  0.4924 -0.2910
   55MOL   C36123149   6.526   5.205   7.304 -0.3389 -0.4069 -0.5141
   55MOL   C36223150   6.638   5.269   7.216 -0.1975  1.5549 -0.3772
   55MOL   C36323151   6.769   5.291   7.297 -0.0896 -0.5731 -1.0197
   55MOL   C36423152   6.888   5.321   7.200 -0.3528  1.1404  0.3080
   55MOL   C36523153   6.866   5.432   7.102 -0.1108  0.4538 -0.6121
   55MOL   H36623154   6.281   5.080   7.085 -0.2044 -0.1693  1.5400
   55MOL   H36723155   6.419   5.173   7.020 -1.3691  1.5802  0.6416
   55MOL   H36823156   6.328   5.128   7.300  1.1148 -0.1257  0.9303
   55MOL   H36923157   6.506   5.275   7.385 -1.0556 -2.8728  1.5087
   55MOL   H37023158   6.581   5.119   7.340  2.1450  0.2198 -2.6261
   55MOL   H37123159   6.652   5.210   7.126 -1.2114 -1.8851  1.6070
   55MOL   H37223160   6.602   5.362   7.172 -1.4988  1.1307 -0.2165
   55MOL   H37323161   6.750   5.376   7.363  1.3537  0.1686 -1.5398
   55MOL   H37423162   6.796   5.202   7.353 -1.3589 -0.4405 -0.1595
   55MOL   H37523163   6.980   5.333   7.257 -0.6501  1.7112  0.6701
   55MOL   H37623164   6.907   5.225   7.151 -1.2466  0.1607  1.8345
   55MOL   H37723165   6.950   5.446   7.033  0.0889  0.9570 -0.2718
   55MOL   H37823166   6.779   5.406   7.042  0.8310 -0.7474 -1.4874
   55MOL   H37923167   6.852   5.531   7.145 -1.1597 -0.4303  1.1188
   55MOL   C38023168   6.321   5.332   7.223  0.1305 -0.9501 -0.1139
   55MOL   C38123169   6.271   5.411   7.348  0.0483 -0.8499 -0.3611
   55MOL   C38223170   6.192   5.539   7.297  0.3578  0.5284 -0.3459
   55MOL   C38323171   6.262   5.633   7.204 -1.0564 -0.0863  0.9393
   55MOL   C38423172   6.227   5.785   7.219  0.3789  0.2971  0.6668
   55MOL   C38523173   6.264   5.867   7.097  0.0162 -0.4627  0.0127
   55MOL   C38623174   6.239   6.012   7.123 -0.3645  0.1317  0.0530
   55MOL   H38723175   6.394   5.394   7.172  1.0215 -1.8099  0.1107
   55MOL   H38823176   6.241   5.307   7.152 -0.8249 -1.1250  0.9980
   55MOL   H38923177   6.354   5.448   7.408 -1.1191  1.1050  0.0815
   55MOL   H39023178   6.153   5.585   7.388 -0.3351 -0.1406 -0.3042
   55MOL   H39123179   6.100   5.508   7.249  0.8148  0.1735 -1.0001
   55MOL   H39223180   6.369   5.625   7.226 -1.0735  0.8458  1.4112
   55MOL   H39323181   6.249   5.590   7.106  0.4991  0.7563  0.3337
   55MOL   H39423182   6.126   5.793   7.259  0.4376 -2.1423  1.4295
   55MOL   H39523183   6.283   5.819   7.306  2.2981 -1.8126  0.3091
   55MOL   H39623184   6.197   5.831   7.019  1.9030  0.0603 -1.8795
   55MOL   H39723185   6.364   5.852   7.056  0.1835 -0.9459  0.5703
   55MOL   H39823186   6.224   6.068   7.030  0.0969 -1.7377 -1.1691
   55MOL   H39923187   6.329   6.050   7.171 -0.6344  2.5166 -1.2085
   55MOL   H40023188   6.150   6.010   7.186 -0.9170 -1.8256 -0.7557
   55MOL   C40123189   6.184   5.317   7.436  0.3944 -0.1689 -0.0269
   55MOL   C40223190   6.120   5.388   7.556  0.8220 -0.3303 -0.0003
   55MOL   C40323191   6.077   5.298   7.675 -0.4707 -0.1578  0.9518
   55MOL   C40423192   6.050   5.364   0.088 -0.1462 -0.8156 -0.2235
   55MOL   C40523193   6.042   5.263   0.213 -0.2351  0.2076 -0.7233
   55MOL   C40623194   5.898   5.220   0.256  0.7988 -0.5400  0.1991
   55MOL   C40723195   5.800   5.167   0.146 -0.2622 -0.4794 -0.0910
   55MOL   H40823196   6.247   5.232   7.461  0.0122 -1.1264 -2.2275
   55MOL   H40923197   6.102   5.264   7.388  0.9585 -0.3535 -0.7906
   55MOL   H41023198   6.036   5.454   7.538  0.1409 -1.5626 -1.4590
   55MOL   H41123199   6.149   5.218   7.691 -1.6714 -1.5406 -0.3953
   55MOL   H41223200   5.991   5.241   7.640 -1.1823  0.1575  2.1774
   55MOL   H41323201   5.961   5.425   0.076  0.4137  0.2258  0.8716
   55MOL   H41423202   6.136   5.428   0.103 -0.0207 -0.8436 -0.8182
   55MOL   H41523203   6.102   5.173   0.197 -3.3497 -2.4679  1.8738
   55MOL   H41623204   6.096   5.313   0.294 -0.8364  0.8812 -0.7290
   55MOL   H41723205   5.922   5.155   0.339  1.7164 -1.3268 -0.6681
   55MOL   H41823206   5.859   5.308   0.308 -0.6988  0.7560 -2.9712
   55MOL   H41923207   5.798   5.226   0.055  2.1521  0.1855  0.2613
   55MOL   H42023208   5.696   5.156   0.175 -0.0641 -0.3931  0.6859
   55MOL   H42123209   5.841   5.068   0.125  1.0427 -0.4358  2.0902
   55MOL   H42223210   6.196   5.450   7.603 -0.0662 -1.1654  2.6168
   56MOL     C123211   4.139   6.326   3.179 -0.4473 -0.6381 -0.0708
   56MOL     C223212   4.181   6.419   3.060 -0.2501 -0.0677  0.5131
   56MOL     C323213   4.258   6.544   3.119 -0.2428  0.3130 -0.3372
   56MOL     C423214   4.384   6.505   3.196  0.3412  0.1222  0.6293
   56MOL     C523215   4.484   6.619   3.208  0.6290 -0.1367 -0.8182
   56MOL     C623216   4.622   6.579   3.257 -0.4943 -0.0902  0.1241
   56MOL     C723217   4.721   6.697   3.283  0.3742  0.2640 -0.0947
   56MOL     H823218   4.214   6.278   3.242 -1.4587 -0.4471  1.3149
   56MOL     H923219   4.070   6.245   3.154  0.1405 -1.4129  0.7829
   56MOL    H1023220   4.240   6.351   2.999  0.3447  0.7427  0.1739
   56MOL    H1123221   4.292   6.605   3.035  0.3800  0.1961 -0.1735
   56MOL    H1223222   4.192   6.606   3.180  0.6502 -0.3367  1.3278
   56MOL    H1323223   4.357   6.460   3.292  0.4743  0.5209  0.8516
   56MOL    H1423224   4.438   6.422   3.150  0.9090  0.1507  1.2275
   56MOL    H1523225   4.451   6.676   3.295 -1.5260 -4.3944  1.2554
   56MOL    H1623226   4.494   6.694   3.129  0.0630 -0.2831 -1.0279
   56MOL    H1723227   4.670   6.500   3.198 -0.0867  1.2279 -1.3417
   56MOL    H1823228   4.612   6.526   3.352  0.3861 -1.1174 -0.3427
   56MOL    H1923229   4.680   6.765   3.358  0.3603 -2.3704  2.3928
   56MOL    H2023230   4.736   6.741   3.184 -1.0303  0.3407 -0.2886
   56MOL    H2123231   4.815   6.655   3.319 -0.1358  0.2977  1.3048
   56MOL    H2223232   4.088   6.398   3.243  0.4864  0.2907 -0.3611
   56MOL    C2323233   4.055   6.467   2.989  0.5178 -0.6569  0.5558
   56MOL    C2423234   4.079   6.529   2.844  0.2052  0.3614 -0.0142
   56MOL    C2523235   3.959   6.622   2.814 -0.6170  0.2639 -0.2317
   56MOL    C2623236   3.972   6.754   2.890 -0.6655 -0.3314  0.0646
   56MOL    C2723237   3.873   6.860   2.832 -0.2433  0.3483  0.3627
   56MOL    C2823238   3.896   6.999   2.895  0.2308 -0.0605  0.2545
   56MOL    C2923239   3.869   7.010   3.055 -0.4919  0.7286 -0.3793
   56MOL    H3023240   3.972   6.397   2.977  0.5030  0.0158 -4.9365
   56MOL    H3123241   4.022   6.550   3.051  1.1843 -0.5876  0.8120
   56MOL    H3223242   4.174   6.581   2.846  0.7832 -0.7049  2.6620
   56MOL    H3323243   3.862   6.572   2.817 -0.1301 -0.7277 -0.8523
   56MOL    H3423244   3.970   6.641   2.707 -0.9566 -2.0406 -0.7005
   56MOL    H3523245   4.078   6.776   2.886 -0.6374 -0.4948 -0.0621
   56MOL    H3623246   3.967   6.738   2.997  1.8032  1.3084  0.4544
   56MOL    H3723247   3.772   6.823   2.849  0.1689  0.2857  2.8635
   56MOL    H3823248   3.891   6.865   2.725 -0.8801 -0.8830  0.1930
   56MOL    H3923249   3.831   7.069   2.842 -0.4358 -0.9495 -0.1122
   56MOL    H4023250   3.995   7.040   2.874  0.0258  0.5781  0.5125
   56MOL    H4123251   3.915   7.102   3.090 -1.1217  1.0462 -0.3792
   56MOL    H4223252   3.763   7.013   3.081 -0.2866  0.1978  0.5134
   56MOL    H4323253   3.931   6.939   3.109 -2.5692  1.4776  3.0908
   56MOL    C4423254   4.080   6.416   2.742  0.3687  0.1994 -0.4130
   56MOL    C4523255   4.175   6.443   2.620 -0.4496  0.2261  0.0333
   56MOL    C4623256   4.320   6.425   2.671  0.2450  0.2618 -0.0387
   56MOL    C4723257   4.396   6.562   2.688 -0.1297  0.3627  0.4529
   56MOL    C4823258   4.528   6.540   2.760  0.0201 -0.4058 -0.1543
   56MOL    C4923259   4.595   6.674   2.796 -0.0894  0.0323  0.5932
   56MOL    C5023260   4.731   6.661   2.866  0.1176 -0.4021  0.4375
   56MOL    H5123261   3.978   6.414   2.704  0.5555  1.9539 -1.0338
   56MOL    H5223262   4.104   6.322   2.791  0.8998  1.2138  1.3309
   56MOL    H5323263   4.150   6.541   2.579 -0.8127 -0.0410 -0.3819
   56MOL    H5423264   4.367   6.361   2.596 -0.6008 -2.2117  1.4990
   56MOL    H5523265   4.331   6.357   2.756  0.2181 -2.5376 -2.2041
   56MOL    H5623266   4.422   6.602   2.590 -1.1428 -1.6182 -0.6531
   56MOL    H5723267   4.345   6.635   2.751 -0.3439 -0.8850  1.7448
   56MOL    H5823268   4.586   6.483   2.687  0.2136  3.5022 -3.2049
   56MOL    H5923269   4.510   6.487   2.853  2.1687 -1.0237 -0.0675
   56MOL    H6023270   4.519   6.729   2.852 -0.5273  0.2198 -0.1858
   56MOL    H6123271   4.614   6.732   2.705  1.3264 -1.2104  0.0928
   56MOL    H6223272   4.723   6.607   2.960 -3.6940  3.3961  2.4379
   56MOL    H6323273   4.763   6.761   2.897  2.2634 -0.5494 -1.1730
   56MOL    H6423274   4.814   6.616   2.811 -0.6369 -1.2823 -0.0001
   56MOL    C6523275   4.148   6.342   2.506  0.2849 -0.6225  0.0345
   56MOL    C6623276   4.195   6.373   2.359 -0.0725  0.1949 -0.1775
   56MOL    C6723277   4.145   6.501   2.287  0.2024 -0.2174 -0.3121
   56MOL    C6823278   3.986   6.498   2.277  0.0579  1.0297  0.0457
   56MOL    C6923279   3.947   6.634   2.216  0.0632 -0.0162  0.6412
   56MOL    C7023280   4.000   6.671   2.074 -0.3016 -0.4437  0.1273
   56MOL    C7123281   3.941   6.791   2.016  0.7060  0.2147  0.6274
   56MOL    H7223282   4.177   6.241   2.532  1.3113 -0.0545  1.0897
   56MOL    H7323283   4.041   6.353   2.487  0.3077 -1.0619 -0.3685
   56MOL    H7423284   4.303   6.387   2.351 -0.1583  0.3005 -1.2532
   56MOL    H7523285   4.180   6.585   2.347  2.4511 -0.7660 -0.8101
   56MOL    H7623286   4.199   6.505   2.192 -1.7395  0.5513 -1.4053
   56MOL    H7723287   3.944   6.418   2.216 -0.0632  1.8580 -0.9867
   56MOL    H7823288   3.943   6.476   2.374 -0.2604 -0.2269 -0.3705
   56MOL    H7923289   3.838   6.630   2.210  0.2542 -1.5946 -3.0509
   56MOL    H8023290   3.979   6.710   2.287 -2.4705  2.4561 -0.7915
   56MOL    H8123291   4.001   6.584   2.008  0.1681  0.1898 -0.6897
   56MOL    H8223292   4.104   6.700   2.079 -0.3188 -0.2955 -0.3460
   56MOL    H8323293   3.966   6.886   2.063 -1.5657  1.4131 -0.4696
   56MOL    H8423294   3.976   6.793   1.912  1.9383 -0.5960  1.0265
   56MOL    H8523295   3.833   6.780   2.005  0.6134  0.9824  0.7382
   56MOL    C8623296   4.167   6.247   2.280  0.6269  1.3111  0.9283
   56MOL    C8723297   4.264   6.129   2.298 -0.0704  0.8442 -1.3003
   56MOL    C8823298   4.187   5.995   2.270 -0.0392  0.9984  0.6396
   56MOL    C8923299   4.077   5.955   2.368 -0.3358  0.4840 -0.5758
   56MOL    C9023300   4.035   5.810   2.342 -0.7733  0.7869 -0.9209
   56MOL    C9123301   3.915   5.776   2.429 -0.3721 -0.4364 -0.2628
   56MOL    C9223302   3.874   5.628   2.410 -0.3227 -0.2189 -0.5352
   56MOL    H9323303   4.070   6.205   2.306  0.8456  1.1999  1.5641
   56MOL    H9423304   4.166   6.271   2.173  0.2931  0.4789  0.7354
   56MOL    H9523305   4.299   6.129   2.402  1.3841  0.1997 -1.7708
   56MOL    H9623306   4.140   6.000   2.172  1.2983  1.6856  0.0112
   56MOL    H9723307   4.263   5.917   2.278 -1.1321  0.0028  1.3842
   56MOL    H9823308   4.118   5.958   2.469  1.0970 -0.3585 -1.1182
   56MOL    H9923309   3.989   6.019   2.368  1.0695  2.4945  0.2803
   56MOL   H10023310   4.113   5.738   2.368 -2.3294  0.3230  2.8768
   56MOL   H10123311   4.002   5.800   2.239 -1.0516  1.1632 -0.8688
   56MOL   H10223312   3.937   5.789   2.535 -2.2621  1.6595 -0.0770
   56MOL   H10323313   3.831   5.841   2.403  0.0935  1.0265  1.7213
   56MOL   H10423314   3.785   5.612   2.470  0.2789  0.6305  0.6155
   56MOL   H10523315   3.946   5.555   2.447 -0.4405  0.3519  0.8517
   56MOL   H10623316   3.853   5.606   2.305 -2.5942 -1.7082  0.2200
   56MOL   C10723317   4.389   6.138   2.208 -0.2613 -0.6194  0.2780
   56MOL   C10823318   4.503   6.048   2.259 -0.3274 -0.4583 -0.1326
   56MOL   C10923319   4.619   6.046   2.158  0.3361 -0.4089  0.0085
   56MOL   C11023320   4.734   5.949   2.193  0.5596 -0.1351  0.4845
   56MOL   C11123321   4.832   5.936   2.081  0.3765 -0.2548 -0.5296
   56MOL   C11223322   4.911   6.056   2.030 -0.1574  0.8251  0.3503
   56MOL   C11323323   5.028   6.098   2.124  1.0173  0.0514  0.1962
   56MOL   H11423324   4.412   6.245   2.203 -1.7313 -0.2735  0.8094
   56MOL   H11523325   4.363   6.106   2.107 -2.0786 -1.1094  0.8897
   56MOL   H11623326   4.467   5.945   2.255 -2.7899  0.4101 -1.3555
   56MOL   H11723327   4.661   6.146   2.148 -1.7406  0.1483 -3.5314
   56MOL   H11823328   4.576   6.022   2.061 -0.5922 -0.9137  0.5372
   56MOL   H11923329   4.784   5.982   2.284  1.6971  2.5948 -1.0485
   56MOL   H12023330   4.694   5.849   2.210  0.7317 -0.4315 -0.7937
   56MOL   H12123331   4.783   5.886   1.997  0.8906  0.7228 -1.4263
   56MOL   H12223332   4.911   5.868   2.109 -0.5082  0.0763  2.9554
   56MOL   H12323333   4.950   6.027   1.933 -0.0760  0.3020  0.5422
   56MOL   H12423334   4.841   6.139   2.015  0.3079  1.3279  0.9386
   56MOL   H12523335   5.085   6.180   2.080  1.0131  1.6515  3.0816
   56MOL   H12623336   4.986   6.139   2.216  0.2103  1.9047 -0.9601
   56MOL   H12723337   5.085   6.008   2.144  1.7169  0.8117  1.6977
   56MOL   C12823338   4.563   6.096   2.403  0.5566 -0.2868  0.4926
   56MOL   C12923339   4.594   5.975   2.508 -0.3263 -0.9605  0.5931
   56MOL   C13023340   4.454   5.925   2.557 -0.0220  0.6843  0.0633
   56MOL   C13123341   4.467   5.790   2.634  0.3367 -1.0184 -0.0708
   56MOL   C13223342   4.325   5.731   2.652  0.2684 -0.5183  0.7120
   56MOL   C13323343   4.321   5.595   2.726  0.6110 -0.2532 -1.5432
   56MOL   C13423344   4.200   5.518   2.708  0.0830  0.0869  0.2295
   56MOL   H13523345   4.651   6.158   2.391  0.5421 -0.1820  0.9259
   56MOL   H13623346   4.495   6.169   2.448 -0.3602 -0.0280 -1.2458
   56MOL   H13723347   4.645   5.900   2.447 -0.3628 -2.2270  2.1128
   56MOL   H13823348   4.398   5.911   2.464  1.8615  0.5314 -1.0611
   56MOL   H13923349   4.396   6.008   2.599 -0.1782 -0.1255  1.4760
   56MOL   H14023350   4.517   5.789   2.731  0.3787 -1.1395 -0.0945
   56MOL   H14123351   4.525   5.722   2.571 -0.0383 -1.3082 -0.1016
   56MOL   H14223352   4.275   5.732   2.556  0.1307  3.5357  0.7422
   56MOL   H14323353   4.262   5.795   2.714 -2.2518 -1.0991 -1.1696
   56MOL   H14423354   4.359   5.599   2.828 -0.4499  0.1885 -1.1525
   56MOL   H14523355   4.401   5.536   2.681  2.0266 -0.0334  0.6130
   56MOL   H14623356   4.112   5.576   2.736  1.2467  1.2408  1.5531
   56MOL   H14723357   4.193   5.418   2.751 -1.2896  0.1844  0.2639
   56MOL   H14823358   4.177   5.491   2.605  1.0411  2.2998 -0.5936
   56MOL   C14923359   4.686   6.011   2.623  0.2366 -0.2626  0.2807
   56MOL   C15023360   4.837   6.032   2.586  0.1240  0.1854  0.1120
   56MOL   C15123361   4.911   5.898   2.570 -0.3286 -0.8009  0.3625
   56MOL   C15223362   5.044   5.915   2.500 -0.1317 -0.1402  0.8837
   56MOL   C15323363   5.116   5.780   2.483 -0.0332 -0.4107 -0.7294
   56MOL   C15423364   5.264   5.801   2.440  0.3626 -0.0372  0.2583
   56MOL   C15523365   5.273   5.835   2.290  0.2271  0.1430 -0.4849
   56MOL   H15623366   4.644   6.106   2.658 -0.8895 -0.1924 -1.2356
   56MOL   H15723367   4.673   5.947   2.710 -0.3482  2.3474  2.1943
   56MOL   H15823368   4.844   6.086   2.492 -0.4479  1.5851  0.8573
   56MOL   H15923369   4.905   5.843   2.664  0.4827 -1.2056  0.1830
   56MOL   H16023370   4.864   5.827   2.501 -0.1828  0.6587 -1.2748
   56MOL   H16123371   5.110   5.980   2.558  0.4140 -0.0465  0.1610
   56MOL   H16223372   5.039   5.955   2.399 -1.0886 -1.4721  0.3962
   56MOL   H16323373   5.064   5.714   2.413  0.2840 -0.3144 -1.0602
   56MOL   H16423374   5.132   5.731   2.579  0.3382 -0.3481 -0.7573
   56MOL   H16523375   5.334   5.718   2.453 -1.1359 -1.6492 -1.7071
   56MOL   H16623376   5.303   5.873   2.512 -0.4084 -0.3812  1.0337
   56MOL   H16723377   5.222   5.922   2.251  2.4764  1.0151 -1.5713
   56MOL   H16823378   5.226   5.752   2.237 -0.7875 -0.0626  0.7118
   56MOL   H16923379   5.375   5.846   2.254  0.1862  0.8753 -0.3827
   56MOL   C17023380   4.898   6.112   2.695  1.2670  0.1284 -0.4969
   56MOL   C17123381   4.950   6.247   2.651 -0.1682  0.7088  0.3685
   56MOL   C17223382   4.845   6.343   2.608  0.3420  0.1247  0.7882
   56MOL   C17323383   4.868   6.389   2.461 -0.5669  0.0896  0.0455
   56MOL   C17423384   4.785   6.502   2.408 -0.1345  0.2908 -0.3345
   56MOL   C17523385   4.820   6.534   2.255  0.1130 -0.3857  0.3522
   56MOL   C17623386   4.746   6.659   2.210  0.6906 -0.4256 -0.4291
   56MOL   H17723387   4.976   6.051   2.739  0.1455 -0.9896 -0.0074
   56MOL   H17823388   4.824   6.124   2.774 -0.1625 -0.3271 -1.7390
   56MOL   H17923389   5.024   6.222   2.574 -1.9067 -3.9990  0.0666
   56MOL   H18023390   4.844   6.435   2.667  1.0778 -0.4512  1.7010
   56MOL   H18123391   4.745   6.299   2.609  0.5353 -0.4126 -1.0765
   56MOL   H18223392   4.871   6.304   2.393 -1.2326 -0.3834  0.5925
   56MOL   H18323393   4.974   6.416   2.462 -0.8125  1.0548  2.0889
   56MOL   H18423394   4.787   6.591   2.472  0.7156  0.2007 -0.2353
   56MOL   H18523395   4.680   6.474   2.418 -0.0481 -0.5744 -1.7748
   56MOL   H18623396   4.782   6.450   2.197  0.9759  0.6103 -1.7278
   56MOL   H18723397   4.928   6.551   2.249  0.0892 -0.3837 -0.1446
   56MOL   H18823398   4.769   6.742   2.276  2.3253 -0.7843 -0.5284
   56MOL   H18923399   4.637   6.650   2.217  0.6772 -1.3516 -1.5820
   56MOL   H19023400   4.771   6.673   2.105  0.2712  0.9159 -0.3583
   56MOL   C19123401   5.031   6.311   2.765 -0.1770 -1.0388  0.1628
   56MOL   C19223402   5.147   6.403   2.727  0.0693  0.5205 -0.4238
   56MOL   C19323403   5.211   6.466   2.858  0.6724 -0.6757  0.0622
   56MOL   C19423404   5.109   6.540   2.951 -0.3899 -0.1215  0.2312
   56MOL   C19523405   5.165   6.618   3.068 -0.8893 -0.3843  0.0737
   56MOL   C19623406   5.063   6.675   3.165 -0.3805  0.1184  0.0085
   56MOL   C19723407   5.113   6.737   3.298 -0.3376  0.4005 -0.2165
   56MOL   H19823408   5.080   6.231   2.821  2.4736 -0.3061 -0.9984
   56MOL   H19923409   4.955   6.351   2.832 -0.2347  0.1502 -0.5893
   56MOL   H20023410   5.091   6.482   2.676  0.4574 -0.4980 -2.4409
   56MOL   H20123411   5.290   6.539   2.839 -0.9438  1.4171  1.2352
   56MOL   H20223412   5.266   6.393   2.918  0.5426 -2.8692 -2.3681
   56MOL   H20323413   5.044   6.461   2.989 -1.8550 -0.3942 -2.6512
   56MOL   H20423414   5.038   6.595   2.889 -1.0892  0.1665  1.2725
   56MOL   H20523415   5.243   6.555   3.111  1.3024  1.4526 -1.0378
   56MOL   H20623416   5.221   6.698   3.020  0.0186 -1.5616 -0.8566
   56MOL   H20723417   5.005   6.588   3.196 -0.9747  0.4589 -0.1346
   56MOL   H20823418   5.001   6.742   3.106  0.4949  2.2276  1.4243
   56MOL   H20923419   5.025   6.760   3.357  1.2608  0.7046  2.1301
   56MOL   H21023420   5.168   6.828   3.273  1.5305 -0.8152 -0.6718
   56MOL   H21123421   5.167   6.672   3.367  1.5161  2.3841  0.2636
   56MOL   C21223422   5.244   6.350   2.625 -0.1489 -0.6128  0.0896
   56MOL   C21323423   5.306   6.214   2.635 -0.1070  0.0018  0.1319
   56MOL   C21423424   5.348   6.168   2.494  0.1162  0.4164 -0.3623
   56MOL   C21523425   5.425   6.273   2.417  0.4972 -0.2429 -0.1335
   56MOL   C21623426   5.502   6.216   2.296 -0.1752 -0.2939 -0.2202
   56MOL   C21723427   5.602   6.318   2.243  1.2573 -0.3711  0.1500
   56MOL   C21823428   5.734   6.262   2.197  0.2354  1.3485  0.2544
   56MOL   H21923429   5.316   6.430   2.608  0.5347 -1.9401 -3.5628
   56MOL   H22023430   5.195   6.351   2.528 -2.3055 -1.0247  1.1163
   56MOL   H22123431   5.227   6.152   2.678 -1.1060  2.1877  1.5228
   56MOL   H22223432   5.408   6.077   2.495 -1.0803 -0.3738  1.8004
   56MOL   H22323433   5.260   6.140   2.437  0.0573 -1.2555  0.5330
   56MOL   H22423434   5.504   6.321   2.476  0.6321  0.3452 -0.7741
   56MOL   H22523435   5.364   6.360   2.392  0.8999  0.1042  0.0855
   56MOL   H22623436   5.551   6.124   2.328 -1.5790 -0.8714  0.3235
   56MOL   H22723437   5.436   6.187   2.214  0.1932 -2.1186  0.1127
   56MOL   H22823438   5.558   6.372   2.160  0.2686 -2.1176 -0.4776
   56MOL   H22923439   5.615   6.401   2.312  0.9093 -0.4475  0.3066
   56MOL   H23023440   5.800   6.235   2.280  0.0418  0.5105  0.1304
   56MOL   H23123441   5.794   6.332   2.138  2.0322 -1.9921 -2.0680
   56MOL   H23223442   5.727   6.175   2.133 -0.1065  0.9090  0.8885
   56MOL   C23323443   5.436   6.219   2.725 -0.1238  0.6125 -0.2143
   56MOL   C23423444   5.492   6.078   2.779 -0.2974  0.1027  0.4340
   56MOL   C23523445   5.646   6.075   2.776 -0.1454 -0.0144  0.3307
   56MOL   C23623446   5.705   5.933   2.783  0.6272 -0.7185 -0.3434
   56MOL   C23723447   5.856   5.936   2.751 -0.2627  0.1247  0.1881
   56MOL   C23823448   5.904   5.787   2.779  0.2814  0.5758  0.0321
   56MOL   C23923449   6.056   5.771   2.760 -0.3958  0.2716  0.2727
   56MOL   H24023450   5.408   6.279   2.812  0.0999 -1.0406  1.0048
   56MOL   H24123451   5.521   6.267   2.677  0.7545 -0.5331  0.1857
   56MOL   H24223452   5.455   6.000   2.713  0.2239  0.6534 -0.5202
   56MOL   H24323453   5.691   6.133   2.856  0.4868  1.0926 -0.8104
   56MOL   H24423454   5.671   6.116   2.678 -3.1773 -0.2831 -0.6247
   56MOL   H24523455   5.660   5.865   2.710 -0.1041 -1.9580  1.2230
   56MOL   H24623456   5.693   5.905   2.887 -0.2042 -0.0968 -0.2617
   56MOL   H24723457   5.903   6.009   2.816  0.2570  0.6064 -0.7220
   56MOL   H24823458   5.865   5.965   2.646  0.7505  1.1964  0.5680
   56MOL   H24923459   5.878   5.762   2.881 -3.4926 -1.3626 -1.3242
   56MOL   H25023460   5.850   5.710   2.723 -0.5673 -0.0217  1.6561
   56MOL   H25123461   6.071   5.797   2.655 -2.0074 -0.2413 -0.0978
   56MOL   H25223462   6.108   5.836   2.830 -0.2483  0.5080 -0.0529
   56MOL   H25323463   6.095   5.672   2.782 -1.4858 -0.4287 -0.8671
   56MOL   C25423464   5.443   6.045   2.931 -0.0311  0.3261  0.4268
   56MOL   C25523465   5.291   6.040   2.954 -0.0719 -0.4111 -0.1105
   56MOL   C25623466   5.257   6.054   3.104 -0.6430 -0.9765 -0.0137
   56MOL   C25723467   5.206   6.191   3.141  0.3515  0.3094  0.8466
   56MOL   C25823468   5.157   6.209   3.283  0.2297  0.2059 -0.5146
   56MOL   C25923469   5.070   6.102   3.347 -0.4041 -1.1916 -0.7132
   56MOL   C26023470   4.941   6.085   3.259 -0.0710  0.1499 -0.7039
   56MOL   H26123471   5.491   6.122   2.991 -2.0898  1.9624  0.0271
   56MOL   H26223472   5.478   5.946   2.959 -0.6494  0.2857  1.0860
   56MOL   H26323473   5.249   6.128   2.905 -0.4509 -0.3355  0.3408
   56MOL   H26423474   5.340   6.036   3.172  1.1697 -0.3665 -2.0146
   56MOL   H26523475   5.189   5.973   3.131  0.1126 -1.1954  1.2406
   56MOL   H26623476   5.274   6.271   3.112  1.3824 -1.0495 -0.5972
   56MOL   H26723477   5.122   6.216   3.076  1.7569  0.5413 -0.9486
   56MOL   H26823478   5.110   6.307   3.297  1.0934  0.3747  1.3035
   56MOL   H26923479   5.244   6.215   3.347  0.6945 -2.4882 -0.8388
   56MOL   H27023480   5.122   6.010   3.373 -0.9910 -0.8544  1.7918
   56MOL   H27123481   5.029   6.148   3.437  0.1346  0.8091 -1.4484
   56MOL   H27223482   4.959   6.020   3.174  1.9467 -1.2428  0.7372
   56MOL   H27323483   4.855   6.057   3.321  0.2938  2.6276  1.0205
   56MOL   H27423484   4.903   6.178   3.217  0.9566  0.6240 -0.5855
   56MOL   C27523485   5.201   5.927   2.889  0.3960 -0.0001 -0.2561
   56MOL   C27623486   5.229   5.776   2.922 -0.4834  0.6765  0.3773
   56MOL   C27723487   5.342   5.728   2.828 -0.1635 -0.5191 -0.1335
   56MOL   C27823488   5.425   5.615   2.893  0.4523 -0.9493  0.0261
   56MOL   C27923489   5.549   5.565   2.817  0.0172 -0.3322 -0.7407
   56MOL   C28023490   5.607   5.445   2.895 -0.1403 -0.1150  0.4722
   56MOL   C28123491   5.751   5.415   2.844  0.0358  0.1947 -0.5475
   56MOL   H28223492   5.211   5.937   2.781 -1.1295 -0.9234 -0.4933
   56MOL   H28323493   5.095   5.947   2.909  0.6894  0.6820  0.6865
   56MOL   H28423494   5.259   5.758   3.025  0.4266 -1.6123 -0.2520
   56MOL   H28523495   5.299   5.703   2.731  0.4409  1.1829 -0.8475
   56MOL   H28623496   5.418   5.801   2.804  0.6399 -0.5647  2.1196
   56MOL   H28723497   5.350   5.544   2.926 -0.2340 -0.4124 -0.3481
   56MOL   H28823498   5.454   5.651   2.991  0.7727  0.2532 -0.4958
   56MOL   H28923499   5.623   5.644   2.827  0.0987 -0.2567 -1.8613
   56MOL   H29023500   5.531   5.532   2.714 -0.6022  0.3169 -0.8422
   56MOL   H29123501   5.596   5.457   3.002  0.9508  0.5318  0.5196
   56MOL   H29223502   5.548   5.360   2.860 -1.2957  0.3729  1.2344
   56MOL   H29323503   5.785   5.317   2.879 -0.4710  0.4472  0.6663
   56MOL   H29423504   5.827   5.481   2.884 -1.4843  0.7614  1.4992
   56MOL   H29523505   5.760   5.412   2.736 -0.5670 -2.0246 -0.5575
   56MOL   C29623506   5.100   5.695   2.893  0.6827  0.2663  0.3683
   56MOL   C29723507   4.993   5.695   3.012 -0.2260 -0.4437 -0.0528
   56MOL   C29823508   5.049   5.652   3.156 -0.6359 -0.1567 -0.4229
   56MOL   C29923509   5.100   5.508   3.154  0.4406 -0.3210 -0.2448
   56MOL   C30023510   5.147   5.446   3.293  0.4844  0.0163 -0.4652
   56MOL   C30123511   5.290   5.488   3.329 -0.7069 -0.6728  0.2792
   56MOL   C30223512   5.343   5.430   3.455  0.2191  0.3381 -0.1234
   56MOL   H30323513   5.057   5.732   2.800  2.7496  0.1183 -0.6967
   56MOL   H30423514   5.126   5.592   2.867  1.7078  0.3613  0.9846
   56MOL   H30523515   4.954   5.796   3.024 -1.5336 -0.9042 -0.2361
   56MOL   H30623516   5.128   5.715   3.195  0.4547 -1.2113 -0.8944
   56MOL   H30723517   4.972   5.659   3.233  1.6596 -0.4148  1.9537
   56MOL   H30823518   5.166   5.494   3.068 -0.7273 -1.7306 -0.9148
   56MOL   H30923519   5.019   5.444   3.120  2.0599 -1.2722 -2.4879
   56MOL   H31023520   5.135   5.338   3.287 -3.1917  0.3274  0.2123
   56MOL   H31123521   5.073   5.470   3.370  0.3082 -0.8812 -0.3473
   56MOL   H31223522   5.361   5.465   3.249  0.4913  0.3155  1.0239
   56MOL   H31323523   5.295   5.596   3.337 -2.5014 -0.6216  0.8556
   56MOL   H31423524   5.352   5.322   3.456  0.8677  0.3972  0.6005
   56MOL   H31523525   5.445   5.468   3.461  0.4799 -0.2205 -1.0019
   56MOL   H31623526   5.280   5.474   3.533  0.2402  0.3191 -0.0953
   56MOL   C31723527   4.875   5.603   2.964  0.0060 -0.4291 -0.0955
   56MOL   C31823528   4.765   5.571   3.065 -0.2760 -0.0972  0.2502
   56MOL   C31923529   4.712   5.703   3.121 -0.3489 -0.1258  0.7222
   56MOL   C32023530   4.645   5.809   3.024 -0.2279 -0.5164 -0.4096
   56MOL   C32123531   4.601   5.933   3.101 -0.6291 -0.0713  0.1988
   56MOL   C32223532   4.528   6.028   3.009  0.5485 -0.0144 -0.1379
   56MOL   C32323533   4.491   6.156   3.089  0.7485 -0.2573  0.0653
   56MOL   H32423534   4.914   5.511   2.920  0.1165  0.1709 -1.2826
   56MOL   H32523535   4.835   5.647   2.872  2.5197  2.5584  0.1676
   56MOL   H32623536   4.809   5.516   3.148  0.4112 -0.4010 -0.3142
   56MOL   H32723537   4.790   5.762   3.169 -2.2733  4.0262 -1.0198
   56MOL   H32823538   4.640   5.687   3.201 -1.5329  0.0826 -0.2892
   56MOL   H32923539   4.560   5.759   2.979  0.8450 -1.4161 -1.4648
   56MOL   H33023540   4.704   5.833   2.935 -0.5618  0.6933 -0.3205
   56MOL   H33123541   4.681   5.991   3.147 -1.6403  0.6336  1.1163
   56MOL   H33223542   4.532   5.900   3.179  0.2405 -1.4207  0.4073
   56MOL   H33323543   4.453   5.989   2.940  0.2091  1.4887 -0.6258
   56MOL   H33423544   4.602   6.069   2.940  0.2028 -0.2575 -0.6654
   56MOL   H33523545   4.389   6.181   3.060  0.5825  1.4840  2.0393
   56MOL   H33623546   4.559   6.241   3.076  0.0591  0.4715  1.1731
   56MOL   H33723547   4.489   6.127   3.194 -0.5033 -0.9707 -0.1409
   56MOL   C33823548   4.656   5.482   2.997  0.1652 -0.0700 -0.0830
   56MOL   C33923549   4.702   5.331   2.982 -0.4943  0.5279  0.1917
   56MOL   C34023550   4.673   5.270   2.835 -0.2018  0.3071 -0.3949
   56MOL   C34123551   4.530   5.220   2.814  0.4356  0.9041 -0.7503
   56MOL   C34223552   4.491   5.188   2.671 -1.0156 -0.3507 -0.2705
   56MOL   C34323553   4.348   5.133   2.656 -0.6476 -0.2340 -0.6923
   56MOL   C34423554   4.317   5.081   2.519 -0.0576  0.3261  0.3092
   56MOL   H34523555   4.634   5.528   2.900 -2.8958 -0.2142  0.4950
   56MOL   H34623556   4.558   5.479   3.043 -0.0287 -0.6483 -0.5242
   56MOL   H34723557   4.811   5.329   2.986 -0.5059 -1.0257 -0.0616
   56MOL   H34823558   4.704   5.344   2.760 -0.1626 -0.1737 -0.8524
   56MOL   H34923559   4.741   5.186   2.822 -2.0756 -1.2446 -0.2306
   56MOL   H35023560   4.466   5.301   2.849  1.3746  0.8567  1.1282
   56MOL   H35123561   4.512   5.129   2.872  1.3364  0.7845 -0.6560
   56MOL   H35223562   4.499   5.278   2.611 -0.7597 -1.1466 -1.4440
   56MOL   H35323563   4.550   5.102   2.639  0.7331  0.0751  1.6738
   56MOL   H35423564   4.343   5.046   2.722 -1.7340 -1.7707 -2.7242
   56MOL   H35523565   4.285   5.214   2.693  1.4670  0.7446  0.8325
   56MOL   H35623566   4.397   5.018   2.481  0.1407 -0.0753  1.3838
   56MOL   H35723567   4.308   5.166   2.451  0.7595  1.9655  2.2140
   56MOL   H35823568   4.221   5.029   2.522  0.2807 -0.3182  0.0284
   56MOL   C35923569   4.646   5.247   3.106 -0.3724  0.2087 -0.2265
   56MOL   C36023570   4.684   5.099   3.107  0.3638 -0.1708 -0.5652
   56MOL   C36123571   4.838   5.084   3.108  0.0338 -0.7685  0.0666
   56MOL   C36223572   4.872   4.933   3.101  0.0125  0.2026  0.0384
   56MOL   C36323573   5.019   4.895   3.073  0.5118 -0.6060  0.0980
   56MOL   C36423574   5.045   4.746   3.110 -0.0182  0.0385  0.0591
   56MOL   C36523575   5.170   4.686   3.045 -0.3836  0.3443  0.1626
   56MOL   H36623576   4.541   5.275   3.107 -0.1676  1.0747  2.7908
   56MOL   H36723577   4.694   5.296   3.191 -0.2977  0.4242 -0.3951
   56MOL   H36823578   4.659   5.038   3.021 -0.0677  0.5381 -0.9435
   56MOL   H36923579   4.889   5.115   3.016 -0.3642  0.5607  0.2878
   56MOL   H37023580   4.868   5.141   3.196 -2.9072  0.3912  0.3417
   56MOL   H37123581   4.835   4.881   3.189  0.2749  1.9298  1.2005
   56MOL   H37223582   4.831   4.894   3.008 -1.0944  0.8655  0.2379
   56MOL   H37323583   5.030   4.908   2.965 -1.5887 -3.4253 -0.5143
   56MOL   H37423584   5.085   4.960   3.130 -1.3873  1.3061  0.1917
   56MOL   H37523585   5.045   4.742   3.219 -1.8357 -1.4504  0.0466
   56MOL   H37623586   4.958   4.683   3.091  1.4308 -2.8951  2.5940
   56MOL   H37723587   5.170   4.703   2.938 -0.1926  1.5163  0.3482
   56MOL   H37823588   5.262   4.726   3.088 -0.8523  2.5468 -0.8269
   56MOL   H37923589   5.183   4.578   3.061 -0.0198  0.4111  0.3201
   56MOL   C38023590   4.622   5.031   3.236  0.6107  0.4270 -0.4604
   56MOL   C38123591   4.468   5.039   3.254  0.5234 -0.3803 -0.0065
   56MOL   C38223592   4.394   4.981   3.127 -0.2048 -0.4611 -0.7402
   56MOL   C38323593   4.245   5.016   3.112  0.2800  0.0324  0.2863
   56MOL   C38423594   4.194   5.022   2.966 -0.0452 -0.3243 -0.1732
   56MOL   C38523595   4.044   4.997   2.952 -0.3175 -0.9195 -0.3137
   56MOL   C38623596   4.008   4.983   2.796 -0.1796  0.3177  0.6649
   56MOL   H38723597   4.646   4.925   3.243  2.8696  0.9432  0.1702
   56MOL   H38823598   4.674   5.078   3.319  1.8586 -0.7883 -0.5299
   56MOL   H38923599   4.434   5.143   3.256 -0.2094 -0.4789 -3.7734
   56MOL   H39023600   4.409   4.873   3.123  1.6536 -0.2011 -1.3662
   56MOL   H39123601   4.437   5.030   3.039 -1.0107  0.6277 -0.5427
   56MOL   H39223602   4.182   4.943   3.161  0.1413 -1.7836 -2.4519
   56MOL   H39323603   4.238   5.117   3.154 -1.1770 -0.9554  2.4679
   56MOL   H39423604   4.229   5.112   2.916 -0.4112 -0.7943 -1.2914
   56MOL   H39523605   4.232   4.943   2.902  0.0306  0.7248 -1.4545
   56MOL   H39623606   3.987   5.077   2.999  1.3519 -0.7301  1.4677
   56MOL   H39723607   4.028   4.899   2.998 -1.2234 -0.8281 -0.4352
   56MOL   H39823608   4.035   5.067   2.731 -1.1547 -0.7497 -1.1383
   56MOL   H39923609   3.903   4.958   2.784  0.2449 -0.4228 -1.6577
   56MOL   H40023610   4.063   4.897   2.759  0.5121  0.0728  2.1943
   56MOL   C40123611   4.424   4.968   3.376 -0.3983  0.5459  0.4804
   56MOL   C40223612   4.484   5.027   3.507 -0.3982  0.2481 -0.3807
   56MOL   C40323613   4.452   5.180   3.552  0.4076  0.4735 -0.3504
   56MOL   C40423614   4.547   5.241   3.663  0.8192 -0.0625  0.6911
   56MOL   C40523615   4.692   5.267   3.617  0.5164 -0.7774  0.4416
   56MOL   C40623616   4.697   5.395   3.526  0.0112 -0.5347  0.5181
   56MOL   C40723617   4.833   5.432   3.477 -0.8282 -0.1625 -0.2258
   56MOL   H40823618   4.450   4.862   3.371 -0.3331  0.5792  0.1209
   56MOL   H40923619   4.316   4.962   3.384 -0.4300 -1.3748 -0.9113
   56MOL   H41023620   4.592   5.010   3.509 -0.3060  0.8607 -0.0834
   56MOL   H41123621   4.354   5.164   3.596  0.6409  0.6315  0.2368
   56MOL   H41223622   4.453   5.248   3.467 -0.3354  0.4176 -0.4052
   56MOL   H41323623   4.552   5.175   3.750 -0.3963 -1.9993 -0.6583
   56MOL   H41423624   4.514   5.338   3.699 -2.7162 -1.2136  0.7221
   56MOL   H41523625   4.745   5.295   3.708  2.0118  1.5579 -1.0681
   56MOL   H41623626   4.745   5.180   3.578  1.8456  0.5485 -0.8309
   56MOL   H41723627   4.639   5.377   3.436 -1.4375 -0.1807  1.3573
   56MOL   H41823628   4.651   5.482   3.573  2.0019  0.6936  0.2632
   56MOL   H41923629   4.832   5.509   3.400  0.6002 -0.7011 -0.8015
   56MOL   H42023630   4.884   5.350   3.426  1.5991  1.5949 -0.6917
   56MOL   H42123631   4.902   5.453   3.558 -2.6831 -0.9495  1.5902
   56MOL   H42223632   4.454   4.956   3.584  2.2075  0.9903  1.3674
   57MOL     C123633   7.431   3.657   2.316 -0.0154  0.5305  0.2908
   57MOL     C223634   7.397   3.567   2.201 -0.1053  0.2921 -0.0815
   57MOL     C323635   7.483   3.433   2.199  0.1148 -0.5245 -0.2190
   57MOL     C423636   7.437   3.328   2.295 -0.1660 -0.2212 -0.8064
   57MOL     C523637   7.501   3.186   2.267 -0.2229  0.2903  0.0144
   57MOL     C623638   7.488   3.094   2.387 -0.3845  0.4054  0.5077
   57MOL     C723639   7.546   2.954   2.375 -0.4091  0.7891  0.4016
   57MOL     H823640   7.538   3.678   2.320 -0.3077  1.7881  2.2384
   57MOL     H923641   7.395   3.628   2.414 -2.6368  1.8959 -0.2280
   57MOL    H1023642   7.292   3.540   2.210 -0.6499  1.8543 -1.4489
   57MOL    H1123643   7.491   3.393   2.098 -0.7098 -0.4864 -0.3008
   57MOL    H1223644   7.586   3.464   2.217 -0.2797  0.5621  0.1732
   57MOL    H1323645   7.460   3.349   2.400  0.0689  1.3912 -1.1664
   57MOL    H1423646   7.328   3.320   2.292 -0.1065 -0.4037 -2.9990
   57MOL    H1523647   7.610   3.190   2.262 -0.0079 -1.6755  1.9458
   57MOL    H1623648   7.456   3.146   2.177  1.0739  1.3370 -1.1195
   57MOL    H1723649   7.381   3.080   2.398 -0.2512  0.8844  2.7278
   57MOL    H1823650   7.532   3.136   2.477  0.1689  0.2194  0.3278
   57MOL    H1923651   7.647   2.964   2.334 -1.0115 -0.7555 -1.4908
   57MOL    H2023652   7.490   2.894   2.304  0.2775  1.9049 -1.1107
   57MOL    H2123653   7.548   2.903   2.472  0.9997 -1.7877 -0.9325
   57MOL    H2223654   7.392   3.758   2.313 -1.5926 -0.0860 -0.2423
   57MOL    C2323655   7.403   3.649   2.075 -0.0432  0.4139 -0.2348
   57MOL    C2423656   7.350   3.591   1.950  0.4844 -0.7280  0.3850
   57MOL    C2523657   7.408   3.664   1.818  0.1310 -0.0578 -0.1903
   57MOL    C2623658   7.559   3.629   1.793  0.0232 -0.6008 -0.1206
   57MOL    C2723659   7.607   3.647   1.648  0.3448  0.1285 -0.4366
   57MOL    C2823660   0.041   3.619   1.630 -0.0212 -0.0063 -0.4235
   57MOL    C2923661   0.095   3.634   1.491 -0.3321  0.6755  0.6888
   57MOL    H3023662   7.341   3.739   2.079  1.2428  1.2157  3.6857
   57MOL    H3123663   7.502   3.691   2.060  0.1848  1.1625  2.9763
   57MOL    H3223664   7.387   3.489   1.945  0.5064 -0.6150 -2.3388
   57MOL    H3323665   7.411   3.771   1.838 -0.7224  0.0106 -0.4052
   57MOL    H3423666   7.347   3.638   1.732 -2.4606 -0.4016  1.6666
   57MOL    H3523667   7.579   3.527   1.825  2.2308  0.0895  0.8465
   57MOL    H3623668   7.629   3.685   1.856  0.0809  0.2902 -0.9631
   57MOL    H3723669   7.596   3.751   1.618 -0.0366 -0.0381 -0.8833
   57MOL    H3823670   7.542   3.591   1.580  0.9577 -1.1903  0.0421
   57MOL    H3923671   0.064   3.521   1.673  1.0957  0.4239 -0.0240
   57MOL    H4023672   0.107   3.688   1.682  0.0309 -0.8532  0.6513
   57MOL    H4123673   0.202   3.615   1.486 -0.3988  0.4201  0.1678
   57MOL    H4223674   0.038   3.568   1.425 -1.2954  0.2154  1.9544
   57MOL    H4323675   0.080   3.738   1.461 -1.7633  0.1795 -0.4115
   57MOL    C4423676   7.194   3.583   1.945  0.8501  0.3617 -0.6082
   57MOL    C4523677   7.135   3.458   1.886  0.5592  0.6127  0.1398
   57MOL    C4623678   7.146   3.332   1.981 -0.0154  0.3369 -0.5744
   57MOL    C4723679   7.040   3.315   2.100  0.1058  0.0705  0.8598
   57MOL    C4823680   7.073   3.203   2.203  0.7131 -1.0631 -0.4353
   57MOL    C4923681   6.986   3.072   2.179 -0.3132 -0.2322  0.3245
   57MOL    C5023682   7.062   2.945   2.229  0.1382  0.3328  0.3479
   57MOL    H5123683   7.159   3.678   1.904 -2.5114 -0.1108  1.0007
   57MOL    H5223684   7.159   3.579   2.049 -1.9379  3.7402 -1.3241
   57MOL    H5323685   7.198   3.432   1.802 -0.5484 -0.1813 -0.4601
   57MOL    H5423686   7.249   3.318   2.014 -0.3490 -0.5211  0.1593
   57MOL    H5523687   7.140   3.242   1.919  1.5036  2.0064 -3.2205
   57MOL    H5623688   7.030   3.414   2.145 -1.7750  0.5027 -0.4525
   57MOL    H5723689   6.941   3.295   2.058 -0.2956  1.1444  1.2642
   57MOL    H5823690   7.057   3.239   2.304  1.1816 -2.1197  0.0244
   57MOL    H5923691   7.178   3.176   2.211  0.3727 -1.4796  4.0757
   57MOL    H6023692   6.938   3.068   2.081  1.2871  0.4127 -0.5014
   57MOL    H6123693   6.892   3.089   2.232 -0.2403  1.4324 -0.0384
   57MOL    H6223694   7.119   2.964   2.319  1.3821  3.1765 -0.9861
   57MOL    H6323695   7.133   2.907   2.154  0.8895 -0.5114  1.4692
   57MOL    H6423696   6.994   2.860   2.240 -1.2748  1.6663  2.1879
   57MOL    C6523697   6.994   3.484   1.829 -0.1207 -0.1023  0.1889
   57MOL    C6623698   6.955   3.406   1.699 -1.3601 -0.5553  0.2259
   57MOL    C6723699   7.042   3.449   1.581  0.1963  0.4630  0.0911
   57MOL    C6823700   7.034   3.374   1.446  0.6494  0.0383  0.1450
   57MOL    C6923701   7.101   3.230   1.460  0.5671 -0.4534  0.6491
   57MOL    C7023702   7.157   3.179   1.321 -0.0049  0.0870 -0.1751
   57MOL    C7123703   7.270   3.270   1.274  0.1152  0.1603  0.7105
   57MOL    H7223704   6.922   3.472   1.910  1.9296  1.9770  2.4175
   57MOL    H7323705   6.985   3.590   1.804  0.8171 -0.5300 -2.0308
   57MOL    H7423706   6.977   3.301   1.720 -2.5034 -0.7544  0.5089
   57MOL    H7523707   7.027   3.554   1.558 -1.9486 -0.2175 -1.8480
   57MOL    H7623708   7.149   3.443   1.601  0.6933  0.7003 -2.2863
   57MOL    H7723709   6.933   3.361   1.409  0.9780 -0.8126 -0.4670
   57MOL    H7823710   7.089   3.438   1.378 -1.1083  0.8579 -0.5417
   57MOL    H7923711   7.191   3.238   1.521  0.6555  1.7734  0.2785
   57MOL    H8023712   7.031   3.162   1.508  0.7597 -1.5258 -0.5722
   57MOL    H8123713   7.073   3.173   1.252 -0.4347 -1.2509  0.4491
   57MOL    H8223714   7.201   3.081   1.336  0.1872 -0.0322 -1.4940
   57MOL    H8323715   7.360   3.210   1.257  0.3644 -0.0186  2.6479
   57MOL    H8423716   7.239   3.327   1.186  0.0888 -3.6543 -1.8384
   57MOL    H8523717   7.303   3.347   1.344 -1.3378  0.5531  0.9794
   57MOL    C8623718   6.811   3.417   1.644 -0.0620 -0.1553 -0.3590
   57MOL    C8723719   6.694   3.393   1.743  0.4199  0.5587 -0.8470
   57MOL    C8823720   6.562   3.406   1.669  0.2955 -0.4194 -0.5804
   57MOL    C8923721   6.524   3.545   1.607 -0.5286  0.2216 -0.5369
   57MOL    C9023722   6.377   3.572   1.560  0.2658 -0.0087  0.5735
   57MOL    C9123723   6.274   3.550   1.663  0.8152 -0.0804  0.3979
   57MOL    C9223724   6.274   3.667   1.766 -0.7414  0.2354 -0.2246
   57MOL    H9323725   6.801   3.522   1.614 -0.3321  0.8817  3.1434
   57MOL    H9423726   6.798   3.340   1.568  0.7826 -1.5848  0.9010
   57MOL    H9523727   6.695   3.479   1.809 -1.8747  0.8909 -1.1834
   57MOL    H9623728   6.547   3.324   1.599  0.3962 -0.7837 -0.1802
   57MOL    H9723729   6.494   3.397   1.754  0.2364 -2.3026 -0.8225
   57MOL    H9823730   6.557   3.617   1.682 -0.3974 -1.4944  1.0897
   57MOL    H9923731   6.587   3.573   1.522  1.2904  0.8504  0.9804
   57MOL   H10023732   6.348   3.514   1.472  1.8112 -0.0637  0.0962
   57MOL   H10123733   6.380   3.675   1.527  0.2873  0.4494  1.9642
   57MOL   H10223734   6.174   3.540   1.621  0.2535  1.0686  1.4557
   57MOL   H10323735   6.291   3.453   1.710 -1.3926 -0.6050  0.1891
   57MOL   H10423736   6.196   3.651   1.840 -1.0407  0.4701 -0.4911
   57MOL   H10523737   6.248   3.754   1.706  0.1986  1.1852  0.7516
   57MOL   H10623738   6.374   3.666   1.808 -0.8742  0.8021  0.0939
   57MOL   C10723739   6.698   3.254   1.816 -0.1230  0.0251  0.0568
   57MOL   C10823740   6.592   3.222   1.934  0.1145 -0.6595  0.7148
   57MOL   C10923741   6.630   3.085   1.996 -0.2555 -0.8189  0.0599
   57MOL   C11023742   6.623   2.962   1.909 -0.3291 -0.2029  0.4926
   57MOL   C11123743   6.602   2.836   1.999 -0.1745  0.4114  0.1609
   57MOL   C11223744   6.735   2.798   2.066 -0.3029 -0.3242 -0.2309
   57MOL   C11323745   6.738   2.680   2.166 -0.2848  0.7323  0.3686
   57MOL   H11423746   6.793   3.251   1.870 -0.0032  0.4633 -0.1326
   57MOL   H11523747   6.693   3.180   1.736  1.8227 -0.7958  0.6431
   57MOL   H11623748   6.490   3.211   1.898  0.2958 -0.5635  0.1578
   57MOL   H11723749   6.570   3.064   2.085 -0.3037 -0.4128  0.1229
   57MOL   H11823750   6.733   3.079   2.029 -0.5617 -2.3753  0.7514
   57MOL   H11923751   6.531   2.958   1.850  0.8210 -0.4284 -1.3051
   57MOL   H12023752   6.696   2.941   1.831  0.1573 -3.2426  1.6609
   57MOL   H12123753   6.581   2.748   1.938  2.4666  0.2216 -0.5286
   57MOL   H12223754   6.518   2.849   2.067 -0.1243  1.1002  0.0920
   57MOL   H12323755   6.806   2.765   1.990  0.7865 -0.2046  0.7171
   57MOL   H12423756   6.775   2.876   2.130 -4.6175  0.6008  1.5045
   57MOL   H12523757   6.834   2.629   2.175 -1.4683 -1.1659  2.8541
   57MOL   H12623758   6.716   2.721   2.265 -1.3858  0.6834  0.1444
   57MOL   H12723759   6.657   2.607   2.167 -1.2090  1.7191 -0.6621
   57MOL   C12823760   6.581   3.347   2.036  0.1136  0.7117  0.1530
   57MOL   C12923761   6.483   3.327   2.163  0.2477 -0.3300  0.2612
   57MOL   C13023762   6.339   3.359   2.132  0.8408 -0.1422 -0.5606
   57MOL   C13123763   6.247   3.274   2.034  0.6692  0.2373  0.3094
   57MOL   C13223764   6.232   3.123   2.066  0.2406  0.8819 -0.1005
   57MOL   C13323765   6.109   3.064   1.999  0.5319 -0.3779 -0.1456
   57MOL   C13423766   6.109   2.909   2.024 -0.0766  0.6166 -0.3437
   57MOL   H13523767   6.682   3.354   2.078  2.1365  0.2774 -4.2960
   57MOL   H13623768   6.570   3.445   1.989 -2.2994  0.2197 -0.3571
   57MOL   H13723769   6.476   3.225   2.200  1.1686 -0.5670 -0.2095
   57MOL   H13823770   6.330   3.465   2.105 -2.8282  0.2035  1.6123
   57MOL   H13923771   6.291   3.342   2.229 -0.6342  0.1883 -1.2162
   57MOL   H14023772   6.282   3.292   1.932 -0.5373  1.9508  0.1567
   57MOL   H14123773   6.146   3.316   2.032  0.6493  0.2701  1.7709
   57MOL   H14223774   6.209   3.111   2.172 -2.5947  4.3991 -0.2400
   57MOL   H14323775   6.322   3.067   2.039  0.2640  0.8334  0.0760
   57MOL   H14423776   6.121   3.092   1.894  5.0481 -2.9613 -0.4728
   57MOL   H14523777   6.013   3.106   2.027 -0.0278 -0.4770 -1.8751
   57MOL   H14623778   6.039   2.866   1.952 -1.1143 -0.0970  1.0733
   57MOL   H14723779   6.081   2.883   2.126  0.4642  0.8260 -0.1406
   57MOL   H14823780   6.205   2.861   2.005  0.2939  1.4478 -0.5732
   57MOL   C14923781   6.539   3.418   2.276 -0.6275  0.0825 -0.1236
   57MOL   C15023782   6.543   3.337   2.408 -0.1766  0.0092  0.5704
   57MOL   C15123783   6.537   3.437   2.534  0.5573 -0.7376  0.6559
   57MOL   C15223784   6.403   3.506   2.572  0.3119 -0.6052  0.7476
   57MOL   C15323785   6.423   3.623   2.672  0.3534  0.2498  0.2201
   57MOL   C15423786   6.302   3.716   2.683  0.2360  0.8106 -0.4115
   57MOL   C15523787   6.166   3.655   2.731 -0.3438 -0.4160  0.0002
   57MOL   H15623788   6.641   3.451   2.258 -0.5988 -0.8634 -1.8287
   57MOL   H15723789   6.475   3.506   2.287 -1.9487 -1.0278  1.3854
   57MOL   H15823790   6.455   3.273   2.406 -1.3776  1.6215  0.1214
   57MOL   H15923791   6.556   3.375   2.621 -0.6518 -1.7040  0.2522
   57MOL   H16023792   6.618   3.509   2.524  2.3151 -2.5769  1.4748
   57MOL   H16123793   6.333   3.437   2.619 -2.3275  0.3064 -1.6794
   57MOL   H16223794   6.354   3.544   2.482  1.6725 -0.2564  0.1447
   57MOL   H16323795   6.516   3.677   2.655  1.1336 -0.9893  0.4856
   57MOL   H16423796   6.439   3.575   2.768 -1.1929 -1.5882 -0.4264
   57MOL   H16523797   6.283   3.773   2.593 -0.7870  1.0770 -0.0291
   57MOL   H16623798   6.338   3.793   2.751 -1.1325 -0.6996  2.1067
   57MOL   H16723799   6.082   3.699   2.677  0.1557  0.1719 -0.3108
   57MOL   H16823800   6.157   3.670   2.838 -1.5047  0.5488 -0.2303
   57MOL   H16923801   6.152   3.549   2.709 -5.6430 -0.1093  1.1497
   57MOL   C17023802   6.673   3.249   2.425  0.1128  0.1534  0.0490
   57MOL   C17123803   6.683   3.134   2.533  0.3437  0.3558  0.2643
   57MOL   C17223804   6.633   2.997   2.476 -0.0828 -0.1964  0.3952
   57MOL   C17323805   6.489   2.994   2.413 -0.4330  0.7890 -0.1095
   57MOL   C17423806   6.441   2.847   2.382  0.3928  0.0794  0.4312
   57MOL   C17523807   6.302   2.841   2.315  0.6309  0.6265  0.0499
   57MOL   C17623808   6.265   2.697   2.296 -0.2952 -0.3374  0.2367
   57MOL   H17723809   6.754   3.320   2.443  0.5553 -0.7753  1.8833
   57MOL   H17823810   6.701   3.202   2.331  2.0353  1.3457 -0.0193
   57MOL   H17923811   6.616   3.178   2.607  2.0611  2.8020  0.4491
   57MOL   H18023812   6.648   2.917   2.549  0.7365 -0.0523  0.3801
   57MOL   H18123813   6.698   2.962   2.396 -1.3506 -2.8332  0.4497
   57MOL   H18223814   6.486   3.063   2.329  0.9285 -0.2345 -1.0287
   57MOL   H18323815   6.420   3.031   2.489  1.5314 -0.5751  2.3989
   57MOL   H18423816   6.435   2.788   2.473 -0.4139 -1.5063 -0.6320
   57MOL   H18523817   6.508   2.818   2.301  1.7454 -0.8180  1.8386
   57MOL   H18623818   6.303   2.884   2.215  0.6036  0.5078 -0.0020
   57MOL   H18723819   6.231   2.901   2.371  1.8259  1.3514  0.8055
   57MOL   H18823820   6.334   2.637   2.237  0.0682 -0.4381  0.7627
   57MOL   H18923821   6.163   2.686   2.258  0.1403 -2.0741 -0.4550
   57MOL   H19023822   6.256   2.651   2.395  0.7736 -2.0427 -0.4353
   57MOL   C19123823   6.829   3.119   2.592 -0.0088  0.4434  0.8808
   57MOL   C19223824   6.878   3.243   2.668  0.7560 -0.1953  0.2622
   57MOL   C19323825   6.841   3.217   2.814  0.1601  0.4402  0.5416
   57MOL   C19423826   6.865   3.341   2.901 -0.1822 -0.0712 -0.1963
   57MOL   C19523827   6.792   3.473   2.863 -0.0263  0.0770 -0.5709
   57MOL   C19623828   6.819   3.590   2.962  0.2839 -0.8259  0.2055
   57MOL   C19723829   6.705   3.693   2.935 -0.2282  0.5663 -0.0226
   57MOL   H19823830   6.894   3.089   2.510 -3.4654 -0.6145 -1.6023
   57MOL   H19923831   6.841   3.026   2.648  2.0062  0.2693  0.1958
   57MOL   H20023832   6.836   3.336   2.630  0.6767 -0.2413  0.2381
   57MOL   H20123833   6.903   3.133   2.844  1.2862  1.1044  0.1051
   57MOL   H20223834   6.735   3.195   2.819  0.2040  0.4250  1.4355
   57MOL   H20323835   6.970   3.369   2.901 -0.3013  0.3733 -0.2751
   57MOL   H20423836   6.844   3.310   3.004 -0.6647 -2.5790 -1.0084
   57MOL   H20523837   6.815   3.506   2.762 -0.4670 -1.9062 -1.3568
   57MOL   H20623838   6.685   3.451   2.857 -0.3257  1.4592 -0.5221
   57MOL   H20723839   6.911   3.642   2.934 -0.3815 -0.1641 -0.8079
   57MOL   H20823840   6.844   3.567   3.065 -0.8594 -2.0002  0.2354
   57MOL   H20923841   6.716   3.790   2.984 -0.7685  1.3832 -1.5021
   57MOL   H21023842   6.603   3.656   2.944 -0.4783  0.6078 -2.5159
   57MOL   H21123843   6.727   3.720   2.832  2.2029 -0.1461  0.2849
   57MOL   C21223844   7.043   3.259   2.652 -0.1597  0.6052  0.7809
   57MOL   C21323845   7.101   3.404   2.639  0.8755 -0.4402  0.2365
   57MOL   C21423846   7.253   3.412   2.641  0.7527 -0.0754  0.7416
   57MOL   C21523847   7.326   3.434   2.782  0.0152 -0.8387  0.0692
   57MOL   C21623848   7.477   3.455   2.769 -0.0301 -0.3657 -0.3426
   57MOL   C21723849   7.546   3.445   2.906 -0.1523  0.0210  0.4251
   57MOL   C21823850   7.566   3.305   2.957  0.1106  0.3536  0.0089
   57MOL   H21923851   7.080   3.208   2.563 -0.0166 -0.2854  1.3480
   57MOL   H22023852   7.083   3.204   2.737 -1.5152 -1.3607  0.1893
   57MOL   H22123853   7.064   3.452   2.729 -0.0757 -2.6243  1.0578
   57MOL   H22223854   7.289   3.309   2.633  1.3593  0.0717  1.5227
   57MOL   H22323855   7.298   3.463   2.557  0.5760 -0.7782  0.2111
   57MOL   H22423856   7.309   3.348   2.847 -1.3252 -0.1556  0.6349
   57MOL   H22523857   7.290   3.521   2.836 -2.4099 -2.4554  1.1478
   57MOL   H22623858   7.523   3.380   2.704  0.9886  0.2469 -0.3509
   57MOL   H22723859   7.478   3.554   2.723  0.5461 -0.7321 -1.1425
   57MOL   H22823860   7.637   3.505   2.903 -0.4458  0.5490  1.5998
   57MOL   H22923861   7.482   3.491   2.981 -1.8620 -0.8713 -0.4521
   57MOL   H23023862   7.468   3.257   2.964 -1.1157  2.8981  1.3781
   57MOL   H23123863   7.592   3.310   3.063  2.3006 -0.6351 -0.4577
   57MOL   H23223864   7.635   3.234   2.912  0.6399  0.3316  0.8348
   57MOL   C23323865   7.047   3.475   2.503 -0.4964  0.1510 -0.6118
   57MOL   C23423866   7.066   3.620   2.498 -0.2900  0.4391  0.5423
   57MOL   C23523867   7.046   3.661   2.358  0.2577 -0.1476 -0.5112
   57MOL   C23623868   6.896   3.692   2.320  0.1748  0.1810  0.6644
   57MOL   C23723869   6.885   3.699   2.175 -0.1774  0.1409  0.6777
   57MOL   C23823870   6.744   3.735   2.127  0.5262  0.4891  0.2511
   57MOL   C23923871   6.740   3.766   1.977 -0.0669  0.0502 -0.1522
   57MOL   H24023872   6.945   3.445   2.479  0.5452 -3.5906 -0.6813
   57MOL   H24123873   7.090   3.426   2.416 -1.5610 -0.6654 -0.6907
   57MOL   H24223874   7.172   3.639   2.515 -0.2777  0.4605  0.4478
   57MOL   H24323875   7.091   3.592   2.287  0.9725 -1.0726  0.8183
   57MOL   H24423876   7.104   3.752   2.343  1.1442 -1.1852 -3.6732
   57MOL   H24523877   6.859   3.785   2.362  0.7583  0.4921  0.5006
   57MOL   H24623878   6.827   3.613   2.348 -0.5520  0.8130  0.6875
   57MOL   H24723879   6.907   3.600   2.136 -1.7345  0.0885 -0.0996
   57MOL   H24823880   6.959   3.768   2.135  0.6230 -1.9707 -1.6543
   57MOL   H24923881   6.670   3.660   2.156  2.2982 -1.6739 -0.7160
   57MOL   H25023882   6.723   3.830   2.177 -4.7573  0.5167 -1.6752
   57MOL   H25123883   6.791   3.860   1.955  0.3840  0.1628  1.3432
   57MOL   H25223884   6.797   3.697   1.916  0.1141  2.4524 -2.8419
   57MOL   H25323885   6.640   3.763   1.932  0.8494  0.3330 -2.2443
   57MOL   C25423886   6.983   3.706   2.601 -0.2660  0.0683  0.2188
   57MOL   C25523887   7.036   3.848   2.628 -0.2340  0.4865  0.7420
   57MOL   C25623888   7.174   3.844   2.699 -0.2566  0.1147  0.1337
   57MOL   C25723889   7.285   3.937   2.640  0.1572 -0.0704  0.1315
   57MOL   C25823890   7.409   3.948   2.729 -0.3754  0.1179  0.1579
   57MOL   C25923891   7.376   4.029   2.857 -0.2254 -0.2463  0.2936
   57MOL   C26023892   7.487   4.111   2.917 -0.3397 -0.8801  0.4376
   57MOL   H26123893   6.987   3.666   2.702 -1.0954  2.0413  1.0632
   57MOL   H26223894   6.879   3.707   2.570 -0.1474  0.4396 -0.1737
   57MOL   H26323895   7.039   3.880   2.524  0.9894  0.2840  0.7032
   57MOL   H26423896   7.214   3.744   2.711  1.1610  0.3443 -2.4490
   57MOL   H26523897   7.148   3.865   2.803 -3.5047  0.9873 -0.7898
   57MOL   H26623898   7.319   3.886   2.550 -0.3772 -0.7886  0.3354
   57MOL   H26723899   7.244   4.034   2.609 -1.8093 -1.7646 -2.8269
   57MOL   H26823900   7.487   4.005   2.680 -0.7657  1.2059  0.7742
   57MOL   H26923901   7.446   3.850   2.758 -0.0839  0.2522  0.2444
   57MOL   H27023902   7.301   4.103   2.828 -0.7512 -1.1063 -0.5889
   57MOL   H27123903   7.320   3.984   2.939 -1.1429  1.7350  0.7923
   57MOL   H27223904   7.575   4.051   2.941 -0.3598 -0.4825  1.5626
   57MOL   H27323905   7.510   4.174   2.831 -0.1162 -0.9128  0.4737
   57MOL   H27423906   7.456   4.177   2.998 -0.5946  2.2855 -2.1549
   57MOL   C27523907   6.928   3.926   2.711  0.2229  0.6025  0.1039
   57MOL   C27623908   6.965   4.079   2.732 -0.3700  0.6426 -0.5490
   57MOL   C27723909   6.899   4.130   2.862 -0.4438  0.2725  0.1899
   57MOL   C27823910   6.966   4.083   2.995 -0.3525  0.2713 -0.0351
   57MOL   C27923911   6.898   4.140   3.121 -0.1329  0.4727 -0.7586
   57MOL   C28023912   6.978   4.113   3.244  0.0718  0.2064 -0.8992
   57MOL   C28123913   6.910   4.160   3.373  0.7557  0.0329 -0.0750
   57MOL   H28223914   6.915   3.878   2.808  1.2889  0.3541  0.1285
   57MOL   H28323915   6.833   3.919   2.657  1.6425 -0.2414 -2.3740
   57MOL   H28423916   7.071   4.085   2.756 -0.1858  0.8893 -1.3865
   57MOL   H28523917   6.900   4.238   2.876 -0.2089  0.2482  0.3531
   57MOL   H28623918   6.792   4.110   2.853 -0.5680  0.1934  1.7308
   57MOL   H28723919   7.074   4.100   2.990 -0.1577 -1.1061 -0.6424
   57MOL   H28823920   6.956   3.976   3.007  1.8671  0.1536  1.0184
   57MOL   H28923921   6.803   4.089   3.133 -0.4091  1.2893  0.4948
   57MOL   H29023922   6.887   4.248   3.115  1.4191  0.7257  0.5684
   57MOL   H29123923   6.993   4.005   3.244  0.7453  0.2862  0.5343
   57MOL   H29223924   7.082   4.144   3.249  0.9204 -2.7325  0.2298
   57MOL   H29323925   6.820   4.099   3.376  0.3738  0.6613  1.7704
   57MOL   H29423926   6.856   4.255   3.374 -1.1366 -1.0155  2.1804
   57MOL   H29523927   6.957   4.147   3.471  1.0996  4.0342  0.3627
   57MOL   C29623928   6.932   4.168   2.609  1.0652  0.7495  0.0802
   57MOL   C29723929   6.990   4.310   2.622  0.2833  0.1700  0.4160
   57MOL   C29823930   6.921   4.409   2.518 -0.0031  0.6112 -0.3186
   57MOL   C29923931   6.779   4.457   2.554  0.6393  0.2773  0.3740
   57MOL   C30023932   6.741   4.568   2.457 -0.1103  0.5538  0.1781
   57MOL   C30123933   6.597   4.612   2.453  0.3383  0.8099  0.3463
   57MOL   C30223934   6.551   4.682   2.328 -0.8129 -0.0993 -0.3129
   57MOL   H30323935   6.948   4.117   2.514 -2.1685 -3.5382  1.6764
   57MOL   H30423936   6.823   4.177   2.618  0.7417 -1.9753 -0.6188
   57MOL   H30523937   6.966   4.348   2.721 -0.1649  1.2194 -0.0838
   57MOL   H30623938   6.980   4.500   2.509  0.0531  0.7707  1.5182
   57MOL   H30723939   6.929   4.361   2.421 -1.2867 -0.1826 -0.0470
   57MOL   H30823940   6.770   4.506   2.652  0.4117  1.8028 -0.3920
   57MOL   H30923941   6.710   4.373   2.547  0.0700  0.5825  1.8698
   57MOL   H31023942   6.760   4.537   2.354  3.5082  1.0475  0.6408
   57MOL   H31123943   6.801   4.660   2.461 -0.3868  0.7239  0.4388
   57MOL   H31223944   6.552   4.513   2.448 -2.1273  1.8814  0.7041
   57MOL   H31323945   6.574   4.655   2.551  1.8328 -1.0537  1.5577
   57MOL   H31423946   6.590   4.784   2.316 -1.6295  0.4469  1.5655
   57MOL   H31523947   6.580   4.628   2.238 -0.3707  1.1694 -0.9453
   57MOL   H31623948   6.443   4.682   2.332 -0.9666  0.8558 -3.2391
   57MOL   C31723949   7.146   4.314   2.601 -0.3916  0.0249 -0.2795
   57MOL   C31823950   7.214   4.451   2.631 -0.5215  0.1439  0.0296
   57MOL   C31923951   7.197   4.512   2.772  0.1341  0.8363 -0.2223
   57MOL   C32023952   7.240   4.418   2.889 -0.0651 -0.1862  0.1966
   57MOL   C32123953   7.224   4.482   3.027 -0.1175 -0.0704 -0.0262
   57MOL   C32223954   7.305   4.392   3.120 -0.0627  0.1153  0.1785
   57MOL   C32323955   7.294   4.453   3.260 -0.2722  0.3398 -0.2703
   57MOL   H32423956   7.172   4.284   2.499  1.5297 -1.0823  0.5091
   57MOL   H32523957   7.189   4.237   2.665 -0.1497 -0.6282 -1.2244
   57MOL   H32623958   7.172   4.525   2.564 -1.4843 -0.6362 -0.2422
   57MOL   H32723959   7.094   4.546   2.781  0.1619  0.4444  1.8295
   57MOL   H32823960   7.251   4.606   2.783  0.2130  0.8967 -1.0812
   57MOL   H32923961   7.343   4.382   2.885 -0.3426 -1.3149  2.2031
   57MOL   H33023962   7.178   4.328   2.892  0.1118 -0.3991 -2.1067
   57MOL   H33123963   7.118   4.491   3.050  0.1649  2.1587  0.5686
   57MOL   H33223964   7.275   4.578   3.032  2.3603 -1.2868 -1.0514
   57MOL   H33323965   7.409   4.381   3.089 -0.0854 -0.5658  0.3440
   57MOL   H33423966   7.258   4.294   3.120 -0.5250  0.3364 -0.2018
   57MOL   H33523967   7.307   4.374   3.334 -1.3293 -1.2737 -1.7778
   57MOL   H33623968   7.197   4.495   3.286  0.5183  0.7011  2.1596
   57MOL   H33723969   7.374   4.524   3.282  1.0497 -0.8411 -1.1466
   57MOL   C33823970   7.364   4.453   2.596 -0.8598  0.5790  0.0184
   57MOL   C33923971   7.401   4.421   2.447 -0.6126 -0.4565  0.4985
   57MOL   C34023972   7.459   4.284   2.431  0.2393 -0.6788 -0.4327
   57MOL   C34123973   7.472   4.222   2.293  0.4836 -0.0720 -0.0813
   57MOL   C34223974   7.474   4.075   2.288 -0.1183  0.3963  0.5202
   57MOL   C34323975   7.541   4.019   2.159 -0.4502  0.1829 -0.0188
   57MOL   C34423976   7.694   3.999   2.177  0.3587 -0.1328  0.0824
   57MOL   H34523977   7.425   4.380   2.650  0.6837  2.2813  0.6226
   57MOL   H34623978   7.399   4.551   2.630  0.4709  0.2317 -0.3306
   57MOL   H34723979   7.304   4.424   2.397 -1.1697 -1.2568  1.5040
   57MOL   H34823980   7.555   4.275   2.480  1.2521 -0.3675 -2.2981
   57MOL   H34923981   7.390   4.219   2.485 -0.5578 -1.2336 -2.0674
   57MOL   H35023982   7.563   4.261   2.248  0.9518 -2.6276 -1.4053
   57MOL   H35123983   7.390   4.257   2.231  1.6197 -0.5642 -1.8846
   57MOL   H35223984   7.540   4.047   2.371  0.1419  1.2233  0.6053
   57MOL   H35323985   7.383   4.021   2.314 -1.4794  2.1915 -0.3821
   57MOL   H35423986   7.490   3.928   2.128 -0.3044 -0.0864  0.5412
   57MOL   H35523987   7.524   4.082   2.071  1.0346 -1.1183 -1.2661
   57MOL   H35623988   7.704   3.910   2.239  0.2985  0.0243  0.3167
   57MOL   H35723989   0.026   4.092   2.212 -0.8220  1.4842 -2.5310
   57MOL   H35823990   0.035   3.981   2.084 -0.0836  1.3474 -0.4786
   57MOL   C35923991   7.500   4.526   2.390  0.2766 -0.2350  0.1928
   57MOL   C36023992   7.439   4.667   2.362 -0.7898 -0.2922  0.4293
   57MOL   C36123993   7.543   4.771   2.387  0.4272 -0.4254  0.0301
   57MOL   C36223994   7.548   4.822   2.537  0.1136  0.2847  0.5532
   57MOL   C36323995   7.428   4.906   2.571  0.2489  0.6296 -0.1922
   57MOL   C36423996   7.405   4.893   2.725 -0.2328  0.4963 -0.3761
   57MOL   C36523997   7.303   4.988   2.774  0.0847 -0.2315 -1.1018
   57MOL   H36623998   7.559   4.491   2.305 -1.6115 -1.3148 -0.7311
   57MOL   H36723999   7.570   4.534   2.473 -0.8149  1.7205  0.9596
   57MOL   H36824000   7.349   4.682   2.421  0.3660  1.6049  1.7902
   57MOL   H36924001   7.640   4.735   2.353  0.4347  0.7528 -1.2682
   57MOL   H37024002   7.530   4.852   2.315  0.2892 -0.2750  0.2225
   57MOL   H37124003   7.563   4.736   2.602  0.7925  2.0955  2.8710
   57MOL   H37224004   7.631   4.888   2.561 -0.5789  2.2719 -2.2173
   57MOL   H37324005   7.451   5.012   2.559 -0.8758  0.9404  0.3386
   57MOL   H37424006   7.342   4.879   2.509  0.0515 -0.4838  0.5544
   57MOL   H37524007   7.389   4.788   2.752 -0.5572  0.5426 -0.3782
   57MOL   H37624008   7.501   4.922   2.768  0.5782 -1.0672 -1.0914
   57MOL   H37724009   7.207   4.973   2.724  0.3792  1.9043 -2.3428
   57MOL   H37824010   7.290   4.971   2.881  1.8438 -0.6109 -0.9360
   57MOL   H37924011   7.328   5.092   2.757 -0.1642  0.0704  0.2888
   57MOL   C38024012   7.389   4.673   2.213 -0.2773  0.1686  0.3820
   57MOL   C38124013   7.271   4.759   2.189 -0.2351  0.0452  0.6271
   57MOL   C38224014   7.261   4.808   2.041  0.7450 -0.2466  0.2584
   57MOL   C38324015   7.341   4.939   2.019  0.0175 -0.6003  0.0862
   57MOL   C38424016   7.328   5.004   1.881  0.5353  0.5992 -0.2166
   57MOL   C38524017   7.366   5.153   1.868 -0.4016 -0.1518 -0.0166
   57MOL   C38624018   7.351   5.217   1.731 -0.2220  0.9295  0.4214
   57MOL   H38724019   7.479   4.695   2.155 -0.2353  1.5745  0.9506
   57MOL   H38824020   7.367   4.572   2.181  1.5280  0.0562 -0.5488
   57MOL   H38924021   7.278   4.845   2.255  1.0901  1.4785 -1.3208
   57MOL   H39024022   7.163   4.824   1.996  1.3067 -1.7492 -1.5278
   57MOL   H39124023   7.298   4.734   1.971  0.3531  0.0131 -0.2247
   57MOL   H39224024   7.320   5.014   2.096  0.4605 -1.1076  0.7076
   57MOL   H39324025   7.445   4.908   2.030  0.4285  0.6420 -0.2490
   57MOL   H39424026   7.392   4.950   1.811  0.3148 -0.3844  0.3282
   57MOL   H39524027   7.224   5.009   1.850  0.1941  0.6647  0.9232
   57MOL   H39624028   7.467   5.165   1.908 -0.6753 -0.1411  0.6677
   57MOL   H39724029   7.300   5.213   1.930 -2.5411  0.2361 -2.5786
   57MOL   H39824030   7.245   5.209   1.706  0.3326 -1.4449 -1.3374
   57MOL   H39924031   7.402   5.163   1.652 -1.1246  0.5010  0.1200
   57MOL   H40024032   7.385   5.321   1.735  0.9417  0.5585  0.2946
   57MOL   C40124033   7.144   4.687   2.217  0.1622  0.4909  0.0671
   57MOL   C40224034   7.010   4.766   2.234 -0.2605 -0.1039  0.0986
   57MOL   C40324035   7.012   4.864   2.362 -0.6173  0.3600 -0.4898
   57MOL   C40424036   6.895   4.960   2.368  0.0482 -0.1271 -0.0932
   57MOL   C40524037   6.862   5.029   2.498  0.3853 -0.0846 -0.2130
   57MOL   C40624038   6.740   5.126   2.495 -0.5366  0.1730  0.2836
   57MOL   C40724039   6.721   5.212   2.623  0.2824  0.1967 -0.2432
   57MOL   H40824040   7.161   4.631   2.309  1.6900 -0.8404 -1.0172
   57MOL   H40924041   7.120   4.616   2.138 -3.1591  0.5018  0.9700
   57MOL   H41024042   6.925   4.698   2.249 -0.1348 -0.4437 -0.7118
   57MOL   H41124043   7.103   4.924   2.364  0.5426 -1.4301  1.8176
   57MOL   H41224044   7.006   4.811   2.457 -1.1876  0.0324 -0.7083
   57MOL   H41324045   6.803   4.905   2.352 -0.7477  0.6899  1.5057
   57MOL   H41424046   6.892   5.022   2.279 -0.0146 -1.1776 -0.8298
   57MOL   H41524047   6.852   4.961   2.583 -0.1301  0.0915 -0.1272
   57MOL   H41624048   6.953   5.085   2.523  0.7077 -2.0070  3.1933
   57MOL   H41724049   6.758   5.188   2.407 -0.4698  0.1912  0.3095
   57MOL   H41824050   6.651   5.071   2.467  0.4577 -1.1802 -0.3054
   57MOL   H41924051   6.819   5.250   2.650 -0.3059  0.8286  1.0350
   57MOL   H42024052   6.671   5.153   2.700 -0.4688 -0.6233 -1.3346
   57MOL   H42124053   6.653   5.292   2.595  0.6360  0.1274 -1.3402
   57MOL   H42224054   7.003   4.822   2.142  2.9957  0.1808 -0.0337
   58MOL     C124055   4.425   6.458   4.057 -0.1454 -0.0991  0.7443
   58MOL     C224056   4.363   6.403   4.191 -0.1239 -0.3105  0.2066
   58MOL     C324057   4.361   6.506   4.308  0.1555  0.4518 -1.0001
   58MOL     C424058   4.263   6.461   4.414 -0.5183  0.2272  0.5189
   58MOL     C524059   4.227   6.566   4.516  0.0762 -0.1919  0.0313
   58MOL     C624060   4.147   6.498   4.630 -0.0997 -0.1432 -0.0192
   58MOL     C724061   4.126   6.578   4.753 -0.5258 -0.1466 -0.1564
   58MOL     H824062   4.406   6.385   3.978 -0.9911  1.2205 -0.2811
   58MOL     H924063   4.532   6.472   4.076  0.3794 -2.2751 -0.4174
   58MOL    H1024064   4.262   6.381   4.157 -0.4112  1.6294 -0.2560
   58MOL    H1124065   4.456   6.533   4.353 -0.8901  2.2733  0.1803
   58MOL    H1224066   4.322   6.603   4.277 -0.1093  0.6800  0.0042
   58MOL    H1324067   4.168   6.419   4.381 -0.4300 -1.2446  2.0918
   58MOL    H1424068   4.318   6.379   4.460  1.2265  1.0552 -0.0213
   58MOL    H1524069   4.176   6.655   4.477  0.8305 -0.2440 -1.0774
   58MOL    H1624070   4.318   6.612   4.553 -0.7886  2.2028 -0.6770
   58MOL    H1724071   4.189   6.400   4.650  1.1264 -0.1425 -2.4606
   58MOL    H1824072   4.045   6.493   4.592 -0.7963  1.4739  1.5458
   58MOL    H1924073   4.094   6.521   4.841 -2.1500  2.3458  0.9190
   58MOL    H2024074   4.054   6.658   4.736 -1.0033 -0.0440  2.2046
   58MOL    H2124075   4.227   6.610   4.777 -0.9389  1.6903 -0.8059
   58MOL    H2224076   4.387   6.555   4.026 -0.4883 -0.7242 -0.8740
   58MOL    C2324077   4.448   6.279   4.234  0.3395  0.1960 -0.4055
   58MOL    C2424078   4.404   6.139   4.178  0.1706  0.6035  0.4687
   58MOL    C2524079   4.260   6.104   4.233  0.2841 -0.2254 -0.5615
   58MOL    C2624080   4.161   6.074   4.116 -0.5504 -0.9966 -0.2938
   58MOL    C2724081   4.021   6.081   4.180 -0.1856  0.1748 -0.2750
   58MOL    C2824082   3.918   6.010   4.092  0.8798  0.0178  0.1606
   58MOL    C2924083   3.768   6.014   4.134 -0.6991  0.8339  0.5775
   58MOL    H3024084   4.548   6.294   4.196  1.1676 -0.5331  1.4086
   58MOL    H3124085   4.467   6.276   4.342  1.7718 -0.9941 -0.6708
   58MOL    H3224086   4.407   6.152   4.069  0.3159  1.9034  0.6148
   58MOL    H3324087   4.224   6.187   4.294 -1.6073 -0.2696 -1.5717
   58MOL    H3424088   4.277   6.014   4.292  1.8857 -0.4566 -1.3331
   58MOL    H3524089   4.191   5.980   4.069  0.5466 -0.6331 -0.3242
   58MOL    H3624090   4.184   6.146   4.038  1.4141  1.2479  2.2673
   58MOL    H3724091   3.996   6.182   4.211 -2.6468 -0.5543  0.1944
   58MOL    H3824092   4.018   6.018   4.268 -3.7322  0.2344 -0.2965
   58MOL    H3924093   3.944   5.909   4.062 -0.6783 -0.2103 -0.4746
   58MOL    H4024094   3.919   6.069   4.001  0.9140 -1.5906 -0.9023
   58MOL    H4124095   3.746   5.967   4.229  1.8303 -0.6291  0.4868
   58MOL    H4224096   3.730   6.115   4.150 -0.4934  0.7454  1.6546
   58MOL    H4324097   3.711   5.957   4.060  0.7872 -1.4954  1.1648
   58MOL    C4424098   4.514   6.035   4.207 -0.8670 -0.2947  0.5408
   58MOL    C4524099   4.557   5.922   4.103  0.2895 -0.0401 -0.5473
   58MOL    C4624100   4.445   5.808   4.086  0.6974 -0.5175  0.3279
   58MOL    C4724101   4.497   5.669   4.038 -0.4907 -0.0011 -0.4651
   58MOL    C4824102   4.383   5.576   3.998  0.3615 -0.8972  0.2411
   58MOL    C4924103   4.436   5.422   3.989  0.4760 -0.5467 -0.5795
   58MOL    C5024104   4.328   5.322   3.932 -0.5363 -0.4609 -0.2781
   58MOL    H5124105   4.501   5.994   4.307  1.8478  2.3428  2.0413
   58MOL    H5224106   4.605   6.094   4.219 -1.1313  0.0449  0.8760
   58MOL    H5324107   4.647   5.890   4.156 -0.4831  1.6304  1.8779
   58MOL    H5424108   4.366   5.840   4.018 -0.5977  0.0541  2.0565
   58MOL    H5524109   4.394   5.808   4.182  1.0428 -1.2491  0.5196
   58MOL    H5624110   4.570   5.685   3.959 -0.9022  3.0364 -0.2691
   58MOL    H5724111   4.558   5.620   4.114 -2.9582  0.8656  2.1644
   58MOL    H5824112   4.338   5.608   3.904 -0.1614  1.2168  1.1759
   58MOL    H5924113   4.308   5.578   4.077 -0.6854 -2.2580 -0.7069
   58MOL    H6024114   4.476   5.391   4.085  2.9720  2.5178 -0.5817
   58MOL    H6124115   4.517   5.436   3.917  1.4385 -2.0477  0.1767
   58MOL    H6224116   4.278   5.371   3.849 -0.4633 -0.9913 -0.6325
   58MOL    H6324117   4.260   5.308   4.017 -0.1826 -1.5158 -0.1675
   58MOL    H6424118   4.378   5.231   3.901  0.7541 -0.5120  1.8388
   58MOL    C6524119   4.595   5.987   3.963  0.1245 -0.4892 -0.6821
   58MOL    C6624120   4.681   6.114   3.957 -0.1986  0.5266  0.4700
   58MOL    C6724121   4.696   6.175   3.812  0.2396  0.7503 -0.8589
   58MOL    C6824122   4.564   6.240   3.766  0.5192  0.3325 -1.0111
   58MOL    C6924123   4.555   6.289   3.619 -0.5279 -0.6068  0.2200
   58MOL    C7024124   4.556   6.177   3.511  0.3288  0.7873  0.0673
   58MOL    C7124125   4.440   6.069   3.529  0.2394 -0.0511  0.2082
   58MOL    H7224126   4.653   5.909   3.915  0.4462 -0.1082 -0.9223
   58MOL    H7324127   4.501   5.997   3.907 -1.2610  0.7090  1.7873
   58MOL    H7424128   4.647   6.181   4.036  0.6524  0.5899  0.7945
   58MOL    H7524129   4.764   6.260   3.810  0.1479  0.8958  1.2046
   58MOL    H7624130   4.730   6.113   3.729  2.4506 -0.7150  1.0595
   58MOL    H7724131   4.471   6.188   3.791  1.9167 -0.9694  1.6983
   58MOL    H7824132   4.556   6.332   3.822  1.7299  1.9807 -3.4341
   58MOL    H7924133   4.457   6.336   3.609  0.4685  1.0893 -1.8523
   58MOL    H8024134   4.624   6.372   3.603  0.6161 -1.5345  0.3307
   58MOL    H8124135   4.656   6.135   3.516 -1.2665 -3.0763  1.7262
   58MOL    H8224136   4.535   6.234   3.420  1.8585 -0.3827 -1.0380
   58MOL    H8324137   4.359   6.118   3.582 -0.4194 -0.8358 -0.0770
   58MOL    H8424138   4.399   6.042   3.432  1.8757 -1.3663 -0.1378
   58MOL    H8524139   4.479   5.979   3.577 -0.1235 -0.9647 -1.1851
   58MOL    C8624140   4.825   6.077   4.005 -0.1161 -0.2514 -0.2521
   58MOL    C8724141   4.931   6.196   4.026 -0.8826 -0.1764  0.2945
   58MOL    C8824142   4.902   6.292   4.136 -0.4303  0.0556  0.4365
   58MOL    C8924143   4.913   6.226   4.274 -0.6668  0.2803 -0.2585
   58MOL    C9024144   4.890   6.317   4.400  0.8505  0.2697  0.4638
   58MOL    C9124145   4.754   6.393   4.405 -0.3861 -0.6071  0.0627
   58MOL    C9224146   4.755   6.511   4.494 -0.5302  0.0596 -0.2431
   58MOL    H9324147   4.825   6.016   4.095  3.2239  1.1726  0.7999
   58MOL    H9424148   4.859   6.006   3.929 -2.3152 -0.2366 -1.2768
   58MOL    H9524149   4.923   6.263   3.940 -0.5652 -0.0142  0.3902
   58MOL    H9624150   4.974   6.375   4.135 -0.2312 -0.1249 -0.5092
   58MOL    H9724151   4.812   6.349   4.114  0.8684  2.4717  1.0587
   58MOL    H9824152   4.834   6.150   4.276 -0.5395  0.1644  0.7889
   58MOL    H9924153   5.010   6.177   4.280 -1.6702 -1.7831 -0.4175
   58MOL   H10024154   4.974   6.386   4.405 -0.4501  1.7299  4.1335
   58MOL   H10124155   4.902   6.252   4.487 -1.1592  1.1555  1.4187
   58MOL   H10224156   4.716   6.417   4.306 -1.2775 -1.8978  0.0748
   58MOL   H10324157   4.677   6.322   4.435  0.0787 -1.6536 -1.1580
   58MOL   H10424158   4.759   6.498   4.602 -1.7008 -0.0943 -0.2127
   58MOL   H10524159   4.681   6.586   4.468 -1.5919 -0.5837  0.9171
   58MOL   H10624160   4.855   6.548   4.468  1.6081 -4.0527  1.5506
   58MOL   C10724161   5.073   6.149   4.034 -0.6828  0.1673 -0.0092
   58MOL   C10824162   5.136   6.093   3.899  0.5761  0.1516 -0.3871
   58MOL   C10924163   5.219   6.195   3.820 -0.0022 -0.4532  0.4267
   58MOL   C11024164   5.138   6.310   3.770 -0.6403  1.0156  0.1694
   58MOL   C11124165   5.206   6.394   3.666  0.1888 -0.2049 -0.1921
   58MOL   C11224166   5.132   6.526   3.623 -0.2636  0.5398  0.2823
   58MOL   C11324167   4.990   6.499   3.576 -0.4131  0.6205  0.2814
   58MOL   H11424168   5.067   6.060   4.097 -2.4675 -0.7002 -1.3542
   58MOL   H11524169   5.138   6.229   4.070  1.0629 -1.1500 -0.1689
   58MOL   H11624170   5.045   6.073   3.842  0.3439  0.1330 -0.0086
   58MOL   H11724171   5.264   6.159   3.727  1.6488  1.5020  0.4352
   58MOL   H11824172   5.304   6.234   3.876 -0.0820 -1.0237  0.9409
   58MOL   H11924173   5.040   6.276   3.735  0.2633  0.2280 -1.6356
   58MOL   H12024174   5.113   6.365   3.861 -1.4137  1.5097 -0.3263
   58MOL   H12124175   5.231   6.334   3.579  0.7796  0.4377 -0.4698
   58MOL   H12224176   5.302   6.421   3.710  0.3679 -1.1905  0.0439
   58MOL   H12324177   5.140   6.605   3.696 -3.7292  1.5143 -0.3150
   58MOL   H12424178   5.184   6.558   3.532  0.8357 -0.9927  0.3390
   58MOL   H12524179   4.926   6.451   3.650  0.1161 -0.0263  0.3241
   58MOL   H12624180   4.935   6.587   3.545 -0.0609  0.7898  0.1324
   58MOL   H12724181   4.987   6.420   3.500 -1.1475 -0.9959  1.9501
   58MOL   C12824182   5.211   5.953   3.911  0.0079  0.0346 -0.1687
   58MOL   C12924183   5.258   5.897   3.774 -0.5545  0.0666 -0.0114
   58MOL   C13024184   5.166   5.902   3.658  0.0697 -0.4853 -0.0215
   58MOL   C13124185   5.033   5.830   3.693 -0.2120 -0.5665  0.4229
   58MOL   C13224186   4.946   5.827   3.571  0.7835 -0.2804 -0.0457
   58MOL   C13324187   4.807   5.762   3.593 -0.1603 -0.1178  0.3921
   58MOL   C13424188   4.708   5.779   3.481 -0.0213 -0.0380  0.1173
   58MOL   H13524189   5.295   5.953   3.980 -1.3512  0.6929  1.5093
   58MOL   H13624190   5.137   5.888   3.958  0.6094 -0.5193  0.0246
   58MOL   H13724191   5.343   5.959   3.746  0.0838 -0.3056  1.0673
   58MOL   H13824192   5.214   5.855   3.573  0.8567  0.2748  0.0009
   58MOL   H13924193   5.145   6.005   3.628  2.1684  0.2348  0.8995
   58MOL   H14024194   4.972   5.873   3.773 -0.8618  1.4619 -1.1086
   58MOL   H14124195   5.050   5.723   3.708  0.9343 -0.7802 -2.1727
   58MOL   H14224196   4.997   5.773   3.491  0.0755 -1.1389  0.0730
   58MOL   H14324197   4.939   5.927   3.528  0.3578 -0.3769 -0.2124
   58MOL   H14424198   4.746   5.808   3.671 -2.6387 -1.2139 -0.8690
   58MOL   H14524199   4.826   5.656   3.610  1.4633 -0.1037 -1.1708
   58MOL   H14624200   4.770   5.754   3.395  0.8534 -1.4698  1.1486
   58MOL   H14724201   4.675   5.883   3.488  0.1816  0.0205  0.1919
   58MOL   H14824202   4.622   5.713   3.492  0.2137 -0.1748  1.1916
   58MOL   C14924203   5.299   5.756   3.801  0.2228  0.7979 -0.1000
   58MOL   C15024204   5.444   5.740   3.855  0.2324 -0.0770 -0.4213
   58MOL   C15124205   5.536   5.688   3.747  0.3976 -1.2095 -0.3851
   58MOL   C15224206   5.564   5.794   3.633  0.5244 -0.0956  0.6238
   58MOL   C15324207   5.562   5.733   3.492 -0.0678 -0.4089 -0.3994
   58MOL   C15424208   5.586   5.843   3.377 -0.5020  0.1809  0.5740
   58MOL   C15524209   5.531   5.788   3.243  1.0978  0.4075 -0.1072
   58MOL   H15624210   5.223   5.706   3.862 -0.2559  0.8940 -0.6150
   58MOL   H15724211   5.286   5.699   3.709 -1.8597  0.4301  0.3919
   58MOL   H15824212   5.488   5.836   3.885  0.3359 -1.0326  2.6651
   58MOL   H15924213   5.636   5.661   3.779  0.7028  0.1650 -0.1524
   58MOL   H16024214   5.489   5.601   3.702 -0.5417 -0.2435 -1.2974
   58MOL   H16124215   5.659   5.841   3.658  0.8850 -0.8950  0.7817
   58MOL   H16224216   5.487   5.871   3.624  0.2921 -0.3295  0.5878
   58MOL   H16324217   5.460   5.699   3.474 -0.3895 -0.5956  1.6301
   58MOL   H16424218   5.629   5.647   3.492 -0.1452 -0.4672 -1.5557
   58MOL   H16524219   5.690   5.874   3.370 -0.1311 -1.1704 -0.0026
   58MOL   H16624220   5.530   5.931   3.409 -0.3107  0.3155  0.5379
   58MOL   H16724221   5.563   5.847   3.157  0.0031 -0.6775 -1.3069
   58MOL   H16824222   5.422   5.777   3.243  1.1126 -0.1956 -3.0874
   58MOL   H16924223   5.574   5.688   3.240  0.4202 -0.0521  3.4146
   58MOL   C17024224   5.450   5.649   3.980 -0.2822 -0.0608  0.1624
   58MOL   C17124225   5.409   5.721   4.116 -0.1531  0.7319  1.0067
   58MOL   C17224226   5.356   5.619   4.224 -0.0004 -0.0212  0.4303
   58MOL   C17324227   5.214   5.559   4.197 -0.3571  0.0844 -0.1510
   58MOL   C17424228   5.134   5.524   4.325  0.2772 -0.1107 -0.2248
   58MOL   C17524229   5.082   5.646   4.404  0.1285  0.0509 -0.5265
   58MOL   C17624230   5.010   5.745   4.315 -0.5972 -0.5015  0.7063
   58MOL   H17724231   5.553   5.614   3.992 -0.6421 -0.4354  2.3230
   58MOL   H17824232   5.387   5.563   3.958 -0.3305  0.2105 -0.7719
   58MOL   H17924233   5.324   5.781   4.082  0.8862  1.5994 -0.1553
   58MOL   H18024234   5.345   5.673   4.318 -0.9289  0.9882 -0.2528
   58MOL   H18124235   5.429   5.543   4.250  0.9392  0.2073 -1.4570
   58MOL   H18224236   5.227   5.473   4.131  0.4889  0.2838 -0.2591
   58MOL   H18324237   5.153   5.616   4.128  0.2436  2.3424  1.1267
   58MOL   H18424238   5.192   5.454   4.383  1.7236  1.7502  0.6264
   58MOL   H18524239   5.049   5.463   4.293  0.4829 -0.0028 -0.9870
   58MOL   H18624240   5.170   5.689   4.452 -0.5650  0.8171  0.0808
   58MOL   H18724241   5.016   5.612   4.484  3.7982 -0.6452  2.3008
   58MOL   H18824242   5.063   5.800   4.237 -2.7013 -1.9479 -1.7925
   58MOL   H18924243   4.969   5.825   4.377 -2.8308  0.8168 -2.3701
   58MOL   H19024244   4.932   5.688   4.265 -1.0915 -0.0593  0.9783
   58MOL   C19124245   5.508   5.826   4.155 -0.1186 -0.3757  0.3352
   58MOL   C19224246   5.493   5.899   4.292 -0.1155 -0.4545  0.3371
   58MOL   C19324247   5.571   5.820   4.400 -0.2785  0.8438  0.5802
   58MOL   C19424248   5.519   5.853   4.544 -0.2296  0.1720 -0.5514
   58MOL   C19524249   5.597   5.790   4.667  0.7657 -0.4578 -0.1820
   58MOL   C19624250   5.563   5.840   4.809  0.5104 -0.2347 -0.3908
   58MOL   C19724251   5.641   5.772   4.917  0.3285  0.1561  0.0590
   58MOL   H19824252   5.509   5.905   4.079  0.5469 -0.0638  0.6599
   58MOL   H19924253   5.607   5.780   4.154 -0.3217 -0.9199  2.7372
   58MOL   H20024254   5.386   5.909   4.307 -0.0701  1.1067 -0.3153
   58MOL   H20124255   5.677   5.818   4.373 -0.2419  0.8485  0.7230
   58MOL   H20224256   5.550   5.715   4.379  2.0007  0.2274  1.1668
   58MOL   H20324257   5.412   5.842   4.558 -0.4631  2.6996  0.0418
   58MOL   H20424258   5.546   5.959   4.551  2.1559 -0.3582 -1.3381
   58MOL   H20524259   5.582   5.682   4.666  1.9691 -0.7021  2.1896
   58MOL   H20624260   5.704   5.808   4.657  0.1790  2.1117 -2.1876
   58MOL   H20724261   5.460   5.810   4.832  1.0822 -0.9381  1.2621
   58MOL   H20824262   5.574   5.948   4.806 -0.2152 -0.1386  0.4035
   58MOL   H20924263   5.634   5.666   4.893 -2.4138  0.3621 -0.2113
   58MOL   H21024264   5.607   5.774   5.020  0.0115 -0.1351 -0.0430
   58MOL   H21124265   5.748   5.795   4.923  0.2467 -0.0279  2.6220
   58MOL   C21224266   5.573   6.038   4.282 -0.6911 -0.3238  0.0983
   58MOL   C21324267   5.508   6.154   4.212  0.0438 -0.0466 -0.0876
   58MOL   C21424268   5.373   6.189   4.283 -0.2670  0.2369  0.0203
   58MOL   C21524269   5.391   6.257   4.421 -0.4244 -0.6312 -0.4819
   58MOL   C21624270   5.261   6.251   4.507  0.5719  0.2747 -0.2626
   58MOL   C21724271   5.270   6.307   4.645  0.9417  0.0059 -0.0091
   58MOL   C21824272   5.153   6.277   4.741  0.7459  0.1805  0.0929
   58MOL   H21924273   5.655   6.024   4.211 -0.4779 -1.6442  0.5808
   58MOL   H22024274   5.627   6.074   4.370 -2.0942  2.2410 -0.0677
   58MOL   H22124275   5.488   6.118   4.112  1.7325 -1.1502 -0.0419
   58MOL   H22224276   5.314   6.252   4.216  0.1053  1.7263  1.0641
   58MOL   H22324277   5.315   6.098   4.293 -0.1042  0.1155 -0.1281
   58MOL   H22424278   5.417   6.361   4.400  2.1878 -0.6918  2.1493
   58MOL   H22524279   5.470   6.213   4.482  0.1884  0.2042 -0.6632
   58MOL   H22624280   5.171   6.292   4.460 -0.6533 -0.6388  1.2109
   58MOL   H22724281   5.220   6.150   4.515 -2.7163  1.5711  0.4229
   58MOL   H22824282   5.352   6.268   4.705  0.6366  0.2817  0.5949
   58MOL   H22924283   5.284   6.414   4.629 -0.6723  0.3209  0.5277
   58MOL   H23024284   5.103   6.183   4.717 -0.8550  1.0977 -0.1630
   58MOL   H23124285   5.075   6.352   4.732  1.3854  0.9056  0.5421
   58MOL   H23224286   5.173   6.273   4.848  0.8084 -1.9106  0.0356
   58MOL   C23324287   5.601   6.277   4.186 -0.2993  0.8575  0.0456
   58MOL   C23424288   5.711   6.263   4.076  0.6001  0.1920  0.1132
   58MOL   C23524289   5.660   6.261   3.929  0.4008 -0.0505  0.1673
   58MOL   C23624290   5.756   6.195   3.825 -0.5940  0.1499  0.2449
   58MOL   C23724291   5.737   6.243   3.683  0.1807  0.1834 -0.6695
   58MOL   C23824292   5.603   6.198   3.628 -0.2433 -0.2422  0.1296
   58MOL   C23924293   5.587   6.237   3.480  0.5274 -0.7442 -0.2591
   58MOL   H24024294   5.643   6.296   4.284  0.0271  0.9238 -0.1042
   58MOL   H24124295   5.548   6.371   4.176 -0.7391  0.8754  2.3079
   58MOL   H24224296   5.750   6.164   4.101 -0.8305 -0.4689 -0.2410
   58MOL   H24324297   5.649   6.365   3.899  0.7771 -0.2154 -0.5591
   58MOL   H24424298   5.562   6.214   3.933  0.7725 -0.9536 -1.1594
   58MOL   H24524299   5.766   6.087   3.831  1.4967  0.3278  0.2908
   58MOL   H24624300   5.860   6.212   3.852 -0.5006  0.7448 -0.4708
   58MOL   H24724301   5.815   6.206   3.617  0.6981 -1.4751  0.8341
   58MOL   H24824302   5.730   6.352   3.686  1.2461  0.2320  0.3512
   58MOL   H24924303   5.574   6.093   3.630 -2.7705  0.4137 -0.3088
   58MOL   H25024304   5.527   6.244   3.691 -0.5835  0.8450 -1.0506
   58MOL   H25124305   5.628   6.334   3.450 -1.4409 -0.5263 -2.3739
   58MOL   H25224306   5.633   6.165   3.413 -1.9680 -1.7099 -0.9745
   58MOL   H25324307   5.479   6.241   3.468  0.5076 -0.0914  0.1094
   58MOL   C25424308   5.819   6.375   4.093 -0.5077  0.4683 -0.2579
   58MOL   C25524309   5.898   6.368   4.231 -0.4873 -0.0369  0.0098
   58MOL   C25624310   5.851   6.475   4.331 -0.0187  0.0855  0.1575
   58MOL   C25724311   5.873   6.454   4.483  0.5849 -0.3160  0.3608
   58MOL   C25824312   5.828   6.318   4.539 -0.3286  0.0787 -0.4145
   58MOL   C25924313   5.843   6.312   4.695  0.3101 -0.2914 -0.1057
   58MOL   C26024314   5.779   6.183   4.746 -0.0179  0.0132  0.1101
   58MOL   H26124315   5.794   6.480   4.084  1.6825  1.0306 -0.1751
   58MOL   H26224316   5.880   6.359   4.003 -0.6057  0.2706 -0.2876
   58MOL   H26324317   5.871   6.268   4.264 -0.7996  0.1269  0.2481
   58MOL   H26424318   5.748   6.499   4.308 -0.4989 -3.2327 -1.4308
   58MOL   H26524319   5.912   6.562   4.307  0.1286  0.0091  0.2536
   58MOL   H26624320   5.981   6.462   4.495  0.3738  0.2907  1.9816
   58MOL   H26724321   5.827   6.529   4.547 -1.5380 -1.5543  0.3365
   58MOL   H26824322   5.910   6.250   4.516 -2.3986 -2.8997  0.7164
   58MOL   H26924323   5.727   6.285   4.515 -0.4777  0.1721  0.0911
   58MOL   H27024324   5.947   6.321   4.726 -0.0023  0.1577  0.8418
   58MOL   H27124325   5.794   6.399   4.739  1.9340  0.2032  0.7517
   58MOL   H27224326   5.670   6.183   4.752 -0.0915  2.0787 -0.8228
   58MOL   H27324327   5.796   6.101   4.677 -1.5486 -1.1171  1.0250
   58MOL   H27424328   5.828   6.149   4.837 -0.4241 -2.9587 -0.7496
   58MOL   C27524329   6.057   6.373   4.226  0.3329  0.0730  0.3855
   58MOL   C27624330   6.134   6.249   4.169 -0.5542  0.6165  0.0708
   58MOL   C27724331   6.106   6.113   4.235 -0.2452 -0.3351 -0.2864
   58MOL   C27824332   6.122   6.010   4.127 -0.0376 -0.5817 -0.2997
   58MOL   C27924333   5.989   5.977   4.055  1.0010  0.4075 -0.5178
   58MOL   C28024334   5.985   5.836   3.987  0.6403  0.2002  0.5191
   58MOL   C28124335   5.853   5.813   3.906 -0.1994 -0.1022 -0.4135
   58MOL   H28224336   6.098   6.377   4.327  0.8342 -4.3926  0.4598
   58MOL   H28324337   6.092   6.465   4.179  1.2306 -0.4269  0.0783
   58MOL   H28424338   6.087   6.236   4.072 -0.4510  0.6550  0.0161
   58MOL   H28524339   6.186   6.099   4.308  0.2870  1.8960 -0.3986
   58MOL   H28624340   6.009   6.105   4.284  0.0195 -3.6603 -0.1790
   58MOL   H28724341   6.147   5.918   4.181  0.5847 -1.3681 -1.9172
   58MOL   H28824342   6.210   6.024   4.065  1.8031 -1.4915  2.0228
   58MOL   H28924343   5.975   6.065   3.993 -0.4271  1.7816  1.6521
   58MOL   H29024344   5.911   5.970   4.131  1.4463 -1.1584 -0.1693
   58MOL   H29124345   6.066   5.828   3.914 -1.2411 -1.1602 -1.5120
   58MOL   H29224346   5.997   5.751   4.053 -2.1013  0.2832  1.1879
   58MOL   H29324347   5.845   5.708   3.880 -2.7584 -0.2478  0.9086
   58MOL   H29424348   5.844   5.855   3.805 -0.0729  0.3172 -0.2528
   58MOL   H29524349   5.766   5.830   3.968  1.2840 -0.8426  1.9137
   58MOL   C29624350   6.278   6.285   4.149 -0.1306 -0.1186  0.6282
   58MOL   C29724351   6.316   6.317   4.005 -0.6257 -0.1778 -0.4989
   58MOL   C29824352   6.465   6.324   3.978 -0.7172  0.0960  0.5444
   58MOL   C29924353   6.559   6.213   4.022  0.1562  0.4228  0.1952
   58MOL   C30024354   6.702   6.274   4.032 -0.1472  0.3804  0.0047
   58MOL   C30124355   6.808   6.162   4.037 -0.7404  0.0449  0.1899
   58MOL   C30224356   6.948   6.222   4.077  0.5154 -0.3827  0.0369
   58MOL   H30324357   6.311   6.366   4.213  0.4593 -1.3388  1.8961
   58MOL   H30424358   6.338   6.200   4.183  2.1509  0.5482 -1.5449
   58MOL   H30524359   6.270   6.245   3.937 -0.4758 -0.2502 -0.5237
   58MOL   H30624360   6.490   6.337   3.873  0.3176 -3.5400  0.2461
   58MOL   H30724361   6.490   6.412   4.037  0.1310 -0.3012  0.7845
   58MOL   H30824362   6.545   6.126   3.959  1.4985  0.8139 -0.6495
   58MOL   H30924363   6.544   6.165   4.119 -0.3254 -0.8150 -0.4842
   58MOL   H31024364   6.713   6.340   4.118 -1.3431 -2.2486  2.2668
   58MOL   H31124365   6.710   6.333   3.941  2.2262  2.2784  1.3915
   58MOL   H31224366   6.787   6.093   4.118 -0.8935 -0.7058 -0.4885
   58MOL   H31324367   6.807   6.103   3.946 -0.8469  0.7116 -0.2460
   58MOL   H31424368   7.019   6.147   4.112  0.6970 -1.2080 -1.9903
   58MOL   H31524369   7.006   6.269   3.997  1.9947 -0.0909  1.2536
   58MOL   H31624370   6.947   6.303   4.149  2.3881  0.2952 -0.6688
   58MOL   C31724371   6.259   6.451   3.958 -0.0891  0.3886  0.0186
   58MOL   C31824372   6.302   6.507   3.817 -0.0685 -0.6960 -0.1163
   58MOL   C31924373   6.298   6.401   3.701 -0.5685 -0.8630  0.1657
   58MOL   C32024374   6.164   6.334   3.683 -0.1490  0.0003  0.6814
   58MOL   C32124375   6.139   6.262   3.550 -0.5036  0.5001 -0.3294
   58MOL   C32224376   6.187   6.110   3.568 -0.5328 -0.5139  0.1553
   58MOL   C32324377   6.081   6.019   3.625 -0.0096  0.1669  0.1054
   58MOL   H32424378   6.278   6.521   4.039 -1.6506  3.6051 -2.2733
   58MOL   H32524379   6.151   6.438   3.971  0.0970 -0.9145  0.2834
   58MOL   H32624380   6.407   6.534   3.831 -0.1751 -1.2917  1.9416
   58MOL   H32724381   6.377   6.326   3.693  0.2169 -0.0577  0.3790
   58MOL   H32824382   6.310   6.458   3.609 -0.2372 -0.7194  0.2998
   58MOL   H32924383   6.100   6.421   3.673 -2.5187 -1.7252  0.4433
   58MOL   H33024384   6.125   6.277   3.768 -1.0286  0.9573  0.9304
   58MOL   H33124385   6.181   6.315   3.464  0.0989 -2.2047 -1.7414
   58MOL   H33224386   6.031   6.268   3.534 -0.7390  2.7359  1.7795
   58MOL   H33324387   6.268   6.105   3.641 -0.2109 -3.1104 -0.3412
   58MOL   H33424388   6.228   6.065   3.478 -1.8014 -2.1611  0.3707
   58MOL   H33524389   5.995   6.000   3.561 -0.5810  0.1120  0.8692
   58MOL   H33624390   6.052   6.071   3.717  0.1810  2.1882 -0.9615
   58MOL   H33724391   6.119   5.922   3.658 -0.0965 -0.3904 -1.4128
   58MOL   C33824392   6.223   6.641   3.794  0.4689 -0.0737 -0.4976
   58MOL   C33924393   6.297   6.768   3.843  0.7884  0.4611 -0.6642
   58MOL   C34024394   6.211   6.865   3.932 -0.2906  0.5784  0.3025
   58MOL   C34124395   6.167   6.822   4.069 -0.1121 -0.1652  0.3342
   58MOL   C34224396   6.116   6.939   4.159  0.1188 -0.0631  0.1259
   58MOL   C34324397   6.224   7.012   4.237  0.5941  0.1321  0.1087
   58MOL   C34424398   6.170   7.095   4.355 -0.1315  0.2371  0.3995
   58MOL   H34524399   6.122   6.628   3.834 -0.3921 -0.5365 -2.7836
   58MOL   H34624400   6.207   6.643   3.686 -1.0223  0.1473 -0.2903
   58MOL   H34724401   6.370   6.726   3.913  2.8142  2.6899 -1.3730
   58MOL   H34824402   6.272   6.954   3.953  0.4493  0.0801  0.3032
   58MOL   H34924403   6.120   6.897   3.883 -1.2281 -1.0505  0.9724
   58MOL   H35024404   6.258   6.776   4.107  1.0191  2.8707  1.4580
   58MOL   H35124405   6.093   6.744   4.048 -1.3559  0.6613  1.5147
   58MOL   H35224406   6.043   7.008   4.116 -2.2012 -3.1024 -1.0792
   58MOL   H35324407   6.055   6.882   4.230 -1.0471 -1.0060 -1.5805
   58MOL   H35424408   6.286   6.937   4.286 -0.5534 -0.8717  0.0440
   58MOL   H35524409   6.295   7.068   4.177  1.2351 -0.7857 -0.0028
   58MOL   H35624410   6.101   7.175   4.329 -2.8459 -2.4555 -0.9735
   58MOL   H35724411   6.264   7.119   4.405 -0.1546 -1.1464  1.1265
   58MOL   H35824412   6.105   7.033   4.416  0.2110 -0.7637 -0.2313
   58MOL   C35924413   6.368   6.837   3.719  0.4787  0.2790  0.0720
   58MOL   C36024414   6.489   6.936   3.750  0.2722 -0.2670 -0.3385
   58MOL   C36124415   6.599   6.870   3.822 -0.1480  0.4905 -0.1288
   58MOL   C36224416   6.608   6.907   3.971  0.7842 -0.2313  0.1938
   58MOL   C36324417   6.719   6.832   4.046  0.5234 -0.3018 -0.2464
   58MOL   C36424418   6.673   6.700   4.125 -0.0804 -0.1621  0.1422
   58MOL   C36524419   6.790   6.647   4.202 -0.3875 -0.6249  0.4490
   58MOL   H36624420   6.287   6.886   3.665  1.0895 -0.1596 -1.2598
   58MOL   H36724421   6.403   6.757   3.653 -1.7843 -0.9178  0.2575
   58MOL   H36824422   6.450   7.015   3.814  0.6815 -0.2656 -0.0911
   58MOL   H36924423   6.599   6.762   3.810 -1.5760  0.4887 -0.2647
   58MOL   H37024424   6.695   6.897   3.779  0.2831  0.9796  1.1106
   58MOL   H37124425   6.637   7.012   3.981 -1.2417  0.5336 -1.6496
   58MOL   H37224426   6.516   6.898   4.028  0.0448 -1.2609 -1.1521
   58MOL   H37324427   6.798   6.817   3.972  1.4472  0.7606  0.5030
   58MOL   H37424428   6.767   6.902   4.114  0.2919  0.4196 -0.8261
   58MOL   H37524429   6.587   6.708   4.192 -0.6118  1.1515 -0.6728
   58MOL   H37624430   6.654   6.624   4.050 -0.2697 -0.4591  0.4908
   58MOL   H37724431   6.758   6.559   4.257 -1.0381 -0.6123  0.0914
   58MOL   H37824432   6.875   6.630   4.135 -0.1664  1.5625  0.1350
   58MOL   H37924433   6.823   6.718   4.279  0.6335  0.0345 -0.5835
   58MOL   C38024434   6.544   7.003   3.624  0.9865 -0.0819 -0.8029
   58MOL   C38124435   6.457   7.118   3.577 -0.5194  0.6148  0.0638
   58MOL   C38224436   6.482   7.234   3.673 -0.1751  0.0870  0.6344
   58MOL   C38324437   6.365   7.333   3.658 -0.1895  0.0503  0.0430
   58MOL   C38424438   6.379   7.452   3.750 -0.0036  0.0611 -0.1819
   58MOL   C38524439   6.253   7.537   3.781 -0.0481 -0.2793  0.4736
   58MOL   C38624440   6.225   7.635   3.665  0.2047  0.5644  0.4978
   58MOL   H38724441   6.641   7.047   3.644  0.3306  0.7994  0.4495
   58MOL   H38824442   6.562   6.930   3.545  1.2133 -1.7157  0.7279
   58MOL   H38924443   6.353   7.085   3.584 -0.4765  0.1510 -1.3967
   58MOL   H39024444   6.577   7.283   3.651 -0.0124 -0.5000  0.0127
   58MOL   H39124445   6.503   7.212   3.778  0.2017 -0.8106  0.3760
   58MOL   H39224446   6.381   7.363   3.555  4.8055 -0.0893  0.6412
   58MOL   H39324447   6.263   7.296   3.663 -1.9526  4.6998  0.4084
   58MOL   H39424448   6.402   7.418   3.850 -1.8882  0.5488  0.4468
   58MOL   H39524449   6.465   7.511   3.716  0.4880 -0.8779 -0.5679
   58MOL   H39624450   6.265   7.601   3.868  1.2356  2.4650 -1.6346
   58MOL   H39724451   6.168   7.472   3.799 -0.8277  0.5311 -0.2184
   58MOL   H39824452   6.218   7.563   3.583 -1.2803 -0.1980  1.2763
   58MOL   H39924453   6.312   7.700   3.653  0.1641  0.3405 -1.1562
   58MOL   H40024454   6.131   7.690   3.664  0.5431  1.1445 -0.9597
   58MOL   C40124455   6.486   7.144   3.428  0.1881 -1.2665  0.3404
   58MOL   C40224456   6.409   7.059   3.323 -0.5748  0.1190 -0.1761
   58MOL   C40324457   6.476   7.065   3.182  0.1588 -0.0703 -0.2802
   58MOL   C40424458   6.611   7.017   3.159 -0.1477 -0.3679  0.0782
   58MOL   C40524459   6.653   7.039   3.007  0.1516 -0.2091 -0.4211
   58MOL   C40624460   6.790   6.990   2.962  0.1197 -0.1981  0.2774
   58MOL   C40724461   6.816   7.012   2.814  0.7337 -0.2743  0.3422
   58MOL   H40824462   6.594   7.145   3.408  0.2880 -2.9012  0.6947
   58MOL   H40924463   6.465   7.247   3.400  3.2709 -1.4153 -2.8827
   58MOL   H41024464   6.314   7.111   3.310  0.8023  2.2695 -2.0232
   58MOL   H41124465   6.462   7.164   3.139  0.0566 -0.2371 -0.6328
   58MOL   H41224466   6.413   6.995   3.127  1.6369 -1.6362 -0.0167
   58MOL   H41324467   6.613   6.914   3.195  2.0583  0.0977  1.3707
   58MOL   H41424468   6.691   7.068   3.212  0.7332  0.4666 -2.0051
   58MOL   H41524469   6.578   6.984   2.950  0.0859 -0.1160 -0.4263
   58MOL   H41624470   6.640   7.145   2.987  0.6481  0.2735  1.6669
   58MOL   H41724471   6.879   7.031   3.010 -0.3264  1.2239 -0.0701
   58MOL   H41824472   6.797   6.882   2.973 -0.2484 -0.3843 -1.1758
   58MOL   H41924473   6.744   6.965   2.748 -0.7911  2.0884  0.2588
   58MOL   H42024474   6.914   6.971   2.793 -0.3300 -1.6333 -2.0791
   58MOL   H42124475   6.820   7.118   2.788  2.2100 -0.1106  1.1367
   58MOL   H42224476   6.389   6.955   3.349 -1.0976 -0.2662 -2.0756
   59MOL     C124477   1.934   1.946   1.144  0.7905  0.2707  0.0585
   59MOL     C224478   2.042   1.831   1.125  0.6393 -0.5354 -0.1933
   59MOL     C324479   2.181   1.862   1.188  0.0096  0.2220  0.5630
   59MOL     C424480   2.185   1.889   1.338 -0.1291  0.4254  0.5629
   59MOL     C524481   2.172   1.761   1.419 -0.2114 -0.0950 -0.4384
   59MOL     C624482   2.218   1.785   1.566 -0.5721 -0.4637 -0.5607
   59MOL     C724483   2.173   1.672   1.662  0.1325 -0.1331 -0.1704
   59MOL     H824484   1.902   1.948   1.248 -0.5860 -0.1333 -0.3429
   59MOL     H924485   1.845   1.925   1.084  1.0961 -2.8214  0.6049
   59MOL    H1024486   2.005   1.734   1.159 -0.9002 -0.5110 -1.7197
   59MOL    H1124487   2.260   1.790   1.168  0.3472  0.1549  2.1043
   59MOL    H1224488   2.207   1.961   1.149 -1.2644  0.7416  1.0259
   59MOL    H1324489   2.282   1.933   1.362  0.3044  1.4094 -2.7829
   59MOL    H1424490   2.121   1.970   1.374 -1.7703 -0.4444 -0.3709
   59MOL    H1524491   2.227   1.681   1.370  0.6150 -1.0370  1.9486
   59MOL    H1624492   2.071   1.722   1.415 -0.3911  0.3116  0.1728
   59MOL    H1724493   2.184   1.876   1.615 -0.2951 -0.1359 -0.9776
   59MOL    H1824494   2.326   1.797   1.566 -0.7892  1.8601 -2.3909
   59MOL    H1924495   2.066   1.669   1.682  0.1831 -0.5146  0.0509
   59MOL    H2024496   2.235   1.683   1.751 -1.0295  0.8217  0.5323
   59MOL    H2124497   2.194   1.577   1.613  1.5166 -0.8168  1.6923
   59MOL    H2224498   1.968   2.047   1.120  0.1799  0.7100  0.9973
   59MOL    C2324499   2.052   1.803   0.975  0.1010  0.0720 -0.3279
   59MOL    C2424500   2.115   1.674   0.928 -0.4023 -0.1859 -0.0113
   59MOL    C2524501   2.158   1.689   0.779  0.0259 -0.5135  0.2866
   59MOL    C2624502   2.053   1.704   0.671 -0.3558  0.3583  0.5317
   59MOL    C2724503   2.098   1.667   0.525 -0.1136 -0.4384 -0.2593
   59MOL    C2824504   1.995   1.709   0.429 -0.5060  0.6202  0.1319
   59MOL    C2924505   2.051   1.686   0.286  0.1957 -0.3419  0.4996
   59MOL    H3024506   1.955   1.810   0.926  0.2956 -2.7160 -1.1954
   59MOL    H3124507   2.109   1.882   0.927 -1.0527  0.5836 -0.8753
   59MOL    H3224508   2.208   1.670   0.985 -1.6646 -2.1278  1.9863
   59MOL    H3324509   2.224   1.609   0.745 -0.7812 -0.7273 -0.8053
   59MOL    H3424510   2.219   1.779   0.767  0.2767 -0.7621 -0.3596
   59MOL    H3524511   2.009   1.804   0.668  1.7605  1.2972 -0.7020
   59MOL    H3624512   1.973   1.632   0.685 -1.6445  1.7752  0.6417
   59MOL    H3724513   2.132   1.564   0.515 -0.4411 -0.3924 -2.2184
   59MOL    H3824514   2.185   1.729   0.505 -0.2352  0.9334  3.1686
   59MOL    H3924515   1.977   1.815   0.446 -0.2812  0.4010  1.7949
   59MOL    H4024516   1.902   1.652   0.428  0.0362 -0.2631 -0.0952
   59MOL    H4124517   2.157   1.711   0.277  0.5034 -0.8581  2.4881
   59MOL    H4224518   2.052   1.582   0.255  0.8463  0.1486 -1.2373
   59MOL    H4324519   1.992   1.730   0.205 -1.4105 -2.3379  0.5706
   59MOL    C4424520   2.029   1.547   0.961  0.8196 -0.2918 -0.1024
   59MOL    C4524521   2.065   1.413   0.902  0.5767 -0.0010  0.2846
   59MOL    C4624522   2.198   1.361   0.947  0.3136 -0.8268 -0.2177
   59MOL    C4724523   2.212   1.328   1.100  0.7745 -0.7674 -0.0866
   59MOL    C4824524   2.347   1.264   1.130 -0.1405  0.8774  0.4043
   59MOL    C4924525   2.456   1.356   1.114 -0.2075  0.1944  0.1412
   59MOL    C5024526   2.593   1.297   1.156  0.3591 -0.3253  0.5097
   59MOL    H5124527   1.931   1.567   0.920  1.2992 -1.7804 -2.0401
   59MOL    H5224528   2.010   1.539   1.068  0.4203  0.7920 -0.0773
   59MOL    H5324529   2.072   1.430   0.795  0.7118  1.1612  0.4715
   59MOL    H5424530   2.276   1.427   0.911 -1.9893  1.4220 -1.2731
   59MOL    H5524531   2.220   1.266   0.898  0.8119 -1.1031  0.5340
   59MOL    H5624532   2.205   1.424   1.152 -0.3560 -0.3332 -1.0303
   59MOL    H5724533   2.131   1.258   1.119 -0.0045 -0.1730 -1.1910
   59MOL    H5824534   2.359   1.164   1.088 -3.0656 -0.2507  2.1009
   59MOL    H5924535   2.347   1.251   1.238  1.7412 -0.6944  0.2412
   59MOL    H6024536   2.432   1.447   1.169  0.8616  1.2282 -1.0883
   59MOL    H6124537   2.453   1.395   1.012  0.4218 -1.9720 -0.7319
   59MOL    H6224538   2.684   1.356   1.145  1.3135 -2.0230 -0.9653
   59MOL    H6324539   2.623   1.210   1.096  0.3648 -0.1546  0.2637
   59MOL    H6424540   2.586   1.254   1.256  0.0953 -2.3264 -0.3410
   59MOL    C6524541   1.947   1.314   0.915  0.7749  0.1608 -0.5805
   59MOL    C6624542   1.909   1.234   0.788  0.4168 -0.4225 -0.6500
   59MOL    C6724543   1.839   1.334   0.693 -0.2123  0.5858  0.3869
   59MOL    C6824544   1.823   1.294   0.551  0.7052  0.5380  0.7040
   59MOL    C6924545   1.734   1.389   0.474  0.3050 -0.8024 -0.3190
   59MOL    C7024546   1.723   1.354   0.323  0.5801 -0.5197 -0.0597
   59MOL    C7124547   1.842   1.303   0.246 -0.0289 -0.2904  0.7050
   59MOL    H7224548   1.967   1.238   0.990 -0.4487  0.1297 -0.2732
   59MOL    H7324549   1.864   1.360   0.969  0.6018 -0.6416 -0.1540
   59MOL    H7424550   2.006   1.197   0.752  1.2478 -1.2336  2.2722
   59MOL    H7524551   1.746   1.366   0.741  0.3940 -0.0762  2.0407
   59MOL    H7624552   1.897   1.426   0.692  1.0437 -0.1999  0.0370
   59MOL    H7724553   1.924   1.293   0.511  0.1527  0.1822 -0.6900
   59MOL    H7824554   1.779   1.196   0.532 -0.7210  1.0842  1.0932
   59MOL    H7924555   1.629   1.380   0.500  0.6023 -0.5962  0.9454
   59MOL    H8024556   1.768   1.492   0.491 -0.6014 -0.5713  0.1196
   59MOL    H8124557   1.695   1.443   0.267 -1.3365 -0.2332  1.3117
   59MOL    H8224558   1.633   1.297   0.301  0.5814 -0.9058  0.9102
   59MOL    H8324559   1.891   1.225   0.305 -1.8039 -1.0436  1.2049
   59MOL    H8424560   1.822   1.271   0.144 -1.3985  0.5889  0.6852
   59MOL    H8524561   1.913   1.385   0.239 -0.3860 -0.0648 -0.2837
   59MOL    C8624562   1.824   1.107   0.817  0.2517 -0.6349 -0.5806
   59MOL    C8724563   1.891   0.970   0.811 -0.1405 -0.5594  0.8145
   59MOL    C8824564   1.949   0.943   0.668 -0.4176  0.9831  0.2173
   59MOL    C8924565   1.960   0.794   0.624 -0.3337  0.0250 -0.6981
   59MOL    C9024566   2.030   0.780   0.496  0.5080 -0.0210  0.5895
   59MOL    C9124567   2.184   0.800   0.502  0.1029  0.3343 -0.0613
   59MOL    C9224568   2.241   0.752   0.369  0.4177  0.6373 -0.1753
   59MOL    H9324569   1.774   1.116   0.914  1.1157 -1.6784 -0.0337
   59MOL    H9424570   1.743   1.115   0.745  0.0880  1.7393 -0.1864
   59MOL    H9524571   1.815   0.893   0.817 -1.8917  1.0657 -0.0249
   59MOL    H9624572   1.884   0.982   0.590 -3.2855 -0.2877  1.8995
   59MOL    H9724573   2.045   0.993   0.655 -0.6246  0.5993 -3.2008
   59MOL    H9824574   1.999   0.723   0.697  0.2318 -0.0379 -1.0594
   59MOL    H9924575   1.862   0.750   0.606 -0.0559 -1.5547  1.4898
   59MOL   H10024576   1.999   0.847   0.417 -1.1215 -1.4175  0.0210
   59MOL   H10124577   2.025   0.674   0.469  2.2159 -0.1676  0.7986
   59MOL   H10224578   2.208   0.904   0.522 -2.5104  0.7081  1.4178
   59MOL   H10324579   2.237   0.743   0.578 -1.4160  0.6232  1.2362
   59MOL   H10424580   2.225   0.645   0.364 -0.8551  0.8297 -0.3001
   59MOL   H10524581   2.347   0.778   0.373  0.3797  0.7983 -0.1887
   59MOL   H10624582   2.191   0.798   0.284 -1.9063  0.3307  0.9798
   59MOL   C10724583   1.988   0.939   0.922  0.0566  0.4683  0.2889
   59MOL   C10824584   1.930   0.914   1.062  0.1659 -0.5130  0.7248
   59MOL   C10924585   1.838   0.792   1.073 -0.2034  0.3234  0.0077
   59MOL   C11024586   1.920   0.668   1.033  0.5010  0.5283 -0.2231
   59MOL   C11124587   1.828   0.542   1.010 -0.6271 -0.5906 -0.7412
   59MOL   C11224588   1.806   0.523   0.866 -0.0107  0.7023 -0.0177
   59MOL   C11324589   1.732   0.389   0.839  0.1112 -0.2514 -0.5633
   59MOL   H11424590   2.041   1.034   0.931 -1.9074  1.7662 -1.3658
   59MOL   H11524591   2.050   0.860   0.881 -0.7135  0.7255 -1.4045
   59MOL   H11624592   1.857   0.995   1.066 -1.2660 -1.4987 -3.2321
   59MOL   H11724593   1.757   0.810   1.001  0.4007 -0.6837 -0.9377
   59MOL   H11824594   1.800   0.778   1.174  1.1257  0.1995  0.4878
   59MOL   H11924595   1.967   0.686   0.936 -0.0180 -1.4618 -0.8686
   59MOL   H12024596   2.008   0.648   1.095  1.1940 -0.2942 -1.4433
   59MOL   H12124597   1.735   0.566   1.061  0.6214  3.3675 -0.1442
   59MOL   H12224598   1.864   0.449   1.055  0.1541  0.0830  0.0579
   59MOL   H12324599   1.757   0.612   0.826  3.4350  1.5902 -2.4746
   59MOL   H12424600   1.897   0.502   0.810 -0.8444  1.7234 -1.7734
   59MOL   H12524601   1.688   0.398   0.739 -0.1276  1.1124 -0.3429
   59MOL   H12624602   1.802   0.307   0.853  2.8671  2.1588  0.1897
   59MOL   H12724603   1.640   0.378   0.898  1.2809 -0.5183  1.2332
   59MOL   C12824604   2.042   0.927   1.168  0.4310 -0.5238 -0.4732
   59MOL   C12924605   1.993   0.910   1.322  0.0819 -0.4478  0.9698
   59MOL   C13024606   1.890   1.014   1.361 -0.5043 -0.2519  0.1604
   59MOL   C13124607   1.924   1.159   1.379 -0.2988  0.0209  0.1014
   59MOL   C13224608   1.806   1.250   1.431  0.4157  0.0511  0.6378
   59MOL   C13324609   1.821   1.400   1.402  0.2048 -0.5487 -0.2919
   59MOL   C13424610   1.819   1.487   1.532 -0.1103 -0.5260  0.1749
   59MOL   H13524611   2.113   0.846   1.155 -0.2088 -1.2487  0.4562
   59MOL   H13624612   2.100   1.018   1.154 -1.3713  0.5621 -1.1112
   59MOL   H13724613   1.944   0.813   1.329  0.9590 -0.8260  1.9017
   59MOL   H13824614   1.861   0.973   1.458  1.6814 -0.8858  0.5806
   59MOL   H13924615   1.806   1.018   1.292  0.9467  1.4861 -1.5631
   59MOL   H14024616   1.966   1.192   1.284  1.8204 -0.8536  0.7029
   59MOL   H14124617   2.009   1.170   1.446  1.7350  1.2105 -2.5623
   59MOL   H14224618   1.802   1.246   1.540  1.9699 -1.7417  0.6502
   59MOL   H14324619   1.710   1.212   1.398  0.3074  0.8158  0.0545
   59MOL   H14424620   1.739   1.430   1.336  0.2896 -0.3792 -0.3223
   59MOL   H14524621   1.906   1.424   1.339 -1.4068 -0.2957 -2.4495
   59MOL   H14624622   1.809   1.591   1.500  1.2047  0.2459  2.2209
   59MOL   H14724623   1.916   1.494   1.581  0.7469 -0.8664 -1.4087
   59MOL   H14824624   1.737   1.454   1.594  0.9541 -1.9341  0.8726
   59MOL   C14924625   2.109   0.910   1.416 -0.5604 -0.1610  0.6868
   59MOL   C15024626   2.186   0.782   1.442  0.8125  0.0857  0.7945
   59MOL   C15124627   2.109   0.673   1.515 -0.1555  0.6681 -0.4136
   59MOL   C15224628   2.113   0.537   1.444  0.4846 -0.3349  0.1488
   59MOL   C15324629   2.038   0.436   1.532 -0.0180  0.2929  0.1445
   59MOL   C15424630   2.041   0.298   1.464  0.2673 -0.1064 -0.3460
   59MOL   C15524631   1.978   0.192   1.562  0.0214 -0.1888 -0.5602
   59MOL   H15624632   2.176   0.994   1.400 -1.3465  0.1509 -1.0237
   59MOL   H15724633   2.071   0.931   1.517  0.1376 -0.3108  0.9795
   59MOL   H15824634   2.191   0.738   1.342 -2.7517  0.8859  0.1962
   59MOL   H15924635   2.130   0.662   1.621 -2.3930  0.2797  0.0131
   59MOL   H16024636   2.004   0.693   1.536  0.5403  2.9531  1.0433
   59MOL   H16124637   2.214   0.503   1.424  0.1973 -0.1937 -1.6314
   59MOL   H16224638   2.065   0.541   1.346  0.0082  0.0067  0.3966
   59MOL   H16324639   1.938   0.469   1.558  0.1759  0.8082  0.2384
   59MOL   H16424640   2.079   0.427   1.633  0.7393 -1.2666 -0.2673
   59MOL   H16524641   2.146   0.275   1.445  0.4271 -1.0102  1.5053
   59MOL   H16624642   1.988   0.302   1.369  0.5645 -0.6115 -0.5352
   59MOL   H16724643   1.984   0.098   1.507  1.3215  0.2881 -1.2315
   59MOL   H16824644   1.870   0.197   1.576 -0.4134 -0.4817 -3.4479
   59MOL   H16924645   2.023   0.192   1.661  1.7384 -0.9183 -1.3346
   59MOL   C17024646   2.326   0.812   1.504  0.3768 -0.5212 -0.7361
   59MOL   C17124647   2.438   0.880   1.418  0.0167 -1.0817  0.1577
   59MOL   C17224648   2.549   0.944   1.511  0.7886 -0.2158 -0.7545
   59MOL   C17324649   2.495   1.067   1.590 -0.2758 -0.1695 -0.9512
   59MOL   C17424650   2.598   1.112   1.697 -0.3277  0.2785 -0.6330
   59MOL   C17524651   2.545   1.223   1.786  0.5127 -0.0896 -0.2728
   59MOL   C17624652   2.554   1.363   1.725 -0.2553  0.6467 -0.6835
   59MOL   H17724653   2.357   0.717   1.547  1.4908  0.5345  0.8306
   59MOL   H17824654   2.296   0.866   1.594  1.1082 -3.5723  1.4236
   59MOL   H17924655   2.398   0.959   1.355  0.0138 -0.3005  1.1229
   59MOL   H18024656   2.630   0.976   1.446  1.8174 -0.3701  0.4332
   59MOL   H18124657   2.592   0.864   1.571  1.3031  0.4911 -0.1723
   59MOL   H18224658   2.395   1.057   1.633  0.1732  2.8975  0.9795
   59MOL   H18324659   2.480   1.150   1.521 -0.0886 -0.2807 -1.1258
   59MOL   H18424660   2.694   1.141   1.652  0.3169  0.1484  0.6364
   59MOL   H18524661   2.618   1.023   1.755 -2.0424  0.5829  0.4461
   59MOL   H18624662   2.622   1.230   1.864 -1.5365  0.6113  1.7620
   59MOL   H18724663   2.447   1.193   1.822  0.7132 -0.3280  0.0821
   59MOL   H18824664   2.656   1.386   1.696 -0.1341  1.8685  0.6322
   59MOL   H18924665   2.522   1.436   1.799 -0.5784 -0.2822  0.0987
   59MOL   H19024666   2.503   1.367   1.629 -2.0433  1.4291  0.2761
   59MOL   C19124667   2.503   0.777   1.320  0.3215 -0.2700  0.2673
   59MOL   C19224668   2.450   0.754   1.177  0.0731 -0.6531 -0.3139
   59MOL   C19324669   2.484   0.873   1.082  0.0915 -0.7691 -1.1284
   59MOL   C19424670   2.419   0.875   0.949  0.8466 -0.4561 -0.0976
   59MOL   C19524671   2.445   1.004   0.862 -0.4136 -0.3234 -0.2798
   59MOL   C19624672   2.586   1.026   0.809 -0.4355 -0.4132  0.6522
   59MOL   C19724673   2.598   1.165   0.752  0.2288 -0.1415  0.0923
   59MOL   H19824674   2.501   0.678   1.366  0.7190 -0.3262  0.1645
   59MOL   H19924675   2.602   0.814   1.296  0.0109  0.8113  0.6095
   59MOL   H20024676   2.343   0.737   1.191 -0.1087 -0.1781 -1.0906
   59MOL   H20124677   2.590   0.893   1.072  0.4909 -1.2923  1.5820
   59MOL   H20224678   2.443   0.960   1.132  0.1675 -0.6424 -1.2868
   59MOL   H20324679   2.313   0.855   0.966  1.0415 -0.8431  0.6873
   59MOL   H20424680   2.447   0.789   0.887 -0.0955 -0.5326 -0.4359
   59MOL   H20524681   2.392   0.983   0.769  0.4857  1.9771 -1.3442
   59MOL   H20624682   2.410   1.097   0.907 -0.2255 -0.0996 -0.5977
   59MOL   H20724683   2.618   0.953   0.735  0.1840 -1.2949  1.7544
   59MOL   H20824684   2.663   1.003   0.884 -0.6097 -0.7641  0.7219
   59MOL   H20924685   2.561   1.179   0.650  0.5030  1.7249  0.2299
   59MOL   H21024686   2.702   1.194   0.764  0.5768 -0.9245 -0.8672
   59MOL   H21124687   2.552   1.241   0.815 -0.2216 -1.0405  0.8502
   59MOL   C21224688   2.505   0.625   1.118 -0.3619 -1.2114 -0.2649
   59MOL   C21324689   2.410   0.504   1.137 -0.4341 -0.4773 -0.2742
   59MOL   C21424690   2.292   0.510   1.035  0.2848 -0.0749 -0.4233
   59MOL   C21524691   2.321   0.495   0.883 -0.1706  0.2692  0.9087
   59MOL   C21624692   2.210   0.450   0.791 -0.5956 -0.6254 -0.0794
   59MOL   C21724693   2.270   0.401   0.658 -0.1838 -0.2583 -0.0587
   59MOL   C21824694   2.158   0.333   0.575  0.4739  0.0587  0.5887
   59MOL   H21924695   2.601   0.605   1.167  1.3626  1.0690 -2.5958
   59MOL   H22024696   2.545   0.618   1.017  1.2162 -0.1100  0.2652
   59MOL   H22124697   2.358   0.518   1.232  0.4562 -1.2862  0.3355
   59MOL   H22224698   2.219   0.439   1.075 -1.2639  1.3880 -0.6182
   59MOL   H22324699   2.233   0.600   1.047  0.0939 -0.4562  1.7427
   59MOL   H22424700   2.398   0.421   0.861 -0.0573  0.4630  0.6480
   59MOL   H22524701   2.369   0.586   0.846  0.6806 -0.2933  0.6138
   59MOL   H22624702   2.151   0.378   0.847 -0.5709 -1.5134 -1.1662
   59MOL   H22724703   2.140   0.531   0.772 -1.0119 -0.9965 -0.1385
   59MOL   H22824704   2.321   0.482   0.605  1.8011 -0.5944  1.2854
   59MOL   H22924705   2.343   0.324   0.682 -0.1721 -1.1102 -2.5997
   59MOL   H23024706   2.095   0.415   0.541  0.6764  0.0469  0.1867
   59MOL   H23124707   2.094   0.265   0.630 -3.0937 -0.9048 -4.4656
   59MOL   H23224708   2.191   0.275   0.489  2.5874 -0.7418  1.8767
   59MOL   C23324709   2.468   0.358   1.145  0.3699  0.3049 -0.9693
   59MOL   C23424710   2.552   0.325   1.267  0.1034  0.4898 -1.0160
   59MOL   C23524711   2.469   0.325   1.397 -0.2502 -0.1197  0.2826
   59MOL   C23624712   2.545   0.298   1.523 -0.1985  0.5837  0.4034
   59MOL   C23724713   2.450   0.323   1.637 -0.0625 -0.2834 -0.0087
   59MOL   C23824714   2.456   0.466   1.691 -0.1523 -0.5058 -0.5394
   59MOL   C23924715   2.347   0.493   1.791  0.5900  0.0107 -0.3352
   59MOL   H24024716   2.512   0.330   1.050  2.7155  2.6152 -0.6292
   59MOL   H24124717   2.389   0.284   1.135 -0.1823  0.7717 -0.0919
   59MOL   H24224718   2.626   0.402   1.287  0.9069  0.2760 -3.0937
   59MOL   H24324719   2.382   0.261   1.384  0.0715 -0.6444  0.6815
   59MOL   H24424720   2.431   0.426   1.414 -0.5859 -0.1160 -0.5035
   59MOL   H24524721   2.639   0.351   1.541 -0.6035  0.1781  4.1916
   59MOL   H24624722   2.567   0.192   1.514  2.4883  1.2031 -0.8708
   59MOL   H24724723   2.476   0.246   1.709  2.1856 -1.7214 -2.2458
   59MOL   H24824724   2.348   0.306   1.603 -0.2021 -0.5932  0.5641
   59MOL   H24924725   2.551   0.477   1.745  0.0635 -0.5916 -0.8996
   59MOL   H25024726   2.456   0.541   1.612 -0.6104 -0.0995 -0.1548
   59MOL   H25124727   2.347   0.413   1.865  1.1815 -1.6289 -2.0596
   59MOL   H25224728   2.378   0.585   1.841  0.5584 -0.1246 -0.0644
   59MOL   H25324729   2.251   0.511   1.743  0.3188 -1.8935 -0.5372
   59MOL   C25424730   2.619   0.180   1.255 -0.3338  0.4380  0.2185
   59MOL   C25524731   2.703   0.145   1.136  0.0654 -0.0771  0.3607
   59MOL   C25624732   2.733   7.704   1.112 -0.0263 -0.1213 -0.0318
   59MOL   C25724733   2.624   7.602   1.069 -0.5242  0.5294 -0.4230
   59MOL   C25824734   2.684   7.470   1.023 -0.3922 -0.2337 -0.2425
   59MOL   C25924735   2.595   7.345   1.023  0.1507 -0.1322 -0.0986
   59MOL   C26024736   2.671   7.209   1.016  0.4400  0.3491  0.1856
   59MOL   H26124737   2.543   0.104   1.270  0.3442 -0.1387  0.7469
   59MOL   H26224738   2.691   0.157   1.334  0.5600  0.9393 -0.4370
   59MOL   H26324739   2.649   0.166   1.043  3.6754 -1.5176 -2.1696
   59MOL   H26424740   2.794   7.666   1.195  1.1700 -1.8803 -1.6820
   59MOL   H26524741   2.800   7.702   1.026 -1.0341 -0.6140 -0.8083
   59MOL   H26624742   2.569   7.572   1.158  2.2515 -1.4047  0.7177
   59MOL   H26724743   2.545   7.643   1.006  0.5873  0.6851 -1.7486
   59MOL   H26824744   2.767   7.449   1.090  1.1394  0.7094 -1.8049
   59MOL   H26924745   2.724   7.483   0.922 -1.5802 -0.8211 -0.7948
   59MOL   H27024746   2.526   7.353   1.108  0.9175  1.0516  0.4278
   59MOL   H27124747   2.534   7.340   0.934  1.0254 -2.5778 -0.6043
   59MOL   H27224748   2.762   7.201   1.077  1.7999 -0.0659 -1.8385
   59MOL   H27324749   2.610   7.122   1.040  3.6205 -1.7536  1.0709
   59MOL   H27424750   2.703   7.197   0.913  0.8246 -0.3088  0.3749
   59MOL   C27524751   2.838   0.220   1.145  0.2841 -0.4611  0.2618
   59MOL   C27624752   2.843   0.365   1.083  0.0628  0.0340 -0.4734
   59MOL   C27724753   2.827   0.359   0.925 -0.3329  0.3902 -0.5664
   59MOL   C27824754   2.804   0.500   0.862  0.0418 -0.1453  0.2117
   59MOL   C27924755   2.723   0.505   0.732 -0.1002 -0.3964 -0.5108
   59MOL   C28024756   2.700   0.647   0.679  0.2466  0.3165  0.1672
   59MOL   C28124757   2.612   0.635   0.547  0.4204 -0.1687  0.3939
   59MOL   H28224758   2.920   0.152   1.118  1.0350  0.3824  0.3932
   59MOL   H28324759   2.866   0.218   1.251  0.6435  3.6656  0.3348
   59MOL   H28424760   2.761   0.419   1.129 -0.0298 -0.9092  0.5057
   59MOL   H28524761   2.919   0.311   0.892 -0.1972 -0.9319  1.6538
   59MOL   H28624762   2.743   0.299   0.890 -2.1929  1.4791  1.8735
   59MOL   H28724763   2.898   0.554   0.856 -0.0353  0.1172  1.2385
   59MOL   H28824764   2.756   0.565   0.936  0.8864  0.4060  0.2860
   59MOL   H28924765   2.631   0.448   0.744  0.1165 -0.7857 -0.6885
   59MOL   H29024766   2.777   0.451   0.654  0.5581  1.4314 -1.3409
   59MOL   H29124767   2.658   0.712   0.757  0.2343 -0.4280  0.7843
   59MOL   H29224768   2.802   0.676   0.657  0.1680 -0.0251 -0.6521
   59MOL   H29324769   2.519   0.579   0.560  0.8037 -0.7869  0.4836
   59MOL   H29424770   2.668   0.578   0.473 -1.6817  0.2932 -1.6218
   59MOL   H29524771   2.590   0.726   0.490 -2.2398 -2.1392 -1.8536
   59MOL   C29624772   2.975   0.441   1.121  0.0817  0.2375 -0.0289
   59MOL   C29724773   3.014   0.442   1.267  0.0059  1.0922 -0.9615
   59MOL   C29824774   2.907   0.523   1.352 -0.7652  0.1404 -0.3588
   59MOL   C29924775   2.918   0.530   1.498 -0.8411 -0.8971  0.6944
   59MOL   C30024776   2.804   0.620   1.558  0.0667 -0.3340 -0.3959
   59MOL   C30124777   2.829   0.644   1.709 -0.0707 -0.0420  0.2331
   59MOL   C30224778   2.707   0.728   1.777 -0.6753  0.2666 -0.4666
   59MOL   H30324779   3.048   0.389   1.059  0.7707  1.4392 -0.2422
   59MOL   H30424780   2.965   0.541   1.081  1.0642 -0.1459 -1.2702
   59MOL   H30524781   3.017   0.341   1.307  0.7443  0.2948 -2.9644
   59MOL   H30624782   2.906   0.625   1.312 -0.8594  0.2607 -0.0546
   59MOL   H30724783   2.808   0.480   1.343 -1.2979  1.7559 -2.8332
   59MOL   H30824784   3.009   0.579   1.532 -0.2472  0.8174 -3.0878
   59MOL   H30924785   2.915   0.431   1.543  3.6192 -1.2531  0.4403
   59MOL   H31024786   2.708   0.576   1.531  0.0084 -0.2221 -0.3708
   59MOL   H31124787   2.798   0.719   1.513  1.4732  0.4818  1.1616
   59MOL   H31224788   2.830   0.546   1.758  0.0836 -0.0657  0.1814
   59MOL   H31324789   2.922   0.697   1.730 -1.4547  2.2789  0.6941
   59MOL   H31424790   2.724   0.720   1.884  0.8920  0.1430 -0.7119
   59MOL   H31524791   2.736   0.833   1.773 -0.5775  0.2065 -1.5132
   59MOL   H31624792   2.606   0.710   1.740  0.5670 -1.2162 -3.2717
   59MOL   C31724793   3.153   0.508   1.276 -0.0084 -0.0879  0.5491
   59MOL   C31824794   3.273   0.436   1.219  0.0882  0.1382  0.9026
   59MOL   C31924795   3.374   0.513   1.130 -0.5848  0.2117  0.0591
   59MOL   C32024796   3.314   0.570   1.003  0.1274  0.2941 -1.0507
   59MOL   C32124797   3.293   0.464   0.894 -0.2063 -0.3154  0.4238
   59MOL   C32224798   3.250   0.519   0.763  0.3828 -0.0649  0.5832
   59MOL   C32324799   3.195   0.409   0.665 -0.1132 -0.3009  0.3822
   59MOL   H32424800   3.168   0.540   1.379  1.1455 -1.6295  0.8771
   59MOL   H32524801   3.134   0.601   1.223 -0.5488 -0.5481 -0.0712
   59MOL   H32624802   3.233   0.367   1.145  0.8906  0.3576  0.2669
   59MOL   H32724803   3.453   0.444   1.101 -4.1242 -3.4772 -1.2716
   59MOL   H32824804   3.423   0.588   1.192 -1.4691  1.5216 -0.7993
   59MOL   H32924805   3.395   0.634   0.968  0.2139 -0.4218 -2.1686
   59MOL   H33024806   3.234   0.639   1.027 -0.4454 -0.5453 -0.5063
   59MOL   H33124807   3.221   0.389   0.927  0.5903 -1.2140  0.1615
   59MOL   H33224808   3.378   0.397   0.878  0.5005  0.5796  0.3602
   59MOL   H33324809   3.336   0.564   0.713 -0.0258  1.2140  0.9987
   59MOL   H33424810   3.180   0.600   0.785 -0.3192 -0.0978 -1.4358
   59MOL   H33524811   3.171   0.455   0.569  1.7252  2.4955  1.1994
   59MOL   H33624812   3.114   0.359   0.718 -0.1776 -1.0308 -0.3936
   59MOL   H33724813   3.271   0.333   0.647  3.7153  3.1702  1.2088
   59MOL   C33824814   3.347   0.365   1.331  0.5510 -0.1179 -0.1050
   59MOL   C33924815   3.267   0.252   1.410 -0.3375  0.4245  0.0175
   59MOL   C34024816   3.331   0.232   1.544 -0.3267  0.5637  0.4540
   59MOL   C34124817   3.476   0.180   1.545  0.2019  0.4731  0.3918
   59MOL   C34224818   3.551   0.157   1.680 -0.2892  0.2008 -0.0866
   59MOL   C34324819   3.566   0.289   1.760 -0.3013  0.5441 -0.0578
   59MOL   C34424820   3.660   0.271   1.881  0.5562 -0.2648 -0.2136
   59MOL   H34524821   3.394   0.441   1.394  1.3555 -2.6035  2.4321
   59MOL   H34624822   3.431   0.323   1.276  0.5444 -0.4857  0.1620
   59MOL   H34724823   3.169   0.292   1.437 -0.8129 -1.0096  0.5254
   59MOL   H34824824   3.341   0.331   1.590  0.2557  1.1656 -0.9262
   59MOL   H34924825   3.258   0.186   1.610 -0.1588  0.7306  0.7600
   59MOL   H35024826   3.544   0.246   1.492 -0.5151 -0.1397 -1.2989
   59MOL   H35124827   3.475   0.086   1.490 -0.8395  0.6017  0.1654
   59MOL   H35224828   3.497   0.083   1.739  1.9323 -1.6759 -0.3231
   59MOL   H35324829   3.650   0.116   1.658 -0.0966  0.2366  0.6891
   59MOL   H35424830   3.602   0.367   1.692  0.7739 -0.4271 -0.6288
   59MOL   H35524831   3.468   0.312   1.802 -1.4017  0.3396 -2.4282
   59MOL   H35624832   3.665   0.364   1.937  0.2640 -0.5524  0.2956
   59MOL   H35724833   3.762   0.240   1.860  0.0883 -1.8018 -0.2951
   59MOL   H35824834   3.626   0.197   1.954  0.4196 -0.6103 -0.6264
   59MOL   C35924835   3.246   0.118   1.330 -0.5949  0.3797  0.7055
   59MOL   C36024836   3.170   0.004   1.406  1.0252 -0.6102 -0.1472
   59MOL   C36124837   3.021   0.036   1.433 -0.5129 -0.4593 -0.8928
   59MOL   C36224838   2.974   7.709   1.580  0.5627 -0.4764 -0.1371
   59MOL   C36324839   2.828   0.023   1.614 -0.1403 -0.5405  0.3080
   59MOL   C36424840   2.801   7.688   1.756 -0.1899  0.1562  0.2773
   59MOL   C36524841   2.648   7.691   1.795 -0.1122 -0.5231  0.7277
   59MOL   H36624842   3.342   0.074   1.304 -0.3819  0.7238  0.8993
   59MOL   H36724843   3.192   0.151   1.241  0.6222  1.6849  0.4296
   59MOL   H36824844   3.213   0.005   1.506 -0.3226  0.3113  0.4405
   59MOL   H36924845   3.008   0.144   1.437  0.1013 -0.4040 -0.3337
   59MOL   H37024846   2.957   7.706   1.356 -1.9472  2.0681 -1.1858
   59MOL   H37124847   2.984   7.603   1.599 -0.0725 -0.0575  2.8786
   59MOL   H37224848   3.036   0.050   1.652 -1.1871 -0.6330  1.5411
   59MOL   H37324849   2.815   0.131   1.601  0.3772 -0.0031  3.5763
   59MOL   H37424850   2.767   7.671   1.552  1.1302 -1.8422  0.4069
   59MOL   H37524851   2.833   7.585   1.772 -0.2812  0.1566  0.4733
   59MOL   H37624852   2.862   0.018   1.835 -0.3205 -0.7560  0.8900
   59MOL   H37724853   2.642   7.673   1.902  2.0818  0.7189  1.0940
   59MOL   H37824854   2.617   0.081   1.779 -2.2442 -1.4659 -1.5870
   59MOL   H37924855   2.585   7.624   1.737 -0.3304  0.5830 -0.3387
   59MOL   C38024856   3.196   7.585   1.335  0.8674  0.1230 -0.4364
   59MOL   C38124857   3.153   7.462   1.420  0.2185 -0.0905 -0.0543
   59MOL   C38224858   3.144   7.342   1.323  0.1972  0.1213  0.7793
   59MOL   C38324859   3.120   7.207   1.394 -0.3880 -0.0619 -0.3653
   59MOL   C38424860   3.079   7.093   1.291 -0.4954 -1.1702  0.3371
   59MOL   C38524861   3.026   6.972   1.361 -0.5579  0.3189 -0.3212
   59MOL   C38624862   2.995   6.864   1.257  0.0349  0.6447 -0.1875
   59MOL   H38724863   3.139   7.593   1.242  0.9416  1.2725 -0.3841
   59MOL   H38824864   3.302   7.579   1.308 -0.0867 -2.6242 -3.9355
   59MOL   H38924865   3.055   7.477   1.465  1.0467 -1.1147  2.2173
   59MOL   H39024866   3.235   7.333   1.263 -0.8678  0.3080 -0.8885
   59MOL   H39124867   3.076   7.365   1.242  2.4464  2.6962 -0.4354
   59MOL   H39224868   3.205   7.181   1.456 -0.4787 -0.4278 -0.3926
   59MOL   H39324869   3.031   7.221   1.457  0.7927 -1.0773  1.5739
   59MOL   H39424870   3.011   7.129   1.213  0.1612  0.9307  0.7044
   59MOL   H39524871   3.169   7.058   1.240  0.1169 -0.9951  1.2804
   59MOL   H39624872   2.937   6.982   1.423  0.0902 -1.3767  0.9114
   59MOL   H39724873   3.096   6.934   1.435  0.2479 -0.7176 -1.5885
   59MOL   H39824874   2.955   6.777   1.309  3.4855  0.1296  1.7334
   59MOL   H39924875   3.068   6.836   1.182  0.0624 -2.1566  0.8096
   59MOL   H40024876   2.908   6.890   1.197 -0.2804 -0.5333 -0.2463
   59MOL   C40124877   3.240   7.440   1.546  0.2242  0.1643 -0.0434
   59MOL   C40224878   3.392   7.433   1.532 -0.2303  0.7834 -0.4263
   59MOL   C40324879   3.476   7.422   1.660  0.1713  0.3104 -0.0552
   59MOL   C40424880   3.628   7.406   1.628  0.5319  0.4109  0.0132
   59MOL   C40524881   3.645   7.259   1.576 -0.2282 -0.1284 -0.1815
   59MOL   C40624882   3.793   7.246   1.535 -0.4466 -0.0688  0.0620
   59MOL   C40724883   3.844   7.111   1.488 -0.4407 -0.0629 -0.3813
   59MOL   H40824884   3.205   7.350   1.596 -1.1595  0.7524  0.0972
   59MOL   H40924885   3.213   7.521   1.614 -1.8793 -0.5270 -0.0223
   59MOL   H41024886   3.436   7.512   1.472  2.2440 -0.1922  0.0403
   59MOL   H41124887   3.449   7.337   1.723 -0.4682  0.5224 -0.0362
   59MOL   H41224888   3.451   7.500   1.732  0.3521  1.1757 -0.9119
   59MOL   H41324889   3.674   7.410   1.727 -0.8538  2.2638  0.6119
   59MOL   H41424890   3.664   7.486   1.563 -0.0655  0.7591  0.1032
   59MOL   H41524891   3.618   7.180   1.646 -2.0796 -0.7390 -1.5451
   59MOL   H41624892   3.583   7.243   1.488 -1.9302 -0.2134  1.0157
   59MOL   H41724893   3.803   7.323   1.459 -0.4572  0.8240  0.9458
   59MOL   H41824894   3.857   7.287   1.614  0.2021  1.0654 -1.0310
   59MOL   H41924895   3.785   7.086   1.401 -0.5187  1.1148 -0.6746
   59MOL   H42024896   3.822   7.036   1.564  0.0538 -1.0549 -1.2089
   59MOL   H42124897   3.951   7.111   1.465 -0.5460 -1.8062 -0.8823
   59MOL   H42224898   3.393   7.338   1.478 -0.5114  1.2676 -1.3050
   60MOL     C124899   1.285   6.256   1.664 -0.1185  0.2877  0.5456
   60MOL     C224900   1.358   6.393   1.691 -0.3287 -0.3444 -0.2632
   60MOL     C324901   1.270   6.483   1.770 -0.6408  0.6442  0.0908
   60MOL     C424902   1.281   6.455   1.921  0.0507 -0.6738 -0.2749
   60MOL     C524903   1.169   6.527   2.001 -0.2949  0.0986 -0.0948
   60MOL     C624904   1.186   6.492   2.148  0.4271  0.5879  0.9063
   60MOL     C724905   1.066   6.528   2.231 -0.2756  0.1155 -0.6108
   60MOL     H824906   1.352   6.170   1.659  1.2430  1.3761 -0.1806
   60MOL     H924907   1.235   6.251   1.567  1.6672 -1.4957 -0.3229
   60MOL    H1024908   1.434   6.359   1.762 -0.1712  0.5684  0.0153
   60MOL    H1124909   1.279   6.589   1.744 -0.6444  0.3144 -1.2799
   60MOL    H1224910   1.167   6.465   1.737 -1.0463  0.9594  1.1538
   60MOL    H1324911   1.265   6.348   1.931 -3.3153 -0.3206 -1.4628
   60MOL    H1424912   1.383   6.479   1.951  0.6270 -3.6559  0.2860
   60MOL    H1524913   1.072   6.487   1.970 -0.6220 -0.8341  2.0265
   60MOL    H1624914   1.156   6.633   1.981  2.7246  0.0691 -2.4862
   60MOL    H1724915   1.273   6.536   2.197 -1.6388  1.3517  4.0382
   60MOL    H1824916   1.205   6.385   2.158 -0.3834  0.4320  0.8109
   60MOL    H1924917   0.976   6.466   2.232 -0.3016  0.1295  1.4701
   60MOL    H2024918   1.035   6.623   2.189  0.0883  0.0102 -1.1206
   60MOL    H2124919   1.090   6.559   2.332 -2.0020 -1.7892  0.4453
   60MOL    H2224920   1.209   6.227   1.736 -0.0372 -2.2071 -0.3201
   60MOL    C2324921   1.416   6.474   1.571  0.6626  0.9448 -0.5549
   60MOL    C2424922   1.514   6.388   1.479  0.2666  0.1526 -0.6019
   60MOL    C2524923   1.629   6.326   1.558 -0.2293 -0.3946 -0.2744
   60MOL    C2624924   1.720   6.426   1.637  0.1993 -0.4989  0.4850
   60MOL    C2724925   1.828   6.343   1.712 -0.1432  0.1834 -0.7343
   60MOL    C2824926   1.922   6.426   1.797  0.6498  0.4808  0.1808
   60MOL    C2924927   1.858   6.503   1.910 -0.0779 -0.3459 -1.1656
   60MOL    H3024928   1.326   6.499   1.515  0.0810 -0.9056 -0.4681
   60MOL    H3124929   1.476   6.558   1.606  0.4702  1.3010 -1.0795
   60MOL    H3224930   1.453   6.309   1.437  0.3476 -0.8755  1.1697
   60MOL    H3324931   1.694   6.269   1.492  1.1840  1.6459 -0.6787
   60MOL    H3424932   1.582   6.251   1.622 -1.7055 -0.6189 -1.5829
   60MOL    H3524933   1.662   6.493   1.701 -0.2525 -0.3924 -0.0354
   60MOL    H3624934   1.777   6.494   1.574  0.4793 -1.1672  0.0174
   60MOL    H3724935   1.890   6.283   1.646  0.6452  1.5858 -1.2925
   60MOL    H3824936   1.785   6.269   1.779 -0.6547  0.6642 -0.5254
   60MOL    H3924937   1.973   6.497   1.731  1.6679 -1.5833 -1.2876
   60MOL    H4024938   1.994   6.360   1.845 -2.2317 -0.6659  3.1307
   60MOL    H4124939   1.775   6.567   1.883  0.8491  1.8806  1.0444
   60MOL    H4224940   1.833   6.428   1.985 -2.7336  1.4413 -0.2015
   60MOL    H4324941   1.940   6.555   1.961 -0.2973  0.7148 -1.8646
   60MOL    C4424942   1.551   6.481   1.359 -0.1268  0.4339 -0.0277
   60MOL    C4524943   1.625   6.419   1.236 -0.3681  0.0685 -0.8635
   60MOL    C4624944   1.570   6.478   1.106 -0.1294  0.7408 -0.1027
   60MOL    C4724945   1.429   6.431   1.065 -0.0530 -0.2146  0.2167
   60MOL    C4824946   1.361   6.537   0.975 -0.2752 -0.4169  0.5013
   60MOL    C4924947   1.224   6.492   0.930 -0.5996  0.0307 -0.1000
   60MOL    C5024948   1.164   6.601   0.846 -0.2701  0.5389 -0.4604
   60MOL    H5124949   1.600   6.576   1.382  1.1308 -1.0533  3.7192
   60MOL    H5224950   1.458   6.527   1.323  0.7319  0.3281 -2.4988
   60MOL    H5324951   1.605   6.311   1.235 -2.5696  0.3905  1.1954
   60MOL    H5424952   1.641   6.469   1.024 -1.8137  1.0687 -1.6350
   60MOL    H5524953   1.571   6.587   1.107 -0.2743  0.7414  0.2205
   60MOL    H5624954   1.443   6.335   1.017  0.3865  0.1830 -0.4559
   60MOL    H5724955   1.368   6.403   1.151 -0.8028  2.1986  0.5197
   60MOL    H5824956   1.427   6.560   0.891  0.7460 -2.3414  0.7612
   60MOL    H5924957   1.356   6.635   1.023 -0.0973  0.3922 -1.0739
   60MOL    H6024958   1.161   6.473   1.018 -0.0407  0.6968  0.4551
   60MOL    H6124959   1.235   6.405   0.866  0.2211  1.6421 -2.1990
   60MOL    H6224960   1.068   6.574   0.801 -2.6018 -0.6599  4.8409
   60MOL    H6324961   1.230   6.631   0.765 -1.6200  1.7385 -1.1334
   60MOL    H6424962   1.138   6.684   0.912 -2.7663  0.4661 -1.2968
   60MOL    C6524963   1.772   6.448   1.265 -0.0156 -0.1573  0.6639
   60MOL    C6624964   1.875   6.400   1.156  0.8210 -0.6085 -0.1489
   60MOL    C6724965   1.879   6.248   1.146  0.2196  0.5692  0.8685
   60MOL    C6824966   1.957   6.173   1.034  0.1842 -0.0258 -0.0969
   60MOL    C6924967   1.919   6.207   0.891  0.0437 -0.4371 -0.5269
   60MOL    C7024968   1.910   6.088   0.790  0.5054 -0.7004  0.6508
   60MOL    C7124969   2.035   5.991   0.797  0.2940 -0.1956 -0.3891
   60MOL    H7224970   1.782   6.557   1.271  1.0876 -0.2514  0.5898
   60MOL    H7324971   1.813   6.413   1.360  0.5786  1.1537  0.9076
   60MOL    H7424972   1.843   6.427   1.055 -1.9262 -1.5356  0.4229
   60MOL    H7524973   1.908   6.211   1.245 -1.3264  0.8317  1.4446
   60MOL    H7624974   1.775   6.216   1.139  0.0100  1.3056  0.5352
   60MOL    H7724975   2.062   6.198   1.046  0.2676 -0.5059  0.1743
   60MOL    H7824976   1.960   6.070   1.068  0.3315 -1.2010 -3.4580
   60MOL    H7924977   1.814   6.238   0.890  0.3962  0.8408  0.6085
   60MOL    H8024978   1.981   6.286   0.847 -2.1310  1.3489 -0.4803
   60MOL    H8124979   1.891   6.121   0.688  0.7399 -1.1888  0.4514
   60MOL    H8224980   1.822   6.025   0.804 -0.8622  1.1634  0.6384
   60MOL    H8324981   2.127   6.042   0.770  1.4065 -3.0783 -2.2770
   60MOL    H8424982   2.052   5.944   0.894  0.6836 -1.4250 -1.0557
   60MOL    H8524983   2.016   5.914   0.723 -2.0892  2.8610 -3.1299
   60MOL    C8624984   2.023   6.461   1.172 -0.0654  0.0398  0.1611
   60MOL    C8724985   2.051   6.596   1.104  0.0909  0.3287  0.3338
   60MOL    C8824986   1.966   6.710   1.150 -0.1881  0.0069 -0.1150
   60MOL    C8924987   2.002   6.772   1.289 -0.3892  0.0404  0.2611
   60MOL    C9024988   1.908   6.885   1.331 -0.2174  0.5610 -0.4954
   60MOL    C9124989   1.782   6.839   1.400 -0.5727  0.0991 -0.3342
   60MOL    C9224990   1.700   6.962   1.440 -0.0628 -0.0010 -0.3685
   60MOL    H9324991   2.058   6.470   1.275 -1.5896  1.9558  0.5414
   60MOL    H9424992   2.095   6.392   1.128  0.3280  0.7214 -0.2705
   60MOL    H9524993   2.035   6.576   0.998 -1.9150  2.4946  0.1844
   60MOL    H9624994   1.969   6.793   1.079 -1.8698  0.1924 -0.0025
   60MOL    H9724995   1.863   6.675   1.139 -0.6170  1.3709 -0.5385
   60MOL    H9824996   2.011   6.697   1.367 -3.3550  0.3812  0.9949
   60MOL    H9924997   2.100   6.818   1.275 -0.5854  0.4944  0.3844
   60MOL   H10024998   1.891   6.956   1.251  1.8181  1.1482 -0.4440
   60MOL   H10124999   1.958   6.947   1.406 -1.5448 -1.5153  2.2128
   60MOL   H10225000   1.718   6.771   1.345 -1.1015 -0.8946  1.4543
   60MOL   H10325001   1.811   6.784   1.490 -0.0217 -0.4001 -0.8186
   60MOL   H10425002   1.599   6.926   1.460  0.5271 -1.2181  0.4517
   60MOL   H10525003   1.699   7.048   1.373  0.2805 -0.1180 -0.5198
   60MOL   H10625004   1.731   6.994   1.540  2.5731  1.4459 -1.6001
   60MOL   C10725005   2.201   6.629   1.132 -0.9650 -0.0833  0.7066
   60MOL   C10825006   2.308   6.532   1.072 -0.7013  0.4992  0.0971
   60MOL   C10925007   2.280   6.491   0.923 -0.2262 -0.1030 -0.0767
   60MOL   C11025008   2.371   6.376   0.871 -1.0301  0.1360  0.4731
   60MOL   C11125009   2.317   6.313   0.741  0.0770 -0.3999 -0.4412
   60MOL   C11225010   2.384   6.176   0.715 -0.0132 -0.0911 -0.5143
   60MOL   C11325011   2.340   6.123   0.583  0.1530 -0.6182  0.7741
   60MOL   H11425012   2.223   6.637   1.238  1.4028 -2.5583  0.4656
   60MOL   H11525013   2.222   6.730   1.098 -0.9699 -0.5200 -0.6414
   60MOL   H11625014   2.316   6.436   1.124  1.3361 -1.1512 -3.1481
   60MOL   H11725015   2.282   6.578   0.856  0.4128 -0.3568 -0.3835
   60MOL   H11825016   2.176   6.459   0.911 -0.3534 -0.1185  1.0636
   60MOL   H11925017   2.475   6.398   0.849 -1.0446 -0.7755 -0.5305
   60MOL   H12025018   2.379   6.292   0.941 -1.0522  0.5976  1.0393
   60MOL   H12125019   2.327   6.388   0.663 -0.3053  0.7658  0.6060
   60MOL   H12225020   2.213   6.280   0.744  0.0668 -0.3981 -0.7334
   60MOL   H12325021   2.493   6.187   0.710 -0.0434  1.9760  2.1032
   60MOL   H12425022   2.363   6.104   0.795 -1.3105  1.2341  0.3644
   60MOL   H12525023   2.231   6.116   0.584  0.1336 -0.7883 -1.0561
   60MOL   H12625024   2.356   6.184   0.495 -1.5842  0.5471  1.2309
   60MOL   H12725025   2.369   6.020   0.560  0.4494 -0.6207  1.1329
   60MOL   C12825026   2.447   6.595   1.074  0.0809 -0.4615  0.5770
   60MOL   C12925027   2.509   6.620   1.217 -0.4519  0.6443 -0.2334
   60MOL   C13025028   2.561   6.766   1.246 -0.2393 -0.7215 -0.2656
   60MOL   C13125029   2.466   6.851   1.328 -0.0498 -0.2052 -0.3425
   60MOL   C13225030   2.507   7.004   1.349 -0.6286 -0.4763  0.5235
   60MOL   C13325031   2.404   7.090   1.425 -0.8142  0.9655 -0.5996
   60MOL   C13425032   2.266   7.085   1.369 -0.2630  0.2850 -0.7108
   60MOL   H13525033   2.512   6.530   1.016  0.0581  0.4755 -0.5164
   60MOL   H13625034   2.424   6.685   1.016 -0.2172 -0.3471  0.8738
   60MOL   H13725035   2.432   6.604   1.293  1.5740 -1.2262  1.4864
   60MOL   H13825036   2.598   6.825   1.162 -1.4399  0.4602  0.0295
   60MOL   H13925037   2.648   6.762   1.313  0.4605  0.9163 -1.0697
   60MOL   H14025038   2.438   6.806   1.423  1.1329  0.3310  0.2604
   60MOL   H14125039   2.372   6.853   1.273 -1.0780 -0.8939  1.3487
   60MOL   H14225040   2.505   7.050   1.250  0.8948 -0.9982  0.2322
   60MOL   H14325041   2.607   7.005   1.392  0.4727 -1.1669 -1.9022
   60MOL   H14425042   2.436   7.193   1.416  0.2024  0.9758  2.4920
   60MOL   H14525043   2.403   7.055   1.528 -3.4557 -1.7042 -1.4522
   60MOL   H14625044   2.213   7.163   1.424  0.4940 -0.3191  0.8866
   60MOL   H14725045   2.215   6.991   1.388 -1.2888  1.1479  0.9281
   60MOL   H14825046   2.276   7.116   1.265 -0.5490 -0.2423 -0.8970
   60MOL   C14925047   2.613   6.515   1.252 -0.3823  0.6270  0.1463
   60MOL   C15025048   2.582   6.366   1.237  0.2841  1.0404  0.5131
   60MOL   C15125049   2.482   6.323   1.344  0.8653  0.2914 -0.4163
   60MOL   C15225050   2.419   6.181   1.335 -0.5015  0.2916  0.3713
   60MOL   C15325051   2.281   6.177   1.401 -0.0622  0.0321 -0.2677
   60MOL   C15425052   2.192   6.061   1.358  0.3205  0.5941  0.3911
   60MOL   C15525053   2.062   6.045   1.427  0.2811  0.2121 -0.2424
   60MOL   H15625054   2.702   6.538   1.194  1.4322 -0.6258  2.3567
   60MOL   H15725055   2.630   6.537   1.358 -1.5959  3.0015 -0.1093
   60MOL   H15825056   2.536   6.345   1.140 -0.9756 -0.0795  1.3321
   60MOL   H15925057   2.529   6.328   1.443 -1.2891  1.2577  0.6033
   60MOL   H16025058   2.402   6.397   1.342  1.8758  1.3693 -1.7803
   60MOL   H16125059   2.480   6.114   1.395  1.1677  0.3951 -1.1660
   60MOL   H16225060   2.417   6.144   1.232  0.5672  1.5183 -0.1059
   60MOL   H16325061   2.233   6.267   1.364  2.7535  1.4215 -0.7276
   60MOL   H16425062   2.293   6.180   1.510  0.7156 -0.9238 -0.3216
   60MOL   H16525063   2.244   5.965   1.362 -0.0524  0.2510 -1.9170
   60MOL   H16625064   2.177   6.057   1.250  1.7475  1.0309  0.1573
   60MOL   H16725065   2.003   6.136   1.430  1.5852  1.0402  0.3868
   60MOL   H16825066   2.075   6.018   1.532 -1.4276 -1.5257 -0.4334
   60MOL   H16925067   1.995   5.968   1.386 -2.9203  2.2809  0.8823
   60MOL   C17025068   2.703   6.276   1.242 -0.4206 -0.2142  0.2899
   60MOL   C17125069   2.809   6.289   1.127 -0.0145 -0.2819 -0.1445
   60MOL   C17225070   2.956   6.301   1.176  0.4197  0.9571 -0.4510
   60MOL   C17325071   2.979   6.424   1.273 -0.0736  0.1937 -0.6037
   60MOL   C17425072   3.097   6.406   1.367  0.1901  0.2977 -0.9485
   60MOL   C17525073   3.170   6.535   1.404  0.3216 -0.1400 -0.3400
   60MOL   C17625074   3.113   6.580   1.542  0.2928  0.0463  0.5469
   60MOL   H17725075   2.661   6.176   1.234  0.4357 -0.3790 -2.8935
   60MOL   H17825076   2.753   6.288   1.338  0.2764  0.1874 -0.1177
   60MOL   H17925077   2.798   6.388   1.084  1.3780 -0.5710 -1.2054
   60MOL   H18025078   3.025   6.320   1.094  0.7714  0.2587 -0.3203
   60MOL   H18125079   2.984   6.204   1.216  0.3141  1.3331  0.5395
   60MOL   H18225080   2.890   6.456   1.326  0.7698  0.0564  0.9453
   60MOL   H18325081   3.004   6.510   1.211 -1.3100  1.4620  0.6391
   60MOL   H18425082   3.174   6.348   1.315 -1.1815 -1.7637 -0.7601
   60MOL   H18525083   3.076   6.350   1.458  0.3450  2.3158  0.3570
   60MOL   H18625084   3.160   6.603   1.320 -0.8646  0.3190  0.1558
   60MOL   H18725085   3.277   6.530   1.424 -0.0593 -0.0786  1.9359
   60MOL   H18825086   3.142   6.683   1.560  3.8205 -1.0484  1.3986
   60MOL   H18925087   3.159   6.513   1.614 -0.2690  0.4340  1.2759
   60MOL   H19025088   3.004   6.570   1.547  0.3784 -1.4256 -0.2243
   60MOL   C19125089   2.782   6.191   1.000  0.4907 -0.6517  0.2211
   60MOL   C19225090   2.817   6.043   1.021  0.6449 -0.6482 -0.0328
   60MOL   C19325091   2.712   5.953   0.948  0.6661 -0.2449  0.9763
   60MOL   C19425092   2.578   5.921   1.009 -0.0919  0.5726 -0.1464
   60MOL   C19525093   2.487   5.821   0.933  0.6370 -0.8192 -0.2794
   60MOL   C19625094   2.340   5.821   0.972  0.1108  0.1862  0.0287
   60MOL   C19725095   2.260   5.729   0.868  0.6316  0.8880  0.1632
   60MOL   H19825096   2.836   6.241   0.919  0.2102  0.7470  0.8837
   60MOL   H19925097   2.676   6.192   0.976  0.2978 -2.2805  0.9346
   60MOL   H20025098   2.808   6.033   1.129 -0.7289 -0.5255 -0.1268
   60MOL   H20125099   2.762   5.859   0.925  1.0703  0.5652 -1.6195
   60MOL   H20225100   2.703   5.993   0.847  0.5799 -2.1021  0.2276
   60MOL   H20325101   2.515   6.007   1.032  1.3664  1.1597  1.7542
   60MOL   H20425102   2.592   5.877   1.108 -1.2474 -1.3962 -0.8290
   60MOL   H20525103   2.501   5.867   0.836 -2.0156  2.9645  1.0096
   60MOL   H20625104   2.528   5.720   0.941 -0.3465 -1.1265  1.0351
   60MOL   H20725105   2.299   5.922   0.966 -0.8197 -0.1200  0.9888
   60MOL   H20825106   2.320   5.790   1.075  1.0279 -0.4586  0.0121
   60MOL   H20925107   2.290   5.625   0.862 -2.1663  0.0530  0.2617
   60MOL   H21025108   2.269   5.776   0.770  2.5568  0.3355  0.0572
   60MOL   H21125109   2.159   5.714   0.905  1.0080 -1.8206  0.1848
   60MOL   C21225110   2.966   6.011   0.976 -0.4714  0.9574 -0.1993
   60MOL   C21325111   3.031   5.881   1.017  0.1080 -0.2837 -0.2435
   60MOL   C21425112   3.093   5.805   0.899  0.5249  0.2549 -0.3902
   60MOL   C21525113   3.004   5.778   0.779  0.0350  0.2313 -0.0763
   60MOL   C21625114   3.042   5.658   0.696  0.2475  0.4480  0.0081
   60MOL   C21725115   2.978   5.525   0.742  0.0432  0.8496  0.5744
   60MOL   C21825116   3.006   5.407   0.641 -0.9964 -0.2699 -0.0870
   60MOL   H21925117   3.033   6.088   1.013 -2.0574  1.0912  2.5302
   60MOL   H22025118   2.972   6.021   0.868 -0.5915 -0.2698 -0.3238
   60MOL   H22125119   2.955   5.814   1.056  0.1019 -0.9315 -1.3524
   60MOL   H22225120   3.174   5.868   0.863 -1.4374  3.4515  0.6792
   60MOL   H22325121   3.138   5.708   0.922  1.0186  0.1314 -1.8026
   60MOL   H22425122   2.997   5.867   0.717 -0.1188  0.2774  0.0054
   60MOL   H22525123   2.904   5.756   0.817  0.6120 -1.3728  0.5593
   60MOL   H22625124   3.001   5.667   0.596 -0.6356  1.5278  0.4652
   60MOL   H22725125   3.151   5.650   0.691  0.1259  0.0207 -2.7029
   60MOL   H22825126   3.025   5.505   0.838 -0.5996  0.2291  0.7654
   60MOL   H22925127   2.870   5.536   0.742 -0.1360 -0.6926 -0.0867
   60MOL   H23025128   2.959   5.409   0.543 -0.2876 -0.3950 -0.4365
   60MOL   H23125129   2.978   5.315   0.693 -0.0663 -0.6347 -0.2221
   60MOL   H23225130   3.113   5.392   0.622 -0.1712  2.2830  2.1936
   60MOL   C23325131   3.129   5.902   1.135 -0.2013 -0.2525  0.1536
   60MOL   C23425132   3.192   5.781   1.209 -0.3715  0.7430 -0.3132
   60MOL   C23525133   3.318   5.827   1.282  0.0735 -0.0355 -0.1865
   60MOL   C23625134   3.450   5.842   1.202 -0.5557  0.2766  0.3914
   60MOL   C23725135   3.544   5.960   1.241  0.2066  0.4065  0.3127
   60MOL   C23825136   3.497   6.100   1.196 -0.5854 -0.1401  0.1472
   60MOL   C23925137   3.391   6.165   1.284  0.4033 -1.0704 -0.4526
   60MOL   H24025138   3.087   5.968   1.212 -2.4599 -1.5769  0.0903
   60MOL   H24125139   3.202   5.970   1.090 -2.0455 -0.9755 -4.1726
   60MOL   H24225140   3.219   5.706   1.134  0.6378  0.1130  0.6597
   60MOL   H24325141   3.328   5.770   1.375 -3.8511 -1.2897 -0.4225
   60MOL   H24425142   3.295   5.924   1.326 -0.6312  0.1887 -1.0425
   60MOL   H24525143   3.436   5.834   1.095  1.3584  1.0601  0.0551
   60MOL   H24625144   3.514   5.757   1.226  2.8064  2.6918  0.3039
   60MOL   H24725145   3.640   5.941   1.193 -1.7591 -0.3085 -3.5219
   60MOL   H24825146   3.562   5.961   1.349  1.5577  4.8429  0.1295
   60MOL   H24925147   3.588   6.160   1.198 -0.8728  0.2777  0.6675
   60MOL   H25025148   3.452   6.104   1.096 -1.5516  0.6562  0.6167
   60MOL   H25125149   3.417   6.271   1.288  0.1856 -1.0429  0.6013
   60MOL   H25225150   3.290   6.148   1.247  0.3125 -0.7592 -0.3536
   60MOL   H25325151   3.402   6.136   1.389  0.1756 -1.1992 -0.4655
   60MOL   C25425152   3.091   5.696   1.293  0.7112 -0.1669 -0.8561
   60MOL   C25525153   3.102   5.544   1.274  0.3681  0.0097 -1.0480
   60MOL   C25625154   3.241   5.488   1.311  0.1557 -0.2237  0.1192
   60MOL   C25725155   3.279   5.479   1.458  0.4932 -0.2064 -1.2192
   60MOL   C25825156   3.426   5.446   1.488  0.0648  0.3866 -0.4901
   60MOL   C25925157   3.525   5.533   1.415  0.6466  0.4680  0.8056
   60MOL   C26025158   3.673   5.504   1.447 -0.0271  0.1846 -0.1216
   60MOL   H26125159   2.987   5.716   1.268  0.7397  2.9988  1.2557
   60MOL   H26225160   3.102   5.725   1.397  0.7914  0.6413 -1.0870
   60MOL   H26325161   3.039   5.489   1.344 -2.0907  2.0022 -1.6680
   60MOL   H26425162   3.318   5.542   1.255 -0.9331  0.9739 -0.2611
   60MOL   H26525163   3.248   5.385   1.277  0.5898  0.0631 -0.6784
   60MOL   H26625164   3.248   5.575   1.498 -1.2271 -1.1297 -0.2812
   60MOL   H26725165   3.201   5.414   1.498 -2.8174  3.4511 -1.4992
   60MOL   H26825166   3.431   5.341   1.458 -0.6413  0.0076  0.6942
   60MOL   H26925167   3.448   5.463   1.593 -0.3592  1.7858 -0.6106
   60MOL   H27025168   3.506   5.526   1.307  1.6204 -2.0675  0.7700
   60MOL   H27125169   3.505   5.634   1.450  1.2601  0.7833  0.2544
   60MOL   H27225170   3.745   5.553   1.382 -1.3334  1.5487 -0.5707
   60MOL   H27325171   3.695   5.549   1.544 -2.7753  0.7661  0.2673
   60MOL   H27425172   3.709   5.401   1.442  0.8835  0.5205 -0.6222
   60MOL   C27525173   3.064   5.499   1.129  0.4944  0.0106 -0.0758
   60MOL   C27625174   2.946   5.393   1.109 -0.3397  0.5634 -0.2193
   60MOL   C27725175   2.810   5.443   1.175 -0.1045  0.1476 -0.1072
   60MOL   C27825176   2.695   5.356   1.144  0.0925  0.1494 -0.0166
   60MOL   C27925177   2.559   5.427   1.160  0.1841  0.9128 -0.0165
   60MOL   C28025178   2.447   5.335   1.110 -0.1972 -0.0715 -0.3033
   60MOL   C28125179   2.306   5.388   1.111 -0.3017  0.0105 -1.0417
   60MOL   H28225180   3.144   5.473   1.059 -1.3180 -0.7005 -1.9446
   60MOL   H28325181   3.037   5.594   1.082 -1.3947  0.4603  1.8154
   60MOL   H28425182   2.926   5.389   1.001  0.0188 -0.4674 -0.2489
   60MOL   H28525183   2.819   5.455   1.283  1.2288 -0.7763 -0.1051
   60MOL   H28625184   2.794   5.541   1.130 -0.4769 -0.5128 -1.4371
   60MOL   H28725185   2.702   5.269   1.209 -2.2107 -3.5882 -4.4620
   60MOL   H28825186   2.711   5.313   1.045 -0.6551  0.0712 -0.1116
   60MOL   H28925187   2.556   5.507   1.086 -2.1986 -1.6047 -2.7887
   60MOL   H29025188   2.545   5.463   1.262  1.1573 -0.8345  0.7701
   60MOL   H29125189   2.466   5.298   1.010  1.2292  0.8885 -0.3982
   60MOL   H29225190   2.438   5.240   1.165 -1.3478  0.1514 -0.0969
   60MOL   H29325191   2.320   5.496   1.110 -0.4116  0.0286 -0.6613
   60MOL   H29425192   2.263   5.378   1.211  2.0328 -0.5203 -0.0581
   60MOL   H29525193   2.233   5.362   1.035 -1.4146  2.2930 -0.7759
   60MOL   C29625194   2.991   5.256   1.164 -0.1385  0.0515  0.2862
   60MOL   C29725195   3.020   5.135   1.065  0.0434 -0.7055 -0.1266
   60MOL   C29825196   3.122   5.169   0.957 -0.3463 -0.2313  0.2516
   60MOL   C29925197   3.268   5.180   1.006  0.1387 -0.6032  0.1219
   60MOL   C30025198   3.374   5.195   0.899 -0.9516 -0.9679 -0.0489
   60MOL   C30125199   3.521   5.171   0.955  0.0651  0.3441  0.1882
   60MOL   C30225200   3.630   5.195   0.850 -0.0911 -0.3407  0.1283
   60MOL   H30325201   3.089   5.268   1.210 -0.6125  1.4173  0.9786
   60MOL   H30425202   2.929   5.230   1.250 -1.0770 -2.5309 -1.1056
   60MOL   H30525203   3.065   5.051   1.119  0.6826  1.2192  2.4571
   60MOL   H30625204   3.106   5.089   0.885 -3.1627  1.0310 -0.6068
   60MOL   H30725205   3.105   5.258   0.896  1.2584  0.0088  0.1215
   60MOL   H30825206   3.288   5.092   1.067  1.4486  0.7528  1.7242
   60MOL   H30925207   3.273   5.270   1.067 -1.0866 -0.5903  0.2099
   60MOL   H31025208   3.358   5.289   0.847 -0.1131 -0.8669 -0.1440
   60MOL   H31125209   3.351   5.122   0.821  0.6407 -1.5855  0.0263
   60MOL   H31225210   3.535   5.239   1.039  0.2346  0.2682  0.2201
   60MOL   H31325211   3.529   5.069   0.992  1.0358 -0.0585 -1.1060
   60MOL   H31425212   3.727   5.149   0.870  0.8528  1.2586 -0.6167
   60MOL   H31525213   3.607   5.147   0.754  1.0698  0.6329 -0.6534
   60MOL   H31625214   3.652   5.300   0.829  1.0097 -0.8512 -1.3940
   60MOL   C31725215   2.889   5.078   1.007 -0.0767 -0.5439  0.3910
   60MOL   C31825216   2.887   4.938   0.952 -0.3142 -0.2171  0.4677
   60MOL   C31925217   2.882   4.829   1.053 -0.2213 -0.0488  0.4911
   60MOL   C32025218   2.944   4.702   1.000 -0.7814 -0.0786 -0.6539
   60MOL   C32125219   2.885   4.576   1.074 -0.2071  0.5609 -0.2272
   60MOL   C32225220   2.966   4.452   1.026  0.3702 -0.5455 -0.1396
   60MOL   C32325221   2.919   4.320   1.076  0.1450 -0.3548  0.2849
   60MOL   H32425222   2.842   5.144   0.935  0.9575 -1.9969 -1.6700
   60MOL   H32525223   2.815   5.082   1.086 -1.0154 -1.2763 -0.4409
   60MOL   H32625224   2.984   4.933   0.902 -0.8088  2.1282 -0.8034
   60MOL   H32725225   2.778   4.813   1.084  0.3325 -0.9648  1.9575
   60MOL   H32825226   2.934   4.865   1.142  0.1607  0.1821  0.1755
   60MOL   H32925227   3.049   4.709   1.029 -0.6812  0.2078 -1.0904
   60MOL   H33025228   2.940   4.702   0.892  1.0221 -0.4405 -0.7485
   60MOL   H33125229   2.778   4.569   1.054 -0.2612  3.1926 -1.0117
   60MOL   H33225230   2.883   4.592   1.181 -0.1919 -0.3670 -0.0842
   60MOL   H33325231   3.072   4.464   1.045  0.4359  0.3416 -1.0780
   60MOL   H33425232   2.959   4.446   0.918  0.3862 -0.1809 -0.1589
   60MOL   H33525233   2.988   4.241   1.046 -0.0269 -0.3709 -0.0626
   60MOL   H33625234   2.823   4.309   1.025  1.2177 -0.8459 -1.6359
   60MOL   H33725235   2.904   4.322   1.184 -0.0774 -3.7253  0.3685
   60MOL   C33825236   2.783   4.934   0.838 -0.4823  0.8898 -0.2756
   60MOL   C33925237   2.821   4.985   0.700 -0.3128  0.0605  0.9872
   60MOL   C34025238   2.690   5.010   0.621 -0.0825 -0.4226 -0.1194
   60MOL   C34125239   2.623   5.146   0.660 -0.6483  0.1286  0.4412
   60MOL   C34225240   2.487   5.156   0.602  0.6970  0.2035  0.2963
   60MOL   C34325241   2.408   5.279   0.646  0.3635  0.2275  0.4166
   60MOL   C34425242   2.260   5.277   0.604  0.1539  0.1444  0.0633
   60MOL   H34525243   2.698   4.982   0.887 -0.2939  1.9811 -1.0146
   60MOL   H34625244   2.752   4.829   0.840 -0.4704  0.8518 -1.9501
   60MOL   H34725245   2.885   5.073   0.708  1.3863 -0.9180 -1.4950
   60MOL   H34825246   2.713   5.011   0.514  1.1455 -0.0283  0.1412
   60MOL   H34925247   2.610   4.937   0.632 -2.0893  1.5868 -0.8209
   60MOL   H35025248   2.693   5.224   0.628  0.6220 -0.8256  0.8485
   60MOL   H35125249   2.623   5.148   0.769 -3.1076 -0.2782  0.4773
   60MOL   H35225250   2.500   5.156   0.494  2.4629 -0.1453  0.4895
   60MOL   H35325251   2.425   5.069   0.623  1.2795 -0.3245 -0.1399
   60MOL   H35425252   2.412   5.294   0.754 -0.6036  1.7468  0.2569
   60MOL   H35525253   2.451   5.364   0.594  0.1639 -0.2239 -0.4952
   60MOL   H35625254   2.202   5.197   0.652 -0.4348  0.9872  0.7667
   60MOL   H35725255   2.262   5.276   0.495 -0.9315  1.5705  0.0207
   60MOL   H35825256   2.205   5.367   0.630 -2.8778 -1.6358  0.0456
   60MOL   C35925257   2.908   4.874   0.631 -0.4406 -0.4694 -0.4778
   60MOL   C36025258   2.982   4.923   0.505  0.3109  0.4856  0.2976
   60MOL   C36125259   3.108   5.004   0.546  0.9614 -0.7249 -0.3033
   60MOL   C36225260   3.164   5.087   0.432  0.6551 -0.0243  0.0212
   60MOL   C36325261   3.311   5.148   0.447 -0.3814  0.1282  0.1644
   60MOL   C36425262   3.349   5.254   0.335  0.0434  0.1952 -0.3265
   60MOL   C36525263   3.340   5.194   0.198  0.2466  0.4836  0.4280
   60MOL   H36625264   2.851   4.782   0.619 -0.3013 -0.5549 -0.4820
   60MOL   H36725265   2.988   4.847   0.699  0.9439 -0.0139 -1.8889
   60MOL   H36825266   2.916   4.995   0.456  1.6611  2.6431  1.5620
   60MOL   H36925267   3.088   5.077   0.624  2.1199 -0.2172 -0.4820
   60MOL   H37025268   3.185   4.936   0.583  2.0129  0.9687  0.6689
   60MOL   H37125269   3.167   5.028   0.340  1.7679 -1.0160  0.6731
   60MOL   H37225270   3.097   5.166   0.400  0.1406 -1.1850 -1.8891
   60MOL   H37325271   3.316   5.201   0.542 -1.9653  3.2993 -1.4487
   60MOL   H37425272   3.384   5.068   0.435 -0.3456  0.0149  1.0986
   60MOL   H37525273   3.283   5.341   0.335  0.8339  0.8025 -0.9363
   60MOL   H37625274   3.448   5.289   0.362 -0.2996  1.4936 -0.7032
   60MOL   H37725275   3.344   5.275   0.124 -1.6117 -2.2476 -2.7957
   60MOL   H37825276   3.418   5.128   0.159  0.3883  0.3209  0.9951
   60MOL   H37925277   3.244   5.149   0.176 -0.1590  2.5919 -2.5156
   60MOL   C38025278   3.016   4.805   0.419  0.8898 -0.4942  0.3221
   60MOL   C38125279   2.938   4.802   0.287  0.3198  1.0266  0.1664
   60MOL   C38225280   2.789   4.810   0.301  0.2806 -0.5661  0.3202
   60MOL   C38325281   2.699   4.725   0.202 -0.8911  0.5164  0.0611
   60MOL   C38425282   2.550   4.745   0.217  0.1747 -1.0989  0.2891
   60MOL   C38525283   2.501   4.885   0.174 -0.1296 -0.3788  0.4329
   60MOL   C38625284   2.354   4.909   0.205 -0.6392 -0.0657 -0.0783
   60MOL   H38725285   3.124   4.802   0.402  1.3276  0.2730  2.8158
   60MOL   H38825286   3.007   4.713   0.477 -1.2303 -2.0391 -2.3626
   60MOL   H38925287   2.959   4.702   0.248 -0.4657  1.0351 -0.2869
   60MOL   H39025288   2.758   4.914   0.290  0.2691 -0.7494 -1.5426
   60MOL   H39125289   2.764   4.784   0.404 -0.8142 -1.7604 -0.2258
   60MOL   H39225290   2.729   4.715   0.098 -0.8682 -1.2159  0.2236
   60MOL   H39325291   2.709   4.622   0.237  2.9867  0.6781 -0.3745
   60MOL   H39425292   2.496   4.664   0.169 -2.1434  0.9957 -0.7566
   60MOL   H39525293   2.518   4.748   0.321 -0.0981  0.6686  0.1801
   60MOL   H39625294   2.527   4.905   0.070  2.6126 -0.7736  1.0151
   60MOL   H39725295   2.554   4.964   0.226 -0.1510 -1.8325  2.7460
   60MOL   H39825296   2.323   5.013   0.196  0.4998  0.2760 -0.2414
   60MOL   H39925297   2.330   4.881   0.307  4.6484 -2.4691  0.6705
   60MOL   H40025298   2.291   4.839   0.150 -0.2771 -1.8845  1.7705
   60MOL   C40125299   3.006   4.891   0.182 -0.2358  0.1174  0.3307
   60MOL   C40225300   2.938   4.884   0.039  0.6989  0.2756  0.3290
   60MOL   C40325301   3.013   4.979   7.656 -0.2049  0.0709  0.7927
   60MOL   C40425302   2.963   4.980   7.511 -0.3943  0.6170 -0.2655
   60MOL   C40525303   2.998   4.844   7.441  0.8595  0.1131  0.0804
   60MOL   C40625304   2.960   4.851   7.294 -0.1142  0.0395  0.5287
   60MOL   C40725305   2.968   4.722   7.220 -0.7521 -0.8009  0.4570
   60MOL   H40825306   3.115   4.884   0.171 -0.4878 -0.4172 -2.2113
   60MOL   H40925307   2.987   4.996   0.202 -1.8543 -0.7052  3.3091
   60MOL   H41025308   2.836   4.921   0.041 -0.4429 -2.5541 -2.3853
   60MOL   H41125309   3.121   4.963   7.654 -0.3342 -0.8363  0.6479
   60MOL   H41225310   2.995   5.081   7.691 -0.2488  0.0003  0.9757
   60MOL   H41325311   3.008   5.061   7.454  0.7242 -0.4780 -0.9757
   60MOL   H41425312   2.856   4.997   7.516 -0.0610  2.7690 -0.1907
   60MOL   H41525313   3.106   4.830   7.439  0.7792 -0.3658 -1.1520
   60MOL   H41625314   2.955   4.751   7.478 -0.2127  0.8031  0.6036
   60MOL   H41725315   2.855   4.877   7.286 -0.0819  0.0037 -0.0397
   60MOL   H41825316   3.016   4.929   7.243 -2.3525  0.9576 -0.5698
   60MOL   H41925317   2.905   4.645   7.266 -1.0697 -0.3603  0.7702
   60MOL   H42025318   3.072   4.689   7.218  0.4503  2.7444 -0.1357
   60MOL   H42125319   2.945   4.740   7.115  3.0945  1.6026 -0.0906
   60MOL   H42225320   2.946   4.782   0.002  0.1712 -0.0935  1.1873
   61MOL     C125321   1.413   6.524   3.811  0.3587  0.2255 -0.6762
   61MOL     C225322   1.541   6.601   3.847  0.3427 -0.8914  0.2886
   61MOL     C325323   1.558   6.720   3.752 -0.0565 -0.2299 -0.5648
   61MOL     C425324   1.656   6.827   3.805 -0.1100 -0.1861  0.6425
   61MOL     C525325   1.615   6.904   3.929  0.0578  0.4493 -0.3713
   61MOL     C625326   1.706   7.003   3.988  0.2025  0.6598 -0.2778
   61MOL     C725327   1.656   7.047   4.127 -0.7432  0.7220  1.0832
   61MOL     H825328   1.431   6.479   3.713 -1.0141 -0.6445 -0.5516
   61MOL     H925329   1.323   6.585   3.802  0.1488 -0.1225 -1.0029
   61MOL    H1025330   1.508   6.640   3.943 -0.9930  2.1523 -1.3427
   61MOL    H1125331   1.591   6.686   3.654  1.7174  0.9627 -0.4041
   61MOL    H1225332   1.468   6.767   3.714 -0.0181 -0.1046 -0.5001
   61MOL    H1325333   1.755   6.784   3.825  0.0114  0.8323  2.4235
   61MOL    H1425334   1.677   6.893   3.721 -2.0502  0.5598  0.7295
   61MOL    H1525335   1.610   6.830   4.009 -2.4674 -0.1172 -1.0040
   61MOL    H1625336   1.517   6.948   3.918 -0.1456  0.2740  0.6857
   61MOL    H1725337   1.708   7.091   3.923  1.5445  0.2524 -0.8150
   61MOL    H1825338   1.803   6.956   4.002 -0.5496 -0.4719  1.1373
   61MOL    H1925339   1.556   7.088   4.112 -0.3814  0.9699 -0.8430
   61MOL    H2025340   1.717   7.128   4.166  1.4007 -0.0727 -0.4691
   61MOL    H2125341   1.647   6.974   4.207  1.4802  0.4469  1.1275
   61MOL    H2225342   1.387   6.438   3.872 -2.0778 -0.6033 -2.7494
   61MOL    C2325343   1.660   6.504   3.861 -0.6868  0.5912  0.6840
   61MOL    C2425344   1.659   6.410   3.995  0.2207 -0.1763  0.1258
   61MOL    C2525345   1.650   6.485   4.130  0.0652  0.3416  0.1480
   61MOL    C2625346   1.778   6.563   4.167  0.0045  0.3135  0.0331
   61MOL    C2725347   1.761   6.669   4.274  0.0990 -0.6830  0.2375
   61MOL    C2825348   1.889   6.753   4.292  0.0927 -0.5426  0.6584
   61MOL    C2925349   1.889   6.835   4.414 -0.0108  0.4795 -0.1645
   61MOL    H3025350   1.645   6.430   3.783  1.4094 -0.2318  1.0244
   61MOL    H3125351   1.758   6.552   3.855 -0.6846  0.4965 -0.0646
   61MOL    H3225352   1.571   6.348   3.977  0.3783 -0.4529  0.3059
   61MOL    H3325353   1.623   6.414   4.208  0.6223 -2.9675 -2.5281
   61MOL    H3425354   1.562   6.549   4.134 -1.5284 -1.8372  1.1377
   61MOL    H3525355   1.796   6.630   4.083  2.0468  1.9854  1.7349
   61MOL    H3625356   1.860   6.496   4.190 -1.0752 -0.7995  0.7514
   61MOL    H3725357   1.728   6.631   4.370  1.8402 -1.3291  0.6045
   61MOL    H3825358   1.677   6.729   4.238  0.4108 -0.6545 -0.4590
   61MOL    H3925359   1.903   6.820   4.207 -1.2169 -0.3472  0.5957
   61MOL    H4025360   1.976   6.687   4.291 -1.4701 -2.6593 -1.4832
   61MOL    H4125361   1.808   6.908   4.413 -0.3639  0.0888 -0.2434
   61MOL    H4225362   1.901   6.776   4.506 -0.5397  0.5820 -0.0289
   61MOL    H4325363   1.971   6.907   4.407  0.0905  0.4931  1.0765
   61MOL    C4425364   1.773   6.311   4.001 -0.3051  0.0787  0.4976
   61MOL    C4525365   1.761   6.187   4.095 -0.0451  0.5774  0.4312
   61MOL    C4625366   1.623   6.104   4.069 -0.3933  0.5127  0.3128
   61MOL    C4725367   1.602   6.074   3.914 -0.2316 -0.0547 -0.8704
   61MOL    C4825368   1.495   5.974   3.888  0.4573  0.8190 -0.5068
   61MOL    C4925369   1.478   5.951   3.738  0.4203  0.4292  0.4429
   61MOL    C5025370   1.395   5.828   3.702 -0.4165  0.5008  0.3765
   61MOL    H5125371   1.869   6.356   4.025 -0.4396  0.4972  0.2447
   61MOL    H5225372   1.790   6.279   3.898 -1.6660 -1.8130  0.8237
   61MOL    H5325373   1.767   6.226   4.196 -0.2538  1.5331  0.0791
   61MOL    H5425374   1.536   6.159   4.105 -1.4123  0.6293 -2.2709
   61MOL    H5525375   1.615   6.007   4.118 -1.5297  0.1273 -0.6409
   61MOL    H5625376   1.576   6.164   3.860 -0.9204  0.3921  0.1804
   61MOL    H5725377   1.694   6.034   3.871  0.8115 -1.2180  2.2780
   61MOL    H5825378   1.404   5.998   3.943 -2.7717 -1.9836 -4.3140
   61MOL    H5925379   1.525   5.882   3.938 -0.6565  0.3974 -0.5850
   61MOL    H6025380   1.576   5.934   3.695  0.0923 -0.2128 -0.0525
   61MOL    H6125381   1.435   6.043   3.698  1.5397  0.7772  0.0160
   61MOL    H6225382   1.391   5.804   3.596  3.2897  2.7405 -0.3357
   61MOL    H6325383   1.294   5.829   3.743 -0.2500  1.5950  0.7674
   61MOL    H6425384   1.442   5.742   3.751 -3.0073 -1.2236 -0.0197
   61MOL    C6525385   1.889   6.095   4.076  0.3714  0.2167 -0.7415
   61MOL    C6625386   1.969   6.061   4.205  0.1353 -0.8945  0.5588
   61MOL    C6725387   1.871   5.986   4.293 -0.3907 -0.1003 -0.2860
   61MOL    C6825388   1.940   5.876   4.378 -0.3745 -0.4119 -0.3160
   61MOL    C6925389   1.856   5.835   4.497  0.6002 -0.2040 -0.2258
   61MOL    C7025390   1.734   5.757   4.452  0.5738 -0.2832  0.6700
   61MOL    C7125391   1.654   5.709   4.570  0.0256  1.0397  1.0829
   61MOL    H7225392   1.865   5.998   4.033 -1.8124  0.7199 -0.7199
   61MOL    H7325393   1.970   6.143   4.020  1.0925 -0.8740 -0.6481
   61MOL    H7425394   2.032   5.976   4.177  1.5061 -0.0080  0.9107
   61MOL    H7525395   1.815   6.057   4.355  1.8537 -0.0039  1.6918
   61MOL    H7625396   1.795   5.933   4.236  0.1341 -1.5632  0.3508
   61MOL    H7725397   1.982   5.789   4.327  3.2766  0.5678  0.8411
   61MOL    H7825398   2.032   5.923   4.414 -0.7416  0.8631 -1.0410
   61MOL    H7925399   1.914   5.777   4.568  0.2010  0.1085  0.3609
   61MOL    H8025400   1.835   5.929   4.548 -0.9780  0.4446 -1.9786
   61MOL    H8125401   1.758   5.677   4.382  0.2761 -1.0017  1.3756
   61MOL    H8225402   1.674   5.826   4.392  1.2969 -2.2745 -2.4984
   61MOL    H8325403   1.554   5.677   4.538  1.1845 -0.7017 -0.9596
   61MOL    H8425404   1.708   5.635   4.629 -1.7023  0.2897  1.7764
   61MOL    H8525405   1.633   5.789   4.640  1.0305 -0.6626  3.3882
   61MOL    C8625406   2.045   6.167   4.279 -0.2904 -0.2804  0.0596
   61MOL    C8725407   2.189   6.199   4.221 -0.6222 -0.7409  0.0469
   61MOL    C8825408   2.269   6.306   4.296  0.1793 -0.0740  0.3960
   61MOL    C8925409   2.223   6.451   4.278 -0.1654  0.4489 -0.2847
   61MOL    C9025410   2.323   6.550   4.342 -0.0360 -0.3885  0.0744
   61MOL    C9125411   2.260   6.692   4.347 -0.1046 -0.8103  0.0345
   61MOL    C9225412   2.368   6.790   4.394  0.2934 -0.2694 -0.1041
   61MOL    H9325413   1.994   6.263   4.288 -0.2261 -0.3117  0.8241
   61MOL    H9425414   2.060   6.143   4.384 -0.1623 -0.5227 -0.0150
   61MOL    H9525415   2.172   6.227   4.117  1.1581  0.4025  0.0519
   61MOL    H9625416   2.293   6.284   4.401 -0.6894  1.2148  0.8729
   61MOL    H9725417   2.371   6.290   4.263 -0.2306 -1.5305 -0.2021
   61MOL    H9825418   2.210   6.477   4.173  0.0234  1.1257 -0.1415
   61MOL    H9925419   2.124   6.458   4.322 -0.2224  1.2538 -0.5334
   61MOL   H10025420   2.417   6.556   4.286  0.4600 -2.8504  0.5644
   61MOL   H10125421   2.340   6.514   4.443  0.2090 -0.0080  0.1679
   61MOL   H10225422   2.218   6.730   4.254 -0.3072  0.4039  0.6214
   61MOL   H10325423   2.186   6.689   4.427 -0.7098 -1.4727 -0.5419
   61MOL   H10425424   2.454   6.744   4.441  0.1993 -1.1203 -0.7472
   61MOL   H10525425   2.329   6.857   4.471 -0.6467 -1.0003  0.0690
   61MOL   H10625426   2.410   6.848   4.311 -0.4861  3.3027  1.8780
   61MOL   C10725427   2.279   6.077   4.221 -0.6090 -0.2698  0.2586
   61MOL   C10825428   2.336   6.023   4.082 -0.3681  0.5172  0.8554
   61MOL   C10925429   2.426   6.136   4.019 -0.9409 -0.6695  0.3167
   61MOL   C11025430   2.440   6.130   3.861  0.3452 -0.3326  0.4608
   61MOL   C11125431   2.524   6.242   3.798  0.8998 -0.2239 -0.5544
   61MOL   C11225432   2.532   6.224   3.647 -0.3661  0.0567 -0.4312
   61MOL   C11325433   2.627   6.316   3.574  0.4276  0.7669  0.9435
   61MOL   H11425434   2.230   5.988   4.261  3.8847 -1.6434  3.0465
   61MOL   H11525435   2.362   6.095   4.289 -0.0991 -1.8385  0.0655
   61MOL   H11625436   2.262   6.004   4.005  1.3130  0.4363 -0.7912
   61MOL   H11725437   2.523   6.135   4.070  0.2458 -1.5295 -1.8560
   61MOL   H11825438   2.390   6.236   4.042  0.8874  0.6823 -2.4912
   61MOL   H11925439   2.494   6.041   3.830 -1.1790  0.0963 -3.8250
   61MOL   H12025440   2.336   6.124   3.828  0.6236 -1.5594 -0.2196
   61MOL   H12125441   2.627   6.247   3.835  0.7390  0.8784 -0.2316
   61MOL   H12225442   2.480   6.337   3.827  0.7632 -0.3071 -0.4903
   61MOL   H12325443   2.570   6.127   3.615 -0.4365  0.0340 -0.4450
   61MOL   H12425444   2.438   6.225   3.592 -0.5454 -2.4709 -0.2348
   61MOL   H12525445   2.629   6.305   3.466  3.3114 -2.1238  1.2037
   61MOL   H12625446   2.595   6.419   3.591 -1.7113  0.4414 -1.0282
   61MOL   H12725447   2.730   6.318   3.612  0.7400  1.7722  0.0625
   61MOL   C12825448   2.411   5.895   4.105  0.2144 -0.1500 -0.4239
   61MOL   C12925449   2.325   5.764   4.114 -0.0153 -0.2187  0.3092
   61MOL   C13025450   2.343   5.671   4.233  0.0701  0.4713  0.3000
   61MOL   C13125451   2.482   5.606   4.231 -0.1898 -0.1801  0.1975
   61MOL   C13225452   2.525   5.529   4.355  0.1468  0.1349 -0.1029
   61MOL   C13325453   2.579   5.605   4.480 -0.0215  0.2983 -0.0093
   61MOL   C13425454   2.566   5.521   4.609  0.5933 -0.0383  0.8407
   61MOL   H13525455   2.479   5.877   4.021 -0.1592 -0.5706 -0.6358
   61MOL   H13625456   2.484   5.903   4.186  0.5192 -0.2027 -0.6918
   61MOL   H13725457   2.225   5.807   4.118  0.7103  1.4607  1.2396
   61MOL   H13825458   2.268   5.592   4.228  2.1134 -1.3649 -2.4317
   61MOL   H13925459   2.314   5.717   4.328 -0.4769 -0.7736  0.7565
   61MOL   H14025460   2.560   5.680   4.209 -0.5443  0.1819  0.1526
   61MOL   H14125461   2.487   5.538   4.146  0.5993 -3.7983  3.0259
   61MOL   H14225462   2.593   5.445   4.338 -0.3242 -0.0681 -1.0079
   61MOL   H14325463   2.433   5.474   4.378 -1.6533  3.4626  0.9021
   61MOL   H14425464   2.525   5.700   4.484 -0.2999  0.1533 -0.3106
   61MOL   H14525465   2.687   5.616   4.477 -0.1339  1.6689  0.2997
   61MOL   H14625466   2.588   5.570   4.703  1.7789 -2.8840  2.0909
   61MOL   H14725467   2.626   5.430   4.606 -0.1481 -0.5453  1.2387
   61MOL   H14825468   2.463   5.487   4.620  0.2527  0.4938 -0.5527
   61MOL   C14925469   2.323   5.682   3.974  0.6726 -0.0901 -0.1119
   61MOL   C15025470   2.276   5.762   3.847 -0.1509  0.1319 -0.7661
   61MOL   C15125471   2.128   5.815   3.860 -0.0884 -0.5674 -0.7190
   61MOL   C15225472   2.028   5.701   3.862  0.2070  0.1843 -0.5863
   61MOL   C15325473   1.888   5.732   3.889  0.3540 -0.5766 -0.5454
   61MOL   C15425474   1.798   5.609   3.899  0.5162  0.3423  0.1139
   61MOL   C15525475   1.797   5.540   4.037 -0.2621 -0.2227  1.0827
   61MOL   H15625476   2.422   5.640   3.955 -0.0069 -2.0621  0.5895
   61MOL   H15725477   2.260   5.593   3.980  1.1615 -0.4839 -0.6298
   61MOL   H15825478   2.336   5.853   3.850 -0.1298  0.0933  0.1290
   61MOL   H15925479   2.105   5.878   3.946  0.6844 -1.3483  0.0580
   61MOL   H16025480   2.088   5.867   3.772 -2.6780 -2.1824 -0.5377
   61MOL   H16125481   2.061   5.630   3.938 -1.5462 -0.9231 -0.8178
   61MOL   H16225482   2.032   5.650   3.765  0.9664 -1.6013  0.3610
   61MOL   H16325483   1.866   5.776   3.791  1.4610  0.4483 -0.3445
   61MOL   H16425484   1.863   5.810   3.961 -1.8497 -1.1728 -0.6115
   61MOL   H16525485   1.827   5.540   3.820  1.2684 -1.5506  1.9878
   61MOL   H16625486   1.693   5.630   3.876  0.4144  0.9099  1.0484
   61MOL   H16725487   1.902   5.510   4.048  0.1742  0.6232 -0.6445
   61MOL   H16825488   1.735   5.451   4.027 -0.1108 -0.4104  1.7769
   61MOL   H16925489   1.753   5.609   4.109  2.6111  0.3755  2.3347
   61MOL   C17025490   2.300   5.682   3.714 -0.5403 -0.3969 -1.1194
   61MOL   C17125491   2.447   5.671   3.667  0.1083 -0.2661 -0.2014
   61MOL   C17225492   2.455   5.588   3.542 -1.1260 -0.2945 -0.2128
   61MOL   C17325493   2.382   5.633   3.415  0.8203  0.4235 -0.3355
   61MOL   C17425494   2.420   5.557   3.289  1.0106  0.5501 -0.6571
   61MOL   C17525495   2.304   5.584   3.176  0.4111  0.0219  0.4347
   61MOL   C17625496   2.320   5.499   3.055  0.0765  0.2069 -1.0966
   61MOL   H17725497   2.248   5.745   3.642 -1.1089  0.6243  0.1551
   61MOL   H17825498   2.258   5.582   3.713 -0.8130 -0.3664  1.9720
   61MOL   H17925499   2.504   5.610   3.737 -1.3701 -0.9747  0.3936
   61MOL   H18025500   2.427   5.484   3.558  2.1259 -1.3999 -1.2711
   61MOL   H18125501   2.563   5.574   3.531 -0.5570  1.6989  2.1722
   61MOL   H18225502   2.395   5.738   3.388 -0.1305  0.3164 -1.2432
   61MOL   H18325503   2.275   5.620   3.431  0.6044  1.0862 -1.1577
   61MOL   H18425504   2.419   5.449   3.306  0.2896  0.7667  0.7140
   61MOL   H18525505   2.521   5.574   3.253  0.5425  0.2787 -2.1663
   61MOL   H18625506   2.305   5.691   3.155  0.4229 -0.0118  0.2691
   61MOL   H18725507   2.202   5.566   3.212 -0.8691  0.5674 -2.7748
   61MOL   H18825508   2.239   5.506   2.982 -0.6040  0.7404 -0.3041
   61MOL   H18925509   2.313   5.397   3.093 -1.7177  0.5294 -0.5042
   61MOL   H19025510   2.419   5.517   3.013 -0.1951 -1.2597 -2.4167
   61MOL   C19125511   2.522   5.804   3.645  0.4555  0.3898 -0.0495
   61MOL   C19225512   2.671   5.795   3.689  0.2117  0.0239  0.5756
   61MOL   C19325513   2.777   5.890   3.625  0.0094 -0.2734  0.4312
   61MOL   C19425514   2.778   5.864   3.471  0.3169 -0.1497  0.5741
   61MOL   C19525515   2.860   5.975   3.396 -0.2108 -0.1665  0.3811
   61MOL   C19625516   2.816   5.998   3.247 -0.4684  0.0106 -0.6135
   61MOL   C19725517   2.903   6.100   3.182  0.2973 -0.5348  0.5655
   61MOL   H19825518   2.462   5.883   3.691 -2.2464 -1.7672  0.2481
   61MOL   H19925519   2.511   5.839   3.542  0.5684 -1.4620 -0.6985
   61MOL   H20025520   2.696   5.694   3.657  0.9707 -0.0915  1.5058
   61MOL   H20125521   2.879   5.884   3.663  0.0710  0.8716  0.4657
   61MOL   H20225522   2.746   5.989   3.660  1.9902  0.6552 -0.3581
   61MOL   H20325523   2.678   5.871   3.428  1.1225 -2.1218 -1.7427
   61MOL   H20425524   2.823   5.766   3.452 -0.3477 -0.2562 -0.4721
   61MOL   H20525525   2.869   6.071   3.447  3.1035 -0.3311  0.2532
   61MOL   H20625526   2.965   5.945   3.403 -0.1487  0.0535  0.3803
   61MOL   H20725527   2.716   6.040   3.257  0.5996  2.3709  0.5060
   61MOL   H20825528   2.809   5.904   3.193  3.8037  0.4861 -2.1567
   61MOL   H20925529   3.008   6.082   3.208  0.9842  1.4109 -0.8277
   61MOL   H21025530   2.865   6.197   3.213 -1.3029 -1.3568  1.2692
   61MOL   H21125531   2.892   6.096   3.074  2.2813  3.1988  0.1685
   61MOL   C21225532   2.682   5.805   3.843 -0.9473  0.1653  0.1507
   61MOL   C21325533   2.811   5.756   3.914  0.1639 -0.2111  0.5274
   61MOL   C21425534   2.824   5.784   4.060  0.2638 -0.2939 -0.4064
   61MOL   C21525535   2.823   5.940   4.092 -1.1943 -0.1262 -0.7016
   61MOL   C21625536   2.853   5.967   4.243 -0.1199 -0.2375  0.1996
   61MOL   C21725537   2.725   5.949   4.329  0.1087 -0.3014  0.1088
   61MOL   C21825538   2.754   5.980   4.476  0.9078  0.6885 -0.4734
   61MOL   H21925539   2.604   5.739   3.883 -0.3525 -2.0431 -2.2065
   61MOL   H22025540   2.652   5.908   3.860 -1.2871 -0.2350  2.2097
   61MOL   H22125541   2.891   5.813   3.865  0.3589 -0.2737  0.7706
   61MOL   H22225542   2.740   5.730   4.103 -0.2397  0.1098 -0.8753
   61MOL   H22325543   2.912   5.743   4.109 -0.3107 -0.5375  0.4239
   61MOL   H22425544   2.733   5.982   4.048 -0.3897  0.6495 -1.6519
   61MOL   H22525545   2.904   5.992   4.039 -2.4333  0.5267 -1.9898
   61MOL   H22625546   2.935   5.907   4.284 -0.4414  1.0508  2.8373
   61MOL   H22725547   2.885   6.068   4.268 -2.9413  0.5906  0.5928
   61MOL   H22825548   2.658   6.022   4.284  1.7658  1.2710  0.1451
   61MOL   H22925549   2.682   5.849   4.320 -1.5716  0.5182 -1.2657
   61MOL   H23025550   2.823   5.914   4.529  0.8785  1.2815  0.3179
   61MOL   H23125551   2.658   5.969   4.526  1.2460  0.2994  0.0986
   61MOL   H23225552   2.796   6.079   4.494  0.0954  0.4544  3.0377
   61MOL   C23325553   2.845   5.611   3.887  0.0732  0.3823 -0.0081
   61MOL   C23425554   2.996   5.585   3.875  0.2835 -0.2571 -0.0923
   61MOL   C23525555   3.029   5.432   3.900 -0.3316  0.3892 -0.1775
   61MOL   C23625556   3.033   5.377   4.033  0.6533 -0.2880 -0.8377
   61MOL   C23725557   3.057   5.220   4.031 -0.4464 -0.4466 -0.9281
   61MOL   C23825558   2.939   5.137   3.987 -1.2213  0.0583 -0.4029
   61MOL   C23925559   2.949   4.979   3.999  0.7159 -0.5283  0.1055
   61MOL   H24025560   2.797   5.578   3.794  1.6409 -0.2401 -0.6125
   61MOL   H24125561   2.796   5.548   3.961 -2.7435 -0.6210 -2.5951
   61MOL   H24225562   3.044   5.650   3.949 -2.1269  1.8626 -0.3063
   61MOL   H24325563   3.130   5.424   3.861  0.2732  2.3368  0.9416
   61MOL   H24425564   2.972   5.373   3.829  1.1520 -0.2696 -0.8441
   61MOL   H24525565   2.931   5.393   4.069  1.4492  2.0136  0.4507
   61MOL   H24625566   3.109   5.426   4.094  0.6256 -1.4258  0.1245
   61MOL   H24725567   3.078   5.177   4.129 -2.3672 -3.1916 -1.6485
   61MOL   H24825568   3.135   5.204   3.957  0.5668  0.7010 -0.1312
   61MOL   H24925569   2.852   5.180   4.038 -0.3049  2.0841 -0.5188
   61MOL   H25025570   2.927   5.160   3.881 -1.9761  0.7569 -0.1755
   61MOL   H25125571   2.958   4.934   4.098  1.2252 -1.1843 -0.2369
   61MOL   H25225572   2.849   4.939   3.985  0.1216  1.3577 -1.1681
   61MOL   H25325573   3.032   4.943   3.938  1.7786 -0.9844  1.7856
   61MOL   C25425574   3.049   5.624   3.734  0.8747  0.3612 -0.4382
   61MOL   C25525575   3.206   5.627   3.723  0.3267 -0.1580 -0.4721
   61MOL   C25625576   3.273   5.722   3.822 -1.0269 -0.6487  0.9461
   61MOL   C25725577   3.211   5.870   3.818 -0.6869 -0.3449 -0.3563
   61MOL   C25825578   3.293   5.974   3.891 -0.2697 -0.3830  0.4269
   61MOL   C25925579   3.297   5.952   4.036 -0.3597  0.6191 -0.6967
   61MOL   C26025580   3.356   6.068   4.113 -0.4277  0.8910 -0.8146
   61MOL   H26125581   3.012   5.723   3.706 -3.8354 -1.3066 -0.5852
   61MOL   H26225582   3.006   5.546   3.671  0.2936 -0.2285  0.6916
   61MOL   H26325583   3.243   5.527   3.747  0.1075  0.1184  1.1272
   61MOL   H26425584   3.381   5.726   3.808 -0.8902 -1.8729  1.5268
   61MOL   H26525585   3.260   5.675   3.920 -0.5601 -1.2428  0.7264
   61MOL   H26625586   3.205   5.908   3.716  1.8255  0.6904 -0.1577
   61MOL   H26725587   3.112   5.868   3.864  0.0159  0.5183  1.2252
   61MOL   H26825588   3.255   6.075   3.871  1.5307  0.6551  2.0311
   61MOL   H26925589   3.394   5.977   3.850  0.3275  1.2976  1.9449
   61MOL   H27025590   3.197   5.929   4.074  0.7651 -0.2198  1.8810
   61MOL   H27125591   3.358   5.863   4.049 -1.2756  0.2150  1.0205
   61MOL   H27225592   3.301   6.157   4.083  1.1602  2.1268 -0.1100
   61MOL   H27325593   3.354   6.052   4.220 -0.8152  0.1517 -0.9256
   61MOL   H27425594   3.463   6.086   4.100 -0.4955  1.8786 -0.0557
   61MOL   C27525595   3.242   5.658   3.576  0.3269  0.3504  0.5411
   61MOL   C27625596   3.244   5.533   3.474 -0.0485  0.5330 -0.7793
   61MOL   C27725597   3.375   5.448   3.491 -0.7530  0.8627 -0.0974
   61MOL   C27825598   3.382   5.334   3.381  0.4439 -0.7051 -0.6139
   61MOL   C27925599   3.266   5.231   3.391 -0.1461  0.3033  0.0411
   61MOL   C28025600   3.266   5.171   3.528 -0.4144 -0.4820 -0.1256
   61MOL   C28125601   3.168   5.051   3.554 -0.1394 -0.0422 -0.0501
   61MOL   H28225602   3.342   5.700   3.584  1.0019 -1.2478  0.6092
   61MOL   H28325603   3.176   5.733   3.533 -1.5080 -0.9816  0.9152
   61MOL   H28425604   3.168   5.458   3.497  0.8532  0.2163  1.3249
   61MOL   H28525605   3.461   5.516   3.494  0.8293 -1.0263 -1.3786
   61MOL   H28625606   3.366   5.414   3.594  1.5420  0.1993 -0.0910
   61MOL   H28725607   3.481   5.294   3.402  0.9111 -0.8334 -2.9872
   61MOL   H28825608   3.392   5.379   3.283  0.7409 -1.0787 -0.7546
   61MOL   H28925609   3.272   5.157   3.311 -1.5834  0.4588 -0.2356
   61MOL   H29025610   3.169   5.277   3.375 -0.0394  0.1566 -1.0726
   61MOL   H29125611   3.368   5.140   3.548  0.0416  0.6639 -0.6297
   61MOL   H29225612   3.233   5.248   3.598  0.5457  1.0230 -1.2861
   61MOL   H29325613   3.165   5.009   3.654  1.7754  0.5151  0.2631
   61MOL   H29425614   3.188   4.970   3.483 -1.1024 -1.4953  1.3113
   61MOL   H29525615   3.066   5.088   3.546  0.0609  0.6270  0.4769
   61MOL   C29625616   3.237   5.596   3.334  0.5466  0.3863 -0.9479
   61MOL   C29725617   3.095   5.623   3.288  0.3743 -0.8074 -0.8666
   61MOL   C29825618   3.029   5.493   3.233 -0.2220 -0.0542 -0.2284
   61MOL   C29925619   2.876   5.486   3.215  0.2314 -0.3316  0.7688
   61MOL   C30025620   2.837   5.361   3.131 -0.2237  0.0982 -0.0217
   61MOL   C30125621   2.683   5.325   3.114 -0.3118 -0.1440  0.1850
   61MOL   C30225622   2.658   5.201   3.022  0.1287  0.2866 -0.1411
   61MOL   H30325623   3.297   5.687   3.335  0.2186  0.7516 -5.4146
   61MOL   H30425624   3.274   5.527   3.259 -0.4409 -0.1734 -0.9285
   61MOL   H30525625   3.038   5.659   3.374  1.5126  2.1271 -1.2872
   61MOL   H30625626   3.076   5.449   3.144  0.5044 -0.0528  0.1568
   61MOL   H30725627   3.036   5.420   3.314 -0.8606 -0.6296 -0.6822
   61MOL   H30825628   2.842   5.572   3.157  0.0222 -0.9598 -0.0516
   61MOL   H30925629   2.825   5.491   3.311  0.7507 -0.9345  1.0794
   61MOL   H31025630   2.891   5.273   3.166 -0.3470  0.0125 -0.0440
   61MOL   H31125631   2.869   5.383   3.029  0.0189 -1.3378 -0.2693
   61MOL   H31225632   2.636   5.296   3.208  0.7384 -2.5814 -0.0229
   61MOL   H31325633   2.639   5.417   3.074 -0.7176  0.8171  2.7433
   61MOL   H31425634   2.687   5.217   2.918  1.3265 -2.2859 -0.2292
   61MOL   H31525635   2.702   5.109   3.057 -1.8084 -0.9052 -0.7632
   61MOL   H31625636   2.550   5.186   3.017 -0.0169  1.2060  0.0593
   61MOL   C31725637   3.083   5.745   3.196 -0.3905  0.2922 -0.0037
   61MOL   C31825638   3.178   5.742   3.074 -0.7139 -0.4592  0.5007
   61MOL   C31925639   3.107   5.753   2.937 -0.4434 -0.5484  0.1072
   61MOL   C32025640   3.016   5.869   2.910 -0.5633 -0.9092 -0.3384
   61MOL   C32125641   2.977   5.862   2.755 -0.0790  0.6286 -0.5703
   61MOL   C32225642   2.880   5.973   2.715  0.1190 -0.7062 -1.0997
   61MOL   C32325643   2.737   5.945   2.751  0.1651  0.3642 -0.1072
   61MOL   H32425644   3.106   5.825   3.266  2.6893  1.0933 -1.8328
   61MOL   H32525645   2.986   5.749   3.147 -0.4953 -1.3269  0.0218
   61MOL   H32625646   3.235   5.650   3.059  1.1627  0.7037  0.2707
   61MOL   H32725647   3.051   5.659   2.930  1.0982 -1.3556 -1.8213
   61MOL   H32825648   3.183   5.739   2.860 -2.3950  0.1977 -2.0143
   61MOL   H32925649   3.064   5.962   2.939 -1.1759 -0.7983  0.3199
   61MOL   H33025650   2.925   5.846   2.964 -0.5407 -2.1621 -0.8148
   61MOL   H33125651   2.930   5.767   2.729  0.4827 -0.1837  1.2706
   61MOL   H33225652   3.063   5.866   2.688  0.4351 -2.6739 -0.2098
   61MOL   H33325653   2.883   5.980   2.607  3.2970 -1.4734 -1.1212
   61MOL   H33425654   2.915   6.069   2.754 -0.1774 -0.0979 -2.3065
   61MOL   H33525655   2.689   5.864   2.696  2.1190 -0.6864 -0.3317
   61MOL   H33625656   2.675   6.034   2.742 -0.3462 -0.0272 -0.5277
   61MOL   H33725657   2.729   5.921   2.857 -0.2860  4.2448  0.8005
   61MOL   C33825658   3.284   5.853   3.081 -0.3300 -1.2223 -0.4900
   61MOL   C33925659   3.403   5.844   2.980  0.3184  0.0874 -0.0172
   61MOL   C34025660   3.539   5.857   3.048  0.3097 -0.1247 -0.1575
   61MOL   C34125661   3.584   5.745   3.143 -1.2900 -0.2485 -0.4429
   61MOL   C34225662   3.728   5.757   3.207  0.5298  0.2986  0.5704
   61MOL   C34325663   3.759   5.890   3.285  0.5696  0.7111 -0.1161
   61MOL   C34425664   3.886   5.870   3.368 -0.4186 -0.1662 -0.1852
   61MOL   H34525665   3.325   5.863   3.182  1.3432 -0.4177 -1.2315
   61MOL   H34625666   3.240   5.951   3.065 -0.0438 -1.1188 -0.6355
   61MOL   H34725667   3.399   5.744   2.938  1.5126  0.4990 -1.1358
   61MOL   H34825668   3.611   5.860   2.965  0.2477  0.6626 -0.1927
   61MOL   H34925669   3.532   5.954   3.098 -0.3570  0.6430 -1.6932
   61MOL   H35025670   3.593   5.653   3.084  0.1590 -0.3571 -0.0919
   61MOL   H35125671   3.512   5.724   3.222 -1.2392  3.0972  0.5600
   61MOL   H35225672   3.754   5.664   3.257 -0.0371 -0.0218  0.2721
   61MOL   H35325673   3.798   5.752   3.124 -1.2788 -1.4954 -0.8876
   61MOL   H35425674   3.757   5.973   3.214 -1.0127 -0.2173 -1.1908
   61MOL   H35525675   3.669   5.910   3.343  1.6135 -0.0275  1.7960
   61MOL   H35625676   3.902   5.969   3.410 -1.0743 -0.5580  1.0258
   61MOL   H35725677   3.965   5.840   3.299 -1.2450  1.5818 -1.9461
   61MOL   H35825678   3.854   5.799   3.445 -2.3094 -0.6726 -1.4038
   61MOL   C35925679   3.381   5.946   2.866  0.2456  0.3016 -0.0716
   61MOL   C36025680   3.453   5.898   2.738 -0.6586  0.1345  0.1629
   61MOL   C36125681   3.357   5.818   2.640 -0.6514 -0.1183 -0.5336
   61MOL   C36225682   3.427   5.760   2.515  0.1183  0.1717 -0.2493
   61MOL   C36325683   3.342   5.654   2.433  0.2406  0.4068  0.4520
   61MOL   C36425684   3.421   5.614   2.306  0.5031  0.3665  0.6276
   61MOL   C36525685   3.362   5.499   2.237 -0.0759  0.3928 -0.7045
   61MOL   H36625686   3.401   6.048   2.896  0.9044 -0.0111  0.5749
   61MOL   H36725687   3.277   5.969   2.839 -0.3652  1.0531  2.7886
   61MOL   H36825688   3.536   5.832   2.766 -1.1971 -1.4027 -1.7481
   61MOL   H36925689   3.311   5.733   2.691 -2.6691  2.3973  2.0108
   61MOL   H37025690   3.271   5.879   2.613 -1.2201 -0.8609 -0.4095
   61MOL   H37125691   3.443   5.833   2.436 -0.5155  2.5843  1.7868
   61MOL   H37225692   3.527   5.727   2.542 -0.0180 -0.6163 -0.6738
   61MOL   H37325693   3.314   5.558   2.478  2.1324 -1.0154 -1.3001
   61MOL   H37425694   3.246   5.704   2.417  1.0826  2.3144  1.2598
   61MOL   H37525695   3.412   5.698   2.238 -0.5439 -1.1906 -1.2240
   61MOL   H37625696   3.527   5.590   2.312  1.1252  2.4887 -1.3121
   61MOL   H37725697   3.395   5.489   2.133  0.1800 -0.6875 -0.5204
   61MOL   H37825698   3.381   5.403   2.284 -0.0080 -0.1987 -1.9174
   61MOL   H37925699   3.254   5.512   2.240 -0.2254 -0.9617  0.0095
   61MOL   C38025700   3.519   6.024   2.666  0.6069 -0.1397  0.6416
   61MOL   C38125701   3.642   6.090   2.736  0.1236 -0.1827  0.0390
   61MOL   C38225702   3.761   5.993   2.744 -0.0482 -0.1404 -0.1986
   61MOL   C38325703   3.872   6.034   2.841  0.8561 -0.1771  0.3699
   61MOL   C38425704   3.988   5.938   2.840  0.3422 -0.8504  0.1055
   61MOL   C38525705   4.124   5.977   2.910  0.5731  0.3438  1.1116
   61MOL   C38625706   4.119   5.976   3.058 -0.2331 -0.2651  0.7870
   61MOL   H38725707   3.539   5.997   2.562  0.5294  0.5486  0.4492
   61MOL   H38825708   3.441   6.097   2.645 -1.3662 -2.3876 -0.0555
   61MOL   H38925709   3.622   6.127   2.837 -0.2609  0.8765 -0.4184
   61MOL   H39025710   3.801   5.990   2.642 -0.2640 -0.1354 -0.2830
   61MOL   H39125711   3.736   5.891   2.776  1.6390 -0.4980  0.0333
   61MOL   H39225712   3.911   6.130   2.808  1.4229 -0.3746  0.4672
   61MOL   H39325713   3.844   6.038   2.946 -3.0119  1.8206 -0.6638
   61MOL   H39425714   3.956   5.836   2.860  1.4924 -1.6053 -1.8030
   61MOL   H39525715   4.028   5.940   2.739  1.2027  1.0502  0.4477
   61MOL   H39625716   4.150   6.080   2.888 -1.2968  0.8896  1.3506
   61MOL   H39725717   4.208   5.918   2.872 -1.3327 -1.8405  0.1502
   61MOL   H39825718   4.196   6.046   3.088  0.5535  0.2365 -2.1991
   61MOL   H39925719   4.137   5.877   3.101 -0.7370 -0.7336 -0.0441
   61MOL   H40025720   4.026   6.011   3.103  1.5854  2.2420  2.6799
   61MOL   C40125721   3.696   6.212   2.651  0.2932  0.1751 -0.0099
   61MOL   C40225722   3.640   6.349   2.687 -0.2477  0.6250 -0.1379
   61MOL   C40325723   3.681   6.461   2.587  0.6525  0.3317  0.5893
   61MOL   C40425724   3.614   6.593   2.622  0.0758 -0.5940 -0.0288
   61MOL   C40525725   3.681   6.710   2.552  0.0216 -0.1659  0.1787
   61MOL   C40625726   3.605   6.782   2.444 -0.0570 -0.4236 -0.1448
   61MOL   C40725727   3.669   6.917   2.414 -0.7913  0.0870 -0.4436
   61MOL   H40825728   3.684   6.200   2.543  1.6093  1.5982 -0.3516
   61MOL   H40925729   3.805   6.221   2.653  0.7592 -4.5574  1.5978
   61MOL   H41025730   3.656   6.368   2.793 -0.2082  2.2882 -0.4347
   61MOL   H41125731   3.637   6.421   2.495  1.1678 -1.0545  0.9399
   61MOL   H41225732   3.788   6.478   2.578  0.6046  0.7549  0.8060
   61MOL   H41325733   3.614   6.597   2.731 -0.2613 -0.9919 -0.0114
   61MOL   H41425734   3.511   6.576   2.591 -0.1512 -1.5412  1.1738
   61MOL   H41525735   3.698   6.784   2.630  0.0152 -0.5961  0.5916
   61MOL   H41625736   3.778   6.672   2.518 -0.8942 -0.5866 -2.0820
   61MOL   H41725737   3.604   6.720   2.355 -2.8812 -4.0190  2.2280
   61MOL   H41825738   3.501   6.799   2.472  0.4355  2.8640 -0.1655
   61MOL   H41925739   3.678   6.965   2.512  4.1274 -1.3005 -0.0929
   61MOL   H42025740   3.611   6.992   2.360 -1.6307 -0.1078  0.1823
   61MOL   H42125741   3.765   6.896   2.367 -0.2951  0.7269  0.2597
   61MOL   H42225742   3.532   6.343   2.674 -0.4693  3.6865 -0.0663
   62MOL     C125743   0.153   0.139   1.830  0.4150 -0.2607 -0.4744
   62MOL     C225744   0.117   0.285   1.801  0.2699  0.1247 -0.0548
   62MOL     C325745   0.233   0.327   1.710  0.0580 -0.0889  0.6130
   62MOL     C425746   0.244   0.252   1.571 -0.0900  1.0919 -0.5686
   62MOL     C525747   0.325   0.333   1.467  0.9545 -0.2339 -1.1822
   62MOL     C625748   0.354   0.251   1.336  0.4179  0.0329 -0.0295
   62MOL     C725749   0.415   0.336   1.222 -0.7568 -0.4317  0.0051
   62MOL     H825750   0.261   0.121   1.831  0.3941 -0.3624  1.4316
   62MOL     H925751   0.122   0.082   1.743 -0.0561 -0.7309 -0.0025
   62MOL    H1025752   0.027   0.309   1.745 -0.2170  1.1615  1.1270
   62MOL    H1125753   0.214   0.430   1.682  1.6579 -0.1260 -0.7271
   62MOL    H1225754   0.329   0.326   1.761 -0.3991 -1.4318  1.4766
   62MOL    H1325755   0.275   0.150   1.592 -2.7613  0.1931 -0.8375
   62MOL    H1425756   0.144   0.228   1.537 -0.4950  2.0310 -0.0673
   62MOL    H1525757   0.413   0.383   1.507  0.9647 -2.2449  1.4191
   62MOL    H1625758   0.261   0.417   1.438 -0.4429 -0.1041  2.0031
   62MOL    H1725759   0.253   0.225   1.302  0.0136  2.0280 -0.4523
   62MOL    H1825760   0.408   0.158   1.350 -0.8336 -0.3914  2.1952
   62MOL    H1925761   0.516   0.367   1.250 -0.1478 -3.7564  1.7482
   62MOL    H2025762   0.354   0.424   1.198  0.3446  1.1727  2.7868
   62MOL    H2125763   0.419   0.284   1.127  1.7138  2.6749 -1.6903
   62MOL    H2225764   0.100   0.084   1.908 -0.5613  1.3120 -0.0007
   62MOL    C2325765   0.108   0.370   1.932  0.3773 -0.1990 -0.2280
   62MOL    C2425766   7.696   0.345   2.024  0.0355  0.1268 -0.6352
   62MOL    C2525767   7.585   0.451   2.007 -0.6973  0.1919  0.5304
   62MOL    C2625768   7.535   0.461   1.860  0.0379  0.0902 -0.3767
   62MOL    C2725769   7.408   0.546   1.861  0.7841  0.6071  0.4292
   62MOL    C2825770   7.275   0.476   1.880 -0.9896 -0.2267  0.4716
   62MOL    C2925771   7.153   0.572   1.859  0.6454  0.0827 -0.0083
   62MOL    H3025772   0.199   0.343   1.984 -0.6683 -0.4397  1.5045
   62MOL    H3125773   0.105   0.477   1.908  0.6401  0.1114  1.1066
   62MOL    H3225774   7.661   0.247   1.991  0.4291 -1.1504  2.5643
   62MOL    H3325775   7.620   0.548   2.042 -1.0394  0.2585  0.6964
   62MOL    H3425776   7.500   0.427   2.071  0.5555 -1.1618  1.7225
   62MOL    H3525777   7.520   0.364   1.813 -2.3917  0.7572 -1.0547
   62MOL    H3625778   7.613   0.514   1.806  1.4744 -0.6219  0.9241
   62MOL    H3725779   7.388   0.596   1.766  0.7841  0.5976  0.4243
   62MOL    H3825780   7.410   0.632   1.928 -0.2377  1.5927 -0.7675
   62MOL    H3925781   7.267   0.439   1.982  2.2704 -0.4961  0.6831
   62MOL    H4025782   7.269   0.386   1.819 -0.7437  1.1821 -1.6983
   62MOL    H4125783   7.143   0.647   1.937  2.0094  0.5185 -0.2444
   62MOL    H4225784   7.165   0.622   1.763 -1.4845 -0.1209 -0.4026
   62MOL    H4325785   7.059   0.522   1.838 -0.5492  2.9663 -1.8050
   62MOL    C4425786   0.028   0.335   2.175  0.2316 -0.0515 -0.4892
   62MOL    C4525787   7.629   0.313   2.281 -0.3569  0.1308 -0.0898
   62MOL    C4625788   7.664   0.194   2.376  0.2741  0.3319 -0.1357
   62MOL    C4725789   7.668   0.055   2.313 -0.0355 -0.3803 -0.4258
   62MOL    C4825790   7.695   7.657   2.418  0.2461  0.2639 -0.2025
   62MOL    C4925791   0.124   7.670   2.485 -0.0708 -0.0232  0.8213
   62MOL    C5025792   0.136   7.565   2.593  0.5198  0.2592 -0.0458
   62MOL    H5125793   0.088   0.419   2.210  0.0427 -1.0883  2.5250
   62MOL    H5225794   0.097   0.250   2.172 -0.2382 -0.5114  1.2995
   62MOL    H5325795   7.540   0.290   2.222  0.7022 -0.2915 -1.5514
   62MOL    H5425796   7.588   0.190   2.454 -0.3847 -0.4870 -0.8105
   62MOL    H5525797   0.053   0.205   2.414  0.3138 -0.1521 -0.0896
   62MOL    H5625798   7.572   0.034   2.267 -0.1702  0.4355 -0.5262
   62MOL    H5725799   0.028   0.041   2.233 -0.2261 -1.8632 -0.3476
   62MOL    H5825800   7.700   7.562   2.364  2.1056  0.9021 -1.2149
   62MOL    H5925801   7.612   7.654   2.489 -0.8198  0.4489 -1.4074
   62MOL    H6025802   0.124   0.053   2.535 -2.6197  1.0621 -1.1495
   62MOL    H6125803   0.205   7.668   2.412 -0.3847  0.3558  0.4591
   62MOL    H6225804   0.225   7.585   2.653  0.1787  0.7075  0.3202
   62MOL    H6325805   0.146   7.465   2.551 -0.3117  1.2349 -2.6872
   62MOL    H6425806   0.049   7.571   2.659  1.2104 -1.5882  1.0786
   62MOL    C6525807   7.601   0.456   2.347 -0.4767  0.4188 -0.0808
   62MOL    C6625808   7.477   0.461   2.434  1.3621 -0.6437 -0.0699
   62MOL    C6725809   7.337   0.469   2.360  0.4384 -0.7804 -0.1852
   62MOL    C6825810   7.283   0.336   2.311 -0.5568 -0.6130  0.2910
   62MOL    C6925811   7.129   0.337   2.286 -0.7412  0.1455 -0.9020
   62MOL    C7025812   7.072   0.228   2.192  0.2814  0.0914 -0.7654
   62MOL    C7125813   6.916   0.219   2.192  0.1075 -0.3451  0.1886
   62MOL    H7225814   7.690   0.492   2.399 -0.7853  0.7909  0.1853
   62MOL    H7325815   7.583   0.532   2.270  0.4166  2.4399  1.6562
   62MOL    H7425816   7.479   0.370   2.493  0.5763  0.9945  2.5577
   62MOL    H7525817   7.259   0.504   2.427 -0.9980 -0.4731 -1.9893
   62MOL    H7625818   7.350   0.536   2.275  1.1834 -0.7261 -0.0284
   62MOL    H7725819   7.334   0.289   2.227  1.1406  1.0085  0.3796
   62MOL    H7825820   7.299   0.270   2.396  1.7952 -1.4873 -0.8016
   62MOL    H7925821   7.073   0.371   2.373 -1.2460  1.3855 -1.6906
   62MOL    H8025822   7.127   0.424   2.220 -0.9105  1.0738  0.2931
   62MOL    H8125823   7.106   0.129   2.222  0.4744  0.7786  1.3031
   62MOL    H8225824   7.106   0.243   2.089  0.7759  0.4478 -0.5534
   62MOL    H8325825   6.873   0.179   2.284  0.2636 -0.2899  0.2863
   62MOL    H8425826   6.877   0.320   2.179  0.8709 -0.2736 -1.6405
   62MOL    H8525827   6.875   0.158   2.112  1.0180  0.0310 -0.5666
   62MOL    C8625828   7.490   0.590   2.525 -0.5705  0.2099 -1.0353
   62MOL    C8725829   7.397   0.603   2.648 -0.7034  0.5721 -0.4233
   62MOL    C8825830   7.473   0.562   2.769  0.5734 -0.3344 -0.7809
   62MOL    C8925831   7.497   0.411   2.802 -0.3230 -0.3118 -0.4637
   62MOL    C9025832   7.595   0.403   2.926  0.4091  0.5371 -0.1031
   62MOL    C9125833   7.604   0.256   2.963 -0.3480 -0.0995  0.0998
   62MOL    C9225834   7.687   0.182   2.854  0.2435  0.4292 -0.3497
   62MOL    H9325835   7.592   0.606   2.561 -0.9113 -0.2644  0.1542
   62MOL    H9425836   7.479   0.667   2.449 -0.7166  0.0169 -1.2115
   62MOL    H9525837   7.313   0.537   2.625  0.0670 -0.2753 -0.8559
   62MOL    H9625838   7.569   0.613   2.781  1.0927 -1.0873 -1.7239
   62MOL    H9725839   7.419   0.606   2.853  1.9613  0.6765 -0.3875
   62MOL    H9825840   7.401   0.361   2.817  0.1850 -1.3030 -0.4629
   62MOL    H9925841   7.544   0.368   2.714 -1.3133 -2.2712 -0.0691
   62MOL   H10025842   7.569   0.459   3.016  1.0574  0.4140  0.1679
   62MOL   H10125843   7.686   0.454   2.895  0.0302  0.9431 -0.5464
   62MOL   H10225844   7.662   0.256   3.056 -0.3381  1.6813  0.1229
   62MOL   H10325845   7.505   0.213   2.980 -0.3673  0.0570  0.3981
   62MOL   H10425846   7.652   0.173   2.752  0.8202  1.2824 -0.6211
   62MOL   H10525847   7.678   0.079   2.890 -2.4864  1.0551  0.8979
   62MOL   H10625848   0.076   0.217   2.854  0.1505  0.6899 -0.8382
   62MOL   C10725849   7.348   0.749   2.669  0.2166  0.7202 -1.0928
   62MOL   C10825850   7.265   0.808   2.559 -0.0509 -0.0626  0.1308
   62MOL   C10925851   7.117   0.758   2.574 -0.4474 -0.3731 -0.1840
   62MOL   C11025852   7.021   0.788   2.459 -0.7687 -0.0014  0.8202
   62MOL   C11125853   7.056   0.711   2.338 -0.5682 -0.1244  0.2742
   62MOL   C11225854   6.941   0.714   2.230 -0.6240 -0.2308  0.0880
   62MOL   C11325855   6.816   0.628   2.278 -0.5344 -0.1554 -0.8639
   62MOL   H11425856   7.440   0.803   2.689 -0.3696  2.1897 -2.2832
   62MOL   H11525857   7.288   0.736   2.759  0.7498 -0.6363 -0.9232
   62MOL   H11625858   7.299   0.773   2.462  1.6790  2.0206 -0.0639
   62MOL   H11725859   7.075   0.786   2.670  1.2467  1.0255  0.1704
   62MOL   H11825860   7.120   0.649   2.581  0.8692 -0.3262  0.0914
   62MOL   H11925861   6.918   0.766   2.487 -1.6634 -0.1872 -2.4129
   62MOL   H12025862   7.029   0.893   2.431 -0.8197 -1.0620 -3.4947
   62MOL   H12125863   7.064   0.605   2.362 -1.9049 -0.4883 -0.8345
   62MOL   H12225864   7.151   0.730   2.287 -1.3101  1.6893 -0.4769
   62MOL   H12325865   6.918   0.817   2.204  1.5381  0.5308  1.0733
   62MOL   H12425866   6.971   0.661   2.140 -2.0122 -0.9773  0.0603
   62MOL   H12525867   6.845   0.532   2.320 -0.8569  0.6135  1.1756
   62MOL   H12625868   6.769   0.679   2.362  2.6188  1.2088  0.1403
   62MOL   H12725869   6.753   0.604   2.192  1.4916  0.2415 -2.5230
   62MOL   C12825870   7.280   0.965   2.563 -0.0279  0.8194 -0.2205
   62MOL   C12925871   7.413   1.027   2.526  0.3078  0.2315  0.6833
   62MOL   C13025872   7.420   1.170   2.595 -0.1983 -0.1710 -0.3960
   62MOL   C13125873   7.364   1.280   2.501  0.1497 -0.4351  0.1390
   62MOL   C13225874   7.355   1.428   2.573 -0.0276 -0.1713 -0.0630
   62MOL   C13325875   7.246   1.445   2.681  0.5624  0.1709 -0.0282
   62MOL   C13425876   7.230   1.575   2.754 -0.0125  0.1476 -0.0165
   62MOL   H13525877   7.207   1.001   2.491  1.3242 -0.0155 -2.0587
   62MOL   H13625878   7.254   0.994   2.665  2.1111 -0.2931  0.6823
   62MOL   H13725879   7.501   0.990   2.578 -0.0327  0.5873  1.5197
   62MOL   H13825880   7.522   1.201   2.618 -0.1052  0.0562 -1.1003
   62MOL   H13925881   7.382   1.175   2.697  0.3313  2.1569 -0.2981
   62MOL   H14025882   7.264   1.253   2.467 -1.0973  1.9303  1.7837
   62MOL   H14125883   7.422   1.281   2.408 -1.2072 -2.0316 -0.7540
   62MOL   H14225884   7.328   1.493   2.490 -0.3765  0.0310  0.2068
   62MOL   H14325885   7.452   1.466   2.605  0.4243  0.6594 -2.3467
   62MOL   H14425886   7.272   1.369   2.755  0.6377  1.3774  1.2060
   62MOL   H14525887   7.152   1.416   2.634  0.3618  1.7706 -0.6657
   62MOL   H14625888   7.214   1.644   2.671  0.4479 -0.1096 -0.3267
   62MOL   H14725889   7.315   1.601   2.817  0.7896 -0.3226 -0.8794
   62MOL   H14825890   7.143   1.568   2.820 -0.9362 -1.3082 -1.3409
   62MOL   C14925891   7.441   1.023   2.375 -0.4251 -0.1879 -1.1938
   62MOL   C15025892   7.587   1.070   2.335 -0.3083  0.5451 -0.4162
   62MOL   C15125893   7.592   1.113   2.195 -0.5823  0.4599  0.1946
   62MOL   C15225894   7.558   1.251   2.148  0.0549 -0.8845  0.5996
   62MOL   C15325895   7.657   1.357   2.195  0.4755  0.1923 -0.0628
   62MOL   C15425896   7.603   1.496   2.159 -0.7403  0.2136  0.8880
   62MOL   C15525897   7.481   1.548   2.237 -0.5536  0.0869  0.0888
   62MOL   H15625898   7.425   0.921   2.342 -0.0231 -0.0393 -1.8713
   62MOL   H15725899   7.366   1.075   2.315  1.2020  2.3453 -1.1411
   62MOL   H15825900   7.604   1.162   2.390 -1.8568  0.8182 -0.3785
   62MOL   H15925901   7.688   1.091   2.150 -1.7761 -2.6161 -1.0297
   62MOL   H16025902   7.528   1.039   2.146  0.4757  0.1348 -0.6986
   62MOL   H16125903   7.454   1.278   2.168 -0.0741 -1.9591  1.3996
   62MOL   H16225904   7.575   1.247   2.040  1.4300  2.0214  0.6373
   62MOL   H16325905   0.045   1.341   2.159  0.6309  0.1956  0.3745
   62MOL   H16425906   7.661   1.358   2.304  1.2362 -0.6446 -0.0757
   62MOL   H16525907   7.591   1.503   2.051  0.4873 -0.1356  0.7223
   62MOL   H16625908   7.679   1.571   2.177  0.9267 -0.6184 -2.1651
   62MOL   H16725909   7.399   1.476   2.238 -0.5091  0.0086 -1.0559
   62MOL   H16825910   7.447   1.648   2.209  0.4768  0.2525 -0.5969
   62MOL   H16925911   7.509   1.556   2.342 -2.2682  1.2607  0.4914
   62MOL   C17025912   7.695   0.962   2.361 -0.4639  0.4749  0.5635
   62MOL   C17125913   0.091   1.005   2.460 -0.2762 -0.1707  1.3460
   62MOL   C17225914   0.185   0.888   2.487  0.6774  0.7539 -1.0343
   62MOL   C17325915   0.133   0.792   2.595 -0.3994 -0.7006 -0.2810
   62MOL   C17425916   0.220   0.662   2.603  0.7800  0.1260  1.0980
   62MOL   C17525917   0.159   0.547   2.680  0.1817  0.2292 -0.8977
   62MOL   C17625918   0.274   0.444   2.698  0.3259 -0.1871  0.1337
   62MOL   H17725919   0.025   0.916   2.271  0.0621 -0.4307  1.2713
   62MOL   H17825920   7.646   0.877   2.409  2.1197 -0.6885  1.2132
   62MOL   H17925921   0.038   1.023   2.554  0.0664  1.8358  1.1655
   62MOL   H18025922   0.285   0.923   2.515  1.0224 -0.9855 -0.0058
   62MOL   H18125923   0.197   0.833   2.394 -0.9841 -1.2289 -0.1257
   62MOL   H18225924   0.030   0.769   2.567 -0.8928  1.7344 -0.5547
   62MOL   H18325925   0.126   0.851   2.687  2.6049  0.7313 -0.8948
   62MOL   H18425926   0.317   0.694   2.640  0.0960  1.5931  1.6739
   62MOL   H18525927   0.250   0.624   2.505 -0.6262 -0.1185  0.7534
   62MOL   H18625928   0.064   0.499   2.658  0.2741 -0.6618  0.5905
   62MOL   H18725929   0.136   0.585   2.780  0.0550 -1.0199 -0.4480
   62MOL   H18825930   0.347   0.468   2.775 -0.1605 -1.1336  0.9075
   62MOL   H18925931   0.330   0.444   2.605 -1.9456  0.6193 -1.2781
   62MOL   H19025932   0.236   0.344   2.719  0.4733 -0.6255 -1.6057
   62MOL   C19125933   0.168   1.135   2.409  0.0275 -0.7729  0.2625
   62MOL   C19225934   0.216   1.236   2.531  0.1307 -0.7434 -0.6836
   62MOL   C19325935   0.313   1.341   2.480  0.6305 -0.3879  0.4359
   62MOL   C19425936   0.256   1.461   2.404  0.4078  0.1155  0.0920
   62MOL   C19525937   0.367   1.566   2.367 -0.0472  0.1183  0.2860
   62MOL   C19625938   0.310   1.672   2.277 -0.3033 -0.0012 -0.2744
   62MOL   C19725939   0.413   1.777   2.235  0.5527 -0.4444  0.1679
   62MOL   H19825940   0.104   1.191   2.342 -1.2626  0.4210  2.4172
   62MOL   H19925941   0.255   1.103   2.352  0.3067  1.1357 -0.4113
   62MOL   H20025942   0.270   1.184   2.610  3.4055  1.4716 -1.3704
   62MOL   H20125943   0.388   1.291   2.420  0.8650  1.1887 -0.6218
   62MOL   H20225944   0.366   1.380   2.567  1.5840 -1.9003  0.5518
   62MOL   H20325945   0.183   1.515   2.465  0.2934 -1.2359  1.1892
   62MOL   H20425946   0.202   1.419   2.319 -0.1790  1.1867 -0.0787
   62MOL   H20525947   0.389   1.612   2.463 -1.6085  1.2403  0.1317
   62MOL   H20625948   0.453   1.524   2.315  0.1482 -2.9952  3.0012
   62MOL   H20725949   0.228   1.725   2.325  0.2419 -0.4353  1.1539
   62MOL   H20825950   0.260   1.626   2.192  1.1754  1.2060 -1.8156
   62MOL   H20925951   0.499   1.731   2.188  0.1813 -0.2101 -0.7532
   62MOL   H21025952   0.454   1.837   2.317 -1.6622  0.9878  0.2735
   62MOL   H21125953   0.365   1.835   2.156  0.4602 -0.2589  0.3589
   62MOL   C21225954   0.099   1.292   2.609 -0.4582 -0.2109 -0.0116
   62MOL   C21325955   0.131   1.372   2.736 -0.4698 -0.9640  0.1153
   62MOL   C21425956   0.011   1.470   2.776  0.1362  0.1669 -0.2265
   62MOL   C21525957   0.008   1.594   2.696 -0.2794 -0.9086 -0.6236
   62MOL   C21625958   7.607   1.694   2.737  1.1222 -0.5832 -0.8973
   62MOL   C21725959   7.578   1.800   2.633 -0.0015  0.4272  0.0072
   62MOL   C21825960   7.703   1.872   2.570  0.6666  0.3376 -0.2871
   62MOL   H21925961   0.033   1.211   2.640  2.5439 -2.1399  1.4541
   62MOL   H22025962   0.036   1.351   2.542  0.4166 -1.0203 -1.5522
   62MOL   H22125963   0.215   1.440   2.724 -2.5986  1.6818 -0.0614
   62MOL   H22225964   7.633   1.411   2.777  2.1875 -3.1225  0.4475
   62MOL   H22325965   0.036   1.499   2.878  0.0988 -0.8735  0.0823
   62MOL   H22425966   7.709   1.573   2.590  3.9806 -1.6014 -1.0622
   62MOL   H22525967   0.101   1.649   2.712 -1.1562  0.3221  0.3022
   62MOL   H22625968   7.524   1.623   2.741  1.8235 -1.3129  1.6005
   62MOL   H22725969   7.620   1.727   2.840 -0.7197  0.0763 -0.8494
   62MOL   H22825970   7.523   1.751   2.553 -2.2516  2.1230  0.4446
   62MOL   H22925971   7.516   1.886   2.661 -0.7982  0.5922 -2.1542
   62MOL   H23025972   7.658   1.945   2.503  2.3044 -1.1580 -3.0701
   62MOL   H23125973   0.061   1.809   2.518 -0.6923 -1.8770  0.4188
   62MOL   H23225974   0.037   1.947   2.633  0.2741  0.3641 -0.0172
   62MOL   C23325975   0.167   1.282   2.859  0.2209  0.2314 -0.0011
   62MOL   C23425976   0.265   1.327   2.969 -0.1164  0.1266  0.2201
   62MOL   C23525977   0.402   1.349   2.900  0.8224  0.6616 -0.5194
   62MOL   C23625978   0.522   1.379   2.979  0.1133  0.3541 -0.4184
   62MOL   C23725979   0.657   1.344   2.915 -0.3667 -0.3785 -0.6424
   62MOL   C23825980   0.772   1.430   2.975  0.0116 -0.7365  0.2624
   62MOL   C23925981   0.788   1.569   2.906  0.1177 -0.7059  0.2558
   62MOL   H24025982   0.216   1.191   2.823 -0.6128 -0.4626  0.5731
   62MOL   H24125983   0.074   1.236   2.894  1.0172 -2.4821 -1.3148
   62MOL   H24225984   0.288   1.241   3.031 -0.8557 -0.7363 -0.6751
   62MOL   H24325985   0.406   1.428   2.825  0.0359  2.7885  1.6542
   62MOL   H24425986   0.432   1.255   2.853  0.5857  0.8576 -1.0615
   62MOL   H24525987   0.522   1.332   3.077 -0.0551  1.0585 -0.0793
   62MOL   H24625988   0.526   1.486   2.999  1.4079 -0.1461  2.2879
   62MOL   H24725989   0.637   1.357   2.809  0.0789 -0.8412 -0.7883
   62MOL   H24825990   0.672   1.238   2.938 -1.2334 -0.1539  1.0155
   62MOL   H24925991   0.766   1.433   3.084 -0.3205 -1.4441  0.2650
   62MOL   H25025992   0.867   1.379   2.962  1.5136  1.7164  1.1450
   62MOL   H25125993   0.811   1.570   2.800  2.9760  0.1261  0.8487
   62MOL   H25225994   0.691   1.618   2.914  1.3389  2.1556 -1.7615
   62MOL   H25325995   0.867   1.625   2.956  1.5613 -1.4396 -1.1757
   62MOL   C25425996   0.235   1.448   3.055  0.8788  0.3002  0.6098
   62MOL   C25525997   0.105   1.439   3.135  0.2497  0.0595  0.3358
   62MOL   C25625998   0.044   1.580   3.152 -0.2687  0.2054  0.0889
   62MOL   C25725999   0.128   1.677   3.239 -0.3771 -0.2182  0.0373
   62MOL   C25826000   0.047   1.806   3.272  0.2544  0.0980 -0.7271
   62MOL   C25926001   0.150   1.898   3.348 -0.0027  0.0573  0.1355
   62MOL   C26026002   0.084   2.015   3.424  0.3144 -0.6742 -0.0322
   62MOL   H26126003   0.239   1.538   2.994 -1.3275  0.2323  0.3126
   62MOL   H26226004   0.318   1.468   3.122  0.9438 -0.6859  0.8283
   62MOL   H26326005   0.038   1.384   3.070  1.3108  0.1978 -0.8850
   62MOL   H26426006   7.662   1.578   3.204 -0.3197  0.9797  0.0309
   62MOL   H26526007   0.026   1.621   3.053 -1.5678  1.9012  1.0029
   62MOL   H26626008   0.156   1.629   3.333  1.1453  0.4619 -0.0550
   62MOL   H26726009   0.222   1.712   3.195  1.2487 -1.0768  2.6851
   62MOL   H26826010   7.672   1.784   3.332  0.0375  0.5782 -0.8631
   62MOL   H26926011   0.019   1.855   3.179 -1.6534 -1.0008 -0.7537
   62MOL   H27026012   0.210   1.836   3.414  2.2674  1.2590 -0.7442
   62MOL   H27126013   0.222   1.944   3.280 -3.2894  3.3604 -1.3226
   62MOL   H27226014   0.016   1.971   3.497  1.6218  0.8538  2.1870
   62MOL   H27326015   0.149   2.087   3.473  1.1451 -1.3839 -0.0875
   62MOL   H27426016   0.021   2.079   3.361 -1.7647 -1.8659  0.7908
   62MOL   C27526017   0.123   1.373   3.278  0.2205  0.3544  0.2231
   62MOL   C27626018   0.080   1.221   3.299 -0.2024  0.0184 -1.0103
   62MOL   C27726019   7.654   1.190   3.234  0.2004 -0.0737  0.2307
   62MOL   C27826020   7.533   1.269   3.293 -0.4425 -0.7135 -0.4634
   62MOL   C27926021   7.404   1.259   3.221 -0.6851 -0.1569 -0.3393
   62MOL   C28026022   7.369   1.365   3.118  0.0444  0.1303  0.0626
   62MOL   C28126023   7.233   1.330   3.062  0.0071  0.6707  0.9717
   62MOL   H28226024   0.054   1.429   3.341  0.6963 -2.0758  3.0371
   62MOL   H28326025   0.228   1.378   3.309  0.3514 -0.9391 -0.0056
   62MOL   H28426026   0.152   1.185   3.226  1.9552  1.4543  0.3600
   62MOL   H28526027   7.658   1.196   3.125 -1.0161 -0.3618  0.1614
   62MOL   H28626028   7.635   1.083   3.246 -0.3387  0.0080  0.1213
   62MOL   H28726029   7.553   1.376   3.297 -1.7996 -0.3491 -2.7000
   62MOL   H28826030   7.522   1.231   3.395  1.2201 -1.7513 -0.6448
   62MOL   H28926031   7.325   1.255   3.297  1.0053  0.1728  1.4920
   62MOL   H29026032   7.399   1.163   3.170  0.0113  0.4369 -1.5520
   62MOL   H29126033   7.376   1.467   3.156  4.4556 -0.3881  0.9343
   62MOL   H29226034   7.434   1.368   3.030  1.8914  0.5413  1.4210
   62MOL   H29326035   7.149   1.332   3.131 -0.8056  2.1897 -0.0375
   62MOL   H29426036   7.236   1.234   3.011  2.1118  2.2382 -2.0010
   62MOL   H29526037   7.209   1.404   2.985  0.9055  1.4347  1.4067
   62MOL   C29626038   0.104   1.171   3.446  0.9065  0.0703  0.0468
   62MOL   C29726039   0.120   1.014   3.466  0.1129 -1.1334 -0.1235
   62MOL   C29826040   7.705   0.929   3.483 -0.6276 -0.1401 -0.3288
   62MOL   C29926041   7.705   0.791   3.403 -0.0821 -0.1813  0.3751
   62MOL   C30026042   7.569   0.735   3.371 -0.1598  0.0325 -0.1985
   62MOL   C30126043   7.586   0.591   3.313  0.5632 -0.0655 -0.6744
   62MOL   C30226044   7.451   0.526   3.268 -0.1989 -1.0086  0.2130
   62MOL   H30326045   0.196   1.226   3.466  0.4935  1.1538 -0.9361
   62MOL   H30426046   0.025   1.204   3.514  0.2901 -0.2377 -0.5134
   62MOL   H30526047   0.164   0.986   3.370  2.0690  0.2851  0.3145
   62MOL   H30626048   7.691   0.913   3.590 -0.1699  1.2907 -0.0494
   62MOL   H30726049   7.607   0.967   3.457 -1.1849  0.4100  2.4870
   62MOL   H30826050   0.045   0.720   3.466  2.0273  0.4428 -0.6597
   62MOL   H30926051   0.057   0.807   3.318  1.9453  0.9350  2.0764
   62MOL   H31026052   7.507   0.801   3.311 -0.6748 -0.2840 -0.0222
   62MOL   H31126053   7.515   0.739   3.466  1.4497 -1.2477  0.7953
   62MOL   H31226054   7.661   0.587   3.235  0.1830  1.7770 -1.1558
   62MOL   H31326055   7.626   0.519   3.384  1.5978  1.0695 -0.0824
   62MOL   H31426056   7.395   0.584   3.195  0.8042  2.2243  1.8870
   62MOL   H31526057   7.459   0.419   3.246  2.2134 -1.1725  1.6392
   62MOL   H31626058   7.396   0.517   3.361  1.1432  2.1034  1.3584
   62MOL   C31726059   0.221   0.979   3.573  0.0697 -0.4502 -0.4251
   62MOL   C31826060   0.372   1.015   3.533  0.1893 -0.3491 -0.0489
   62MOL   C31926061   0.443   1.110   3.639 -0.5516  0.0357  0.0108
   62MOL   C32026062   0.473   1.046   3.775  0.2411  0.4700  0.7622
   62MOL   C32126063   0.461   1.154   3.876 -0.7098  0.7022 -0.0006
   62MOL   C32226064   0.507   1.103   4.013  0.6612 -0.7635  0.6071
   62MOL   C32326065   0.483   1.215   4.121 -0.4022  0.0039 -0.3799
   62MOL   H32426066   0.222   0.870   3.580  1.4626 -0.5957 -2.2039
   62MOL   H32526067   0.205   1.029   3.668 -0.6342 -0.5471 -0.4914
   62MOL   H32626068   0.365   1.060   3.434 -2.9316 -0.6914 -0.0445
   62MOL   H32726069   0.388   1.202   3.657  0.4739  1.0049 -1.6699
   62MOL   H32826070   0.536   1.144   3.593  1.0255 -3.8314  0.1091
   62MOL   H32926071   0.563   0.985   3.766 -0.1454  0.2072 -1.7041
   62MOL   H33026072   0.398   0.967   3.770  0.0955  0.7086 -1.7358
   62MOL   H33126073   0.360   1.192   3.889 -1.7864 -2.4960  1.5148
   62MOL   H33226074   0.528   1.233   3.842 -0.1774  0.2581  0.0129
   62MOL   H33326075   0.610   1.067   4.008  0.8401 -0.2523  0.4733
   62MOL   H33426076   0.459   1.008   4.036  0.7545 -0.9093  0.2148
   62MOL   H33526077   0.541   1.305   4.100  0.6401 -0.8312 -1.1584
   62MOL   H33626078   0.513   1.181   4.220  0.4698  2.5943  0.2921
   62MOL   H33726079   0.379   1.248   4.120  0.3462  2.6129  1.1766
   62MOL   C33826080   0.461   0.895   3.499  0.7891  1.0927 -0.1195
   62MOL   C33926081   0.426   0.822   3.370  0.0623  0.1438  0.5277
   62MOL   C34026082   0.461   0.673   3.387 -0.0435 -0.1414 -0.0437
   62MOL   C34126083   0.383   0.584   3.288  0.3602  0.5365  0.3085
   62MOL   C34226084   0.395   0.435   3.312  0.2424 -0.4462  0.0882
   62MOL   C34326085   0.298   0.346   3.223  0.2875 -0.5669 -0.6643
   62MOL   C34426086   0.311   0.196   3.237 -0.2185  0.7576 -0.3683
   62MOL   H34526087   0.453   0.835   3.589  0.4795 -0.3732 -1.1095
   62MOL   H34626088   0.568   0.915   3.510  1.4169 -1.8134 -0.5326
   62MOL   H34726089   0.318   0.828   3.358  0.1295 -0.8974 -0.6848
   62MOL   H34826090   0.567   0.654   3.369  0.5412  0.0186  3.0126
   62MOL   H34926091   0.448   0.637   3.489 -0.6599  1.3231  0.4005
   62MOL   H35026092   0.407   0.598   3.182 -1.7750  0.5445 -0.2027
   62MOL   H35126093   0.276   0.601   3.299 -0.0721 -0.5558 -1.9609
   62MOL   H35226094   0.498   0.402   3.293  0.1751 -0.3202 -0.4945
   62MOL   H35326095   0.379   0.406   3.416  0.8565  0.5217  0.4651
   62MOL   H35426096   0.195   0.376   3.242  0.5642 -0.5145  0.8143
   62MOL   H35526097   0.318   0.377   3.120  1.0813 -1.3163 -0.7426
   62MOL   H35626098   0.411   0.156   3.218 -1.3852 -1.6868 -1.6791
   62MOL   H35726099   0.250   0.147   3.161 -0.4779  1.1940 -0.4417
   62MOL   H35826100   0.281   0.166   3.337 -0.1549  2.0930  0.0666
   62MOL   C35926101   0.498   0.887   3.252 -0.0823 -0.7236  0.6101
   62MOL   C36026102   0.442   0.872   3.110  0.7228 -0.1325 -0.4367
   62MOL   C36126103   0.294   0.933   3.105  0.9145  0.6394 -0.8326
   62MOL   C36226104   0.212   0.895   2.974  0.1662  0.1100  0.0002
   62MOL   C36326105   0.069   0.927   3.008  0.1405 -0.5771 -0.3880
   62MOL   C36426106   7.681   0.914   2.893  0.3848 -0.4101 -0.2338
   62MOL   C36526107   7.535   0.947   2.945 -0.1922  0.1440  0.1487
   62MOL   H36626108   0.602   0.855   3.252 -0.0160 -0.5307 -0.8625
   62MOL   H36726109   0.503   0.995   3.270  0.3227 -0.9508  1.8912
   62MOL   H36826110   0.441   0.766   3.083  0.6915 -0.6770  1.6244
   62MOL   H36926111   0.229   0.898   3.185 -0.8353  2.6782 -1.3034
   62MOL   H37026112   0.300   1.042   3.112 -1.6501  0.6515  2.1644
   62MOL   H37126113   0.238   0.973   2.903 -3.7266  1.1137 -0.4590
   62MOL   H37226114   0.235   0.797   2.933  0.4176  0.2534 -0.1994
   62MOL   H37326115   0.034   0.858   3.085  2.0143 -1.6963 -0.4851
   62MOL   H37426116   0.057   1.023   3.057 -1.7401 -1.4634  0.9534
   62MOL   H37526117   7.697   0.988   2.815  0.0265  0.4858  0.5292
   62MOL   H37626118   7.675   0.812   2.855 -2.1548 -0.0496 -0.9295
   62MOL   H37726119   7.499   0.876   3.019 -1.1458 -0.2184 -0.6623
   62MOL   H37826120   7.527   1.049   2.982  0.3102 -0.3334  1.5921
   62MOL   H37926121   7.461   0.960   2.866  0.8831 -0.5064 -0.9720
   62MOL   C38026122   0.529   0.946   3.008  0.0991  0.2200  0.3179
   62MOL   C38126123   0.575   0.866   2.889 -0.1094  0.2188  0.2851
   62MOL   C38226124   0.621   0.965   2.777  0.2284  0.8899  0.7408
   62MOL   C38326125   0.689   0.906   2.657 -0.0116  0.5756  0.0295
   62MOL   C38426126   0.742   1.015   2.570  0.5273 -0.0901  0.4606
   62MOL   C38526127   0.795   0.966   2.435 -0.5066  0.1785 -0.9030
   62MOL   C38626128   0.848   1.078   2.341  0.7438 -0.2460  0.3407
   62MOL   H38726129   0.477   1.039   2.991 -0.8056 -0.6563 -1.8324
   62MOL   H38826130   0.612   0.985   3.067  0.7994 -0.2754 -0.3225
   62MOL   H38926131   0.493   0.805   2.851  0.5309  0.2036 -1.1045
   62MOL   H39026132   0.694   1.038   2.813  0.2347  1.9351 -1.3372
   62MOL   H39126133   0.535   1.023   2.745 -2.6602 -2.5405  1.9217
   62MOL   H39226134   0.768   0.831   2.667  1.1763  1.9039  0.6902
   62MOL   H39326135   0.616   0.851   2.598  0.9751 -1.5244  0.7083
   62MOL   H39426136   0.658   1.082   2.555 -1.1008 -2.5244 -1.6650
   62MOL   H39526137   0.813   1.072   2.630  0.1224  0.5829  0.3037
   62MOL   H39626138   0.717   0.904   2.390  0.3553 -1.0248 -0.7773
   62MOL   H39726139   0.869   0.890   2.458  1.2256  2.2737  0.5795
   62MOL   H39826140   0.939   1.125   2.379  0.7455 -0.8002  1.0281
   62MOL   H39926141   0.780   1.158   2.312 -0.3321 -1.6363 -1.1054
   62MOL   H40026142   0.875   1.043   2.241  1.2725 -0.1899  0.4635
   62MOL   C40126143   0.695   0.775   2.928  0.6025  0.1457  0.1855
   62MOL   C40226144   0.701   0.629   2.860 -0.5715 -0.2144 -0.1500
   62MOL   C40326145   0.820   0.542   2.904 -1.0375 -0.9306  0.5034
   62MOL   C40426146   0.812   0.401   2.847 -0.3267  0.0546 -0.3670
   62MOL   C40526147   0.899   0.385   2.712  0.0427  1.2024 -0.0960
   62MOL   C40626148   0.894   0.243   2.642  0.6850 -0.4277 -0.3448
   62MOL   C40726149   1.007   0.213   2.546 -0.1095 -0.2349  0.4145
   62MOL   H40826150   0.696   0.773   3.037 -1.2793  3.2521  0.3231
   62MOL   H40926151   0.786   0.829   2.902  0.5887  0.1697  0.1865
   62MOL   H41026152   0.705   0.632   2.751 -0.2032 -0.6643 -0.1498
   62MOL   H41126153   0.829   0.534   3.013  2.2853  1.0245  0.4354
   62MOL   H41226154   0.909   0.598   2.877 -1.1434 -0.3473  1.3234
   62MOL   H41326155   0.708   0.374   2.834 -0.4558  1.4925 -2.4717
   62MOL   H41426156   0.852   0.328   2.918 -2.8115 -1.4491 -0.4723
   62MOL   H41526157   0.853   0.451   2.638 -0.8720  0.1539 -0.4728
   62MOL   H41626158   1.001   0.422   2.724  0.9763 -1.5342  0.8737
   62MOL   H41726159   0.900   0.169   2.722 -1.0008  0.5580  0.7291
   62MOL   H41826160   0.796   0.225   2.597  0.3406 -3.4691  1.5195
   62MOL   H41926161   1.098   0.191   2.603  0.4746  1.0600  0.0154
   62MOL   H42026162   1.041   0.297   2.486  0.4990 -0.2815  0.6847
   62MOL   H42126163   0.979   0.134   2.477  1.3765 -2.1044  1.9221
   62MOL   H42226164   0.620   0.561   2.888 -0.6527 -0.4502 -0.9509
   63MOL     C126165   3.407   5.938   7.265 -0.2740  0.0808 -0.6733
   63MOL     C226166   3.276   5.928   7.191  0.2864 -0.4401  0.5472
   63MOL     C326167   3.178   5.824   7.250 -0.4490 -0.5130 -0.2220
   63MOL     C426168   3.227   5.676   7.238 -0.2377 -0.2330 -0.0144
   63MOL     C526169   3.109   5.583   7.287  0.3264 -0.7494 -0.1995
   63MOL     C626170   3.138   5.438   7.250 -0.4906  0.4909 -0.0198
   63MOL     C726171   3.051   5.342   7.326  0.3186  0.3262 -0.5557
   63MOL     H826172   3.436   6.042   7.248 -0.0629 -0.2273 -2.3271
   63MOL     H926173   3.486   5.880   7.218 -1.0904 -1.3556 -0.3173
   63MOL    H1026174   3.236   6.028   7.202  0.1991 -0.3617 -0.4191
   63MOL    H1126175   3.158   5.853   7.353  3.0374  3.0706 -0.4540
   63MOL    H1226176   3.084   5.837   7.197 -1.9613 -0.3619  2.4371
   63MOL    H1326177   3.249   5.664   7.132 -0.1605  3.0435 -0.4347
   63MOL    H1426178   3.322   5.668   7.290  0.2602  0.3140 -0.8351
   63MOL    H1526179   3.020   5.618   7.234 -1.2655 -0.4402  2.5824
   63MOL    H1626180   3.107   5.603   7.394 -0.5808 -1.0923 -0.1397
   63MOL    H1726181   3.245   5.422   7.262 -0.6842  1.0443  2.8394
   63MOL    H1826182   3.111   5.428   7.145  0.1191 -1.1795 -0.0254
   63MOL    H1926183   3.081   5.242   7.295  0.7825 -0.3227  1.8834
   63MOL    H2026184   2.954   5.352   7.277  0.6234  4.1284 -0.4784
   63MOL    H2126185   3.041   5.367   7.431  0.6113  0.4927 -0.5692
   63MOL    H2226186   3.406   5.912   7.371  0.0674  0.3715 -0.5974
   63MOL    C2326187   3.309   5.920   7.037  0.5696 -0.1959  0.4150
   63MOL    C2426188   3.355   6.050   6.966 -0.2299 -0.6317 -0.1890
   63MOL    C2526189   3.246   6.159   6.942  0.8841  0.2788 -0.1973
   63MOL    C2626190   3.141   6.121   6.838 -0.2834  0.4302 -0.3008
   63MOL    C2726191   3.031   6.220   6.838  0.4598 -0.1744 -0.0726
   63MOL    C2826192   2.942   6.202   6.720 -0.0002 -0.4776  0.5459
   63MOL    C2926193   2.864   6.076   6.710 -0.1717  1.3714 -0.0005
   63MOL    H3026194   3.373   5.832   7.027  2.5062  1.1477  0.6616
   63MOL    H3126195   3.218   5.899   6.981  0.5547 -2.3193  1.1647
   63MOL    H3226196   3.417   6.105   7.037  1.0856  0.4097 -2.0958
   63MOL    H3326197   3.280   6.256   6.907  1.0153  1.2303  2.4187
   63MOL    H3426198   3.214   6.169   7.046 -2.5417 -0.5758 -1.0726
   63MOL    H3526199   3.091   6.028   6.862  1.3281 -0.6017 -0.8767
   63MOL    H3626200   3.186   6.117   6.739  1.3926 -1.6373  0.5167
   63MOL    H3726201   3.075   6.318   6.819  0.5970 -0.1775  0.2279
   63MOL    H3826202   2.989   6.220   6.938  0.4518  2.9985 -0.0122
   63MOL    H3926203   2.994   6.215   6.625  0.5289 -0.4324  0.8395
   63MOL    H4026204   2.872   6.286   6.716 -2.0454 -2.1799 -0.1717
   63MOL    H4126205   2.785   6.083   6.635  0.2765  0.0621 -0.6178
   63MOL    H4226206   2.933   5.997   6.681 -0.5945  0.8021  0.5268
   63MOL    H4326207   2.819   6.058   6.808  0.4345  0.2656  0.0871
   63MOL    C4426208   3.430   6.019   6.839 -0.2053 -0.4409 -0.5552
   63MOL    C4526209   3.576   5.979   6.849  0.5190 -0.9859  0.1325
   63MOL    C4626210   3.637   5.911   6.720 -1.2009 -0.2717 -0.5675
   63MOL    C4726211   3.577   5.776   6.685  0.2474 -0.2084  0.0360
   63MOL    C4826212   3.659   5.720   6.564 -0.4579 -0.1208 -0.5921
   63MOL    C4926213   3.581   5.607   6.499 -0.0885 -0.3729 -0.3580
   63MOL    C5026214   3.670   5.535   6.392  0.1397  0.1205  0.2397
   63MOL    H5126215   3.415   6.101   6.768 -0.9206 -0.8124 -0.8404
   63MOL    H5226216   3.381   5.938   6.785 -1.3623  0.6588 -1.1661
   63MOL    H5326217   3.589   5.900   6.923  3.1927  0.5859  1.4153
   63MOL    H5426218   3.745   5.901   6.732 -1.2656  0.7788  1.0175
   63MOL    H5526219   3.620   5.981   6.639  0.3942 -2.2062 -2.6289
   63MOL    H5626220   3.587   5.716   6.775 -2.4287 -1.9415 -0.7617
   63MOL    H5726221   3.470   5.781   6.666  0.3226 -2.7185 -1.3029
   63MOL    H5826222   3.756   5.691   6.605  1.3104  3.8226 -1.6797
   63MOL    H5926223   3.661   5.803   6.493 -2.9219 -2.0378 -2.9598
   63MOL    H6026224   3.484   5.636   6.458 -1.0908 -0.9635  1.5122
   63MOL    H6126225   3.556   5.527   6.568  0.3309 -0.8728 -0.7886
   63MOL    H6226226   3.613   5.456   6.344  0.6125 -2.2826  3.4016
   63MOL    H6326227   3.767   5.501   6.429  0.0816 -0.1043  0.1847
   63MOL    H6426228   3.694   5.606   6.313  1.3014 -0.5929 -0.0627
   63MOL    C6526229   3.664   6.102   6.883 -0.9094  1.1089  0.2371
   63MOL    C6626230   3.794   6.077   6.968 -0.4171 -0.3154 -0.4478
   63MOL    C6726231   3.750   6.029   7.108 -0.0930  0.8212 -0.2206
   63MOL    C6826232   3.852   5.916   7.155  0.6191 -0.0858  0.2387
   63MOL    C6926233   3.813   5.846   7.286  0.1592  0.3139 -0.1073
   63MOL    C7026234   3.838   5.935   7.410 -0.0054  0.2223  0.3799
   63MOL    C7126235   3.777   5.876   7.539 -0.1777 -0.0458  0.4956
   63MOL    H7226236   3.692   6.163   6.797 -0.6236  1.7632  0.7879
   63MOL    H7326237   3.617   6.179   6.945  1.9127  2.1909  1.1350
   63MOL    H7426238   3.850   5.993   6.927 -0.7346 -0.7229 -0.0493
   63MOL    H7526239   3.732   6.107   7.183  1.0150 -0.4749  1.4410
   63MOL    H7626240   3.657   5.972   7.113  0.5680 -0.1011  2.6127
   63MOL    H7726241   3.863   5.840   7.078 -2.8430 -0.2638 -0.1628
   63MOL    H7826242   3.951   5.956   7.173  0.7644  0.0704 -0.8610
   63MOL    H7926243   3.709   5.814   7.290 -0.0186  0.8548 -0.4430
   63MOL    H8026244   3.880   5.760   7.285  1.6109  1.4213 -0.6139
   63MOL    H8126245   3.803   6.037   7.390 -1.3077  0.2048  2.4395
   63MOL    H8226246   3.946   5.939   7.425  0.3081 -1.5724 -1.1889
   63MOL    H8326247   3.805   5.925   7.631  2.1741  0.9278 -0.7028
   63MOL    H8426248   3.668   5.886   7.530 -0.1313  0.3199  0.3298
   63MOL    H8526249   3.786   5.768   7.553 -1.7860 -0.0806  1.3593
   63MOL    C8626250   3.900   6.193   6.982  0.0494 -0.3991  0.5893
   63MOL    C8726251   3.968   6.228   6.845 -0.1607  0.3232 -0.4981
   63MOL    C8826252   4.028   6.375   6.838  0.1871 -0.1375  0.5988
   63MOL    C8926253   3.934   6.474   6.779 -0.1365  0.0973 -0.2500
   63MOL    C9026254   3.984   6.526   6.646  0.0870 -0.6665  0.1190
   63MOL    C9126255   3.866   6.598   6.578 -1.0748  0.2841  0.1479
   63MOL    C9226256   3.898   6.660   6.436  0.0849 -0.0568 -0.8865
   63MOL    H9326257   3.840   6.281   7.006  0.4888 -0.1412  0.7271
   63MOL    H9426258   3.973   6.180   7.061  0.5451 -2.9540 -0.2630
   63MOL    H9526259   3.896   6.208   6.766  0.7540 -0.2067 -1.2037
   63MOL    H9626260   4.030   6.401   6.943 -3.7276 -0.8695  0.9616
   63MOL    H9726261   4.129   6.399   6.805  0.0084  0.1757  0.2744
   63MOL    H9826262   3.831   6.439   6.773  0.9385 -3.6101  1.1565
   63MOL    H9926263   3.918   6.568   6.831 -0.0699 -0.1829  0.2708
   63MOL   H10026264   4.018   6.445   6.581  0.6680 -1.2353  1.1189
   63MOL   H10126265   4.068   6.594   6.656 -0.1356 -0.1277 -1.6509
   63MOL   H10226266   3.776   6.538   6.591 -0.1989 -1.0254  0.1415
   63MOL   H10326267   3.848   6.681   6.647  0.6241  0.9463 -0.1757
   63MOL   H10426268   3.800   6.701   6.416 -0.3987 -0.2797  0.9040
   63MOL   H10526269   3.924   6.582   6.365 -0.7824 -1.3943  0.2243
   63MOL   H10626270   3.975   6.736   6.444 -0.5141  0.3300  1.3789
   63MOL   C10726271   4.080   6.128   6.812 -0.2382 -0.2183  0.0348
   63MOL   C10826272   4.117   6.120   6.665  0.3319  0.7476  0.3195
   63MOL   C10926273   4.268   6.097   6.636 -0.3006 -0.6414 -0.0189
   63MOL   C11026274   4.357   6.221   6.670 -0.1472  0.2715  0.0246
   63MOL   C11126275   4.506   6.206   6.647 -0.5103  0.0616  0.2517
   63MOL   C11226276   4.605   6.292   6.729  0.8594  0.2055  0.2617
   63MOL   C11326277   4.750   6.254   6.697 -0.1103  0.6256  0.3649
   63MOL   H11426278   4.043   6.031   6.846  0.3378 -0.4151  0.1178
   63MOL   H11526279   4.164   6.151   6.879 -0.7880  1.3678  0.2056
   63MOL   H11626280   4.091   6.216   6.621 -2.0437 -0.5346 -1.1468
   63MOL   H11726281   4.282   6.082   6.528 -2.0089 -0.5281 -0.2770
   63MOL   H11826282   4.302   6.007   6.688  1.9030 -0.7122 -1.5064
   63MOL   H11926283   4.329   6.315   6.621 -1.2755 -0.4266 -0.6878
   63MOL   H12026284   4.344   6.241   6.777  0.5779 -1.5328  0.4608
   63MOL   H12126285   4.517   6.212   6.539  1.0451 -0.1809  0.3733
   63MOL   H12226286   4.525   6.101   6.669 -1.7370 -0.1846  0.1659
   63MOL   H12326287   4.590   6.398   6.710  0.8274  0.6816  2.7794
   63MOL   H12426288   4.586   6.271   6.835  1.9803 -2.6719 -0.0646
   63MOL   H12526289   4.822   6.313   6.754  0.9234 -0.5521  0.2794
   63MOL   H12626290   4.767   6.149   6.718  2.0355  1.1136  1.2278
   63MOL   H12726291   4.782   6.254   6.593  2.9767  0.2676  1.2728
   63MOL   C12826292   4.036   5.999   6.603 -0.4176  0.4897 -0.0772
   63MOL   C12926293   3.992   6.014   6.455 -0.1217 -0.2389  0.3051
   63MOL   C13026294   3.883   6.116   6.444  0.0073  0.1824  0.5650
   63MOL   C13126295   3.883   6.175   6.303  0.9821 -0.1577 -1.0819
   63MOL   C13226296   3.756   6.267   6.292  0.0037  0.6341 -0.0328
   63MOL   C13326297   3.777   6.379   6.181  0.5677  0.1617 -0.0873
   63MOL   C13426298   3.658   6.474   6.136 -0.7719 -0.1652  0.1009
   63MOL   H13526299   4.098   5.912   6.622  0.1961  1.2841  1.6578
   63MOL   H13626300   3.951   5.994   6.670 -0.3578  3.3099  0.2770
   63MOL   H13726301   4.078   6.048   6.398 -1.4751 -0.3408 -1.8434
   63MOL   H13826302   3.888   6.197   6.517 -0.0672  0.5797  0.1376
   63MOL   H13926303   3.789   6.068   6.469  0.2152 -0.2175  0.5705
   63MOL   H14026304   3.881   6.103   6.221  0.8082  0.1264 -1.3262
   63MOL   H14126305   3.973   6.235   6.287  0.7884  0.4388 -0.0357
   63MOL   H14226306   3.733   6.322   6.383 -1.4359  1.2766 -0.7701
   63MOL   H14326307   3.670   6.205   6.266  1.1183 -0.2924 -1.5888
   63MOL   H14426308   3.800   6.323   6.091 -2.5236 -1.2266 -0.0409
   63MOL   H14526309   3.870   6.434   6.200  1.9108 -1.8564 -0.6139
   63MOL   H14626310   3.566   6.421   6.112  0.8352 -2.4921 -1.1615
   63MOL   H14726311   3.689   6.544   6.059 -0.3623  0.2379  0.6312
   63MOL   H14826312   3.630   6.532   6.224 -1.3660 -0.8268  0.3542
   63MOL   C14926313   3.945   5.878   6.395 -0.7724 -0.3677  0.6997
   63MOL   C15026314   4.054   5.785   6.329 -0.6102  0.3638  0.0652
   63MOL   C15126315   4.179   5.760   6.404 -1.3728 -0.2646 -0.2775
   63MOL   C15226316   4.270   5.648   6.353 -0.4637 -0.6920 -0.9007
   63MOL   C15326317   4.366   5.615   6.473 -0.5245 -0.5641  0.2002
   63MOL   C15426318   4.471   5.518   6.424 -0.3276  0.1151  0.5775
   63MOL   C15526319   4.406   5.382   6.397 -0.5503  0.7047  0.4266
   63MOL   H15626320   3.901   5.815   6.473  0.8126  0.0177  1.9489
   63MOL   H15726321   3.870   5.912   6.324  0.0303  1.4413  0.6991
   63MOL   H15826322   4.001   5.691   6.312  0.8771 -0.7218  1.2406
   63MOL   H15926323   4.238   5.852   6.412  0.1808 -1.2338 -0.4867
   63MOL   H16026324   4.154   5.725   6.504  0.7661 -1.3207 -0.0810
   63MOL   H16126325   4.326   5.675   6.263  0.5934 -2.1561 -0.6940
   63MOL   H16226326   4.204   5.565   6.327 -0.4789 -1.0309  0.2254
   63MOL   H16326327   4.315   5.575   6.560  0.0826 -0.2204  0.7196
   63MOL   H16426328   4.419   5.707   6.496 -2.3040  0.7551 -0.8562
   63MOL   H16526329   4.541   5.518   6.508  0.0410  2.9857  0.3328
   63MOL   H16626330   4.517   5.563   6.336 -3.6162  3.9960  0.7137
   63MOL   H16726331   4.338   5.345   6.473  0.7145  0.0802  1.2680
   63MOL   H16826332   4.478   5.304   6.372 -0.5485  0.5991  0.7578
   63MOL   H16926333   4.344   5.401   6.310  1.1192  1.7416 -0.5759
   63MOL   C17026334   4.082   5.827   6.184 -0.6149 -0.3054  1.2868
   63MOL   C17126335   4.040   5.738   6.062  0.4559 -0.4625  0.1472
   63MOL   C17226336   3.887   5.752   6.029  0.4206 -0.5635  0.1051
   63MOL   C17326337   3.842   5.880   5.950  0.8760 -0.7680  0.5564
   63MOL   C17426338   3.697   5.912   5.932 -0.6506 -0.1434  0.5387
   63MOL   C17526339   3.664   6.044   5.858 -0.0699  0.8151 -0.3641
   63MOL   C17626340   3.567   6.136   5.932 -0.7393 -0.0284 -0.2634
   63MOL   H17726341   4.189   5.851   6.182 -0.5150 -0.8436  0.2136
   63MOL   H17826342   4.047   5.930   6.172  1.0520  0.0675 -0.5896
   63MOL   H17926343   4.054   5.632   6.086  0.7015 -0.6690 -0.9210
   63MOL   H18026344   3.830   5.778   6.119 -0.6512 -1.3298 -0.3437
   63MOL   H18126345   3.849   5.669   5.970 -1.1099 -0.2717  0.6281
   63MOL   H18226346   3.901   5.871   5.858  0.4558 -0.2351  0.2317
   63MOL   H18326347   3.879   5.963   6.010 -2.0512 -0.3231  1.8646
   63MOL   H18426348   3.653   5.899   6.031 -0.7659  0.4754  0.5682
   63MOL   H18526349   3.645   5.835   5.875 -0.1235  0.5092 -0.8289
   63MOL   H18626350   3.618   6.017   5.763 -0.6615 -0.4992  0.2928
   63MOL   H18726351   3.751   6.107   5.838  0.3116  0.4974  0.3075
   63MOL   H18826352   3.472   6.089   5.957  0.4296 -1.7183  1.1388
   63MOL   H18926353   3.545   6.225   5.873 -0.1404  0.7110  0.6073
   63MOL   H19026354   3.623   6.155   6.024  1.1270  1.9628 -1.7606
   63MOL   C19126355   4.121   5.761   5.938  0.6174  0.0458  0.9026
   63MOL   C19226356   4.273   5.716   5.950  0.3011 -0.0886  0.5161
   63MOL   C19326357   4.273   5.557   5.947  0.1996 -0.4494 -0.4918
   63MOL   C19426358   4.412   5.500   5.947 -0.0009 -0.7096 -0.0748
   63MOL   C19526359   4.415   5.344   5.948  0.2939  0.1619 -0.0663
   63MOL   C19626360   4.545   5.276   5.981  0.8016 -0.4644  0.5339
   63MOL   C19726361   4.548   5.127   5.972 -0.1033 -0.3455 -0.1439
   63MOL   H19826362   4.101   5.861   5.902  0.3370  0.0698  1.1182
   63MOL   H19926363   4.085   5.697   5.857 -0.2918  2.1973 -0.4199
   63MOL   H20026364   4.311   5.742   6.049  0.1754  0.1803  0.4914
   63MOL   H20126365   4.218   5.508   5.867 -2.4311 -0.5969  1.3479
   63MOL   H20226366   4.236   5.531   6.046 -1.5923  0.2203 -0.9618
   63MOL   H20326367   4.464   5.532   6.038 -1.9717  1.3290  0.3789
   63MOL   H20426368   4.472   5.534   5.862 -0.9966 -1.7096 -1.2035
   63MOL   H20526369   4.342   5.312   6.022 -0.5496  0.8262 -0.6040
   63MOL   H20626370   4.375   5.295   5.859 -2.3008  2.0937  0.0106
   63MOL   H20726371   4.579   5.308   6.079  0.5099  0.1037  0.4555
   63MOL   H20826372   4.630   5.308   5.920 -1.6019  3.5440 -0.9519
   63MOL   H20926373   4.464   5.080   6.024  1.0330 -0.4083  1.6443
   63MOL   H21026374   4.633   5.085   6.025  0.1822  3.2332  2.4554
   63MOL   H21126375   4.537   5.087   5.871 -1.1999  1.7060 -0.8705
   63MOL   C21226376   4.357   5.788   5.845 -0.2032  0.5758 -0.4283
   63MOL   C21326377   4.376   5.943   5.864 -0.1297 -0.0253  0.2022
   63MOL   C21426378   4.502   5.979   5.947 -0.2710 -0.0491  0.0336
   63MOL   C21526379   4.503   5.946   6.100 -0.0515  0.4428 -0.2812
   63MOL   C21626380   4.613   6.022   6.172 -0.2872  0.2123  0.9951
   63MOL   C21726381   4.611   5.995   6.323 -0.0572 -0.0901  0.4300
   63MOL   C21826382   4.718   6.082   6.390  0.0474 -0.2224 -0.0731
   63MOL   H21926383   4.315   5.757   5.750  0.0329 -2.5595  0.4334
   63MOL   H22026384   4.458   5.749   5.855  0.0266  0.8184 -1.6941
   63MOL   H22126385   4.286   5.982   5.912 -0.8516  0.9827 -1.9390
   63MOL   H22226386   4.585   5.935   5.892  0.4992  0.6576  0.6104
   63MOL   H22326387   4.530   6.084   5.949 -3.1978  0.7504 -0.0378
   63MOL   H22426388   4.511   5.838   6.112  0.6150  0.1731 -2.8176
   63MOL   H22526389   4.413   5.977   6.153  0.2569  0.9178 -0.0331
   63MOL   H22626390   4.709   5.980   6.140  0.6487  1.8056  1.6750
   63MOL   H22726391   4.612   6.128   6.147 -1.0605  0.3030  1.4168
   63MOL   H22826392   4.516   6.014   6.372 -0.3291  0.3595 -0.2602
   63MOL   H22926393   4.632   5.891   6.347  0.2076 -0.4381 -1.2451
   63MOL   H23026394   4.702   6.189   6.383 -0.4510 -0.2497  0.6703
   63MOL   H23126395   4.812   6.064   6.338 -0.3992  0.5149 -1.1705
   63MOL   H23226396   4.730   6.053   6.494 -2.1874 -0.8362  0.0466
   63MOL   C23326397   4.396   6.005   5.730 -1.0718 -0.3602 -0.2076
   63MOL   C23426398   4.354   6.152   5.729  0.6047 -0.0568 -0.3325
   63MOL   C23526399   4.405   6.226   5.596 -0.6799  0.2860 -0.7032
   63MOL   C23626400   4.558   6.244   5.587  0.3835 -0.0839  0.3511
   63MOL   C23726401   4.600   6.329   5.460 -0.3138  0.3454 -0.3663
   63MOL   C23826402   4.745   6.322   5.411 -0.2731  1.0190  0.0942
   63MOL   C23926403   4.768   6.368   5.274 -0.6190 -0.0020  0.9283
   63MOL   H24026404   4.332   5.961   5.653 -2.7919  1.9720 -0.1775
   63MOL   H24126405   4.499   6.000   5.697 -1.1058  0.6272 -0.4716
   63MOL   H24226406   4.405   6.201   5.812  0.4846  0.6749 -0.6810
   63MOL   H24326407   4.370   6.330   5.593 -0.5626  0.4275  1.9375
   63MOL   H24426408   4.370   6.174   5.506 -0.0513  0.2354 -0.9172
   63MOL   H24526409   4.604   6.146   5.569 -0.9337 -0.9276  1.4721
   63MOL   H24626410   4.598   6.299   5.671  1.2428 -0.4723  0.2060
   63MOL   H24726411   4.576   6.434   5.476 -1.1707  0.4358 -2.1298
   63MOL   H24826412   4.541   6.285   5.380 -0.6939 -0.3856  0.3052
   63MOL   H24926413   4.810   6.389   5.467 -1.6524  1.0883  1.6621
   63MOL   H25026414   4.778   6.218   5.407 -0.3449  0.9895  0.2822
   63MOL   H25126415   4.863   6.333   5.235 -0.2746 -0.6402  2.2993
   63MOL   H25226416   4.696   6.320   5.208  0.0323 -0.7782  0.7837
   63MOL   H25326417   4.777   6.477   5.264  0.4361 -0.3269 -1.9477
   63MOL   C25426418   4.197   6.171   5.748 -0.4835  0.9041  0.1143
   63MOL   C25526419   4.149   6.299   5.819  0.6218 -0.2214  0.0408
   63MOL   C25626420   4.150   6.287   5.970 -0.3735  0.9124  0.4535
   63MOL   C25726421   4.139   6.422   6.037 -0.8061 -0.7974 -0.5181
   63MOL   C25826422   4.200   6.418   6.182 -0.0552 -0.5980  0.3891
   63MOL   C25926423   4.358   6.421   6.195  0.2770 -0.1125  0.2149
   63MOL   C26026424   4.409   6.378   6.334  0.5853  0.1106 -0.5711
   63MOL   H26126425   4.142   6.089   5.794 -2.5927  0.9190 -2.2554
   63MOL   H26226426   4.161   6.177   5.645 -0.7487  0.3326  0.1727
   63MOL   H26326427   4.219   6.381   5.801  0.2445 -0.2912 -1.7786
   63MOL   H26426428   4.240   6.228   5.987 -1.7566 -1.1140  0.9500
   63MOL   H26526429   4.067   6.222   5.998 -0.2562  1.2586  1.6037
   63MOL   H26626430   4.201   6.494   5.984  0.1528 -0.9608  0.3614
   63MOL   H26726431   4.038   6.461   6.038  0.7498  3.4961 -0.2603
   63MOL   H26826432   4.161   6.341   6.249 -2.7417  2.3270  2.3220
   63MOL   H26926433   4.163   6.510   6.228  0.0341 -1.0540  1.3992
   63MOL   H27026434   4.402   6.349   6.126 -0.2384  0.1368 -0.3750
   63MOL   H27126435   4.409   6.513   6.167 -0.2379 -0.6699 -2.6906
   63MOL   H27226436   4.371   6.447   6.409  1.1649 -1.4214  1.1629
   63MOL   H27326437   4.363   6.288   6.375  1.9040  0.6092  2.0980
   63MOL   H27426438   4.516   6.383   6.353  0.4084 -1.5511  0.9645
   63MOL   C27526439   4.006   6.345   5.758 -0.6803 -0.2740 -0.1229
   63MOL   C27626440   3.993   6.383   5.610 -0.4552 -0.7854 -0.4077
   63MOL   C27726441   4.031   6.531   5.590 -0.5965 -0.1300 -0.2227
   63MOL   C27826442   4.072   6.559   5.451  0.0567  0.2202  0.1582
   63MOL   C27926443   4.131   6.697   5.428  0.1243 -0.2373  0.3671
   63MOL   C28026444   4.032   6.811   5.443 -0.4147  0.1114  0.6739
   63MOL   C28126445   4.099   6.943   5.419  0.1195  0.2817 -0.0268
   63MOL   H28226446   3.961   6.417   5.826  0.0156 -1.1415  1.2615
   63MOL   H28326447   3.961   6.246   5.765 -2.1365  0.5727  3.2762
   63MOL   H28426448   4.063   6.330   5.546  1.2899  2.4824 -1.3336
   63MOL   H28526449   3.962   6.594   5.646  0.8244  1.4107 -0.1625
   63MOL   H28626450   4.119   6.548   5.652 -0.4943  1.0743 -0.6884
   63MOL   H28726451   3.984   6.550   5.387 -0.1444 -0.6911  0.5519
   63MOL   H28826452   4.142   6.479   5.429 -0.7274 -0.1312 -1.0728
   63MOL   H28926453   4.157   6.692   5.323 -3.1523  1.0147 -0.5471
   63MOL   H29026454   4.230   6.708   5.472 -0.2889  1.9799  0.7909
   63MOL   H29126455   3.946   6.790   5.381  0.2331 -1.6530  0.3366
   63MOL   H29226456   4.002   6.810   5.548 -1.2202 -0.9145  0.4397
   63MOL   H29326457   4.148   6.979   5.509 -0.5259  2.3792 -0.4831
   63MOL   H29426458   4.024   7.012   5.381 -3.7925 -3.3470  0.7174
   63MOL   H29526459   4.174   6.946   5.339 -1.1687 -1.4778 -1.3460
   63MOL   C29626460   3.852   6.347   5.545  0.3510 -0.2482 -0.6670
   63MOL   C29726461   3.861   6.251   5.424  0.0042  0.2586 -0.1752
   63MOL   C29826462   3.736   6.242   5.339  0.7264 -0.4895  0.0543
   63MOL   C29926463   3.738   6.344   5.223  0.4853 -0.2323  0.3610
   63MOL   C30026464   3.621   6.324   5.125  1.0301  0.0811  0.0779
   63MOL   C30126465   3.641   6.398   4.995 -0.0145 -0.2567 -0.3122
   63MOL   C30226466   3.534   6.357   4.885 -0.3487  0.2112 -0.2054
   63MOL   H30326467   3.787   6.278   5.599 -0.7662  0.7651 -0.6929
   63MOL   H30426468   3.789   6.435   5.534 -0.5044 -0.2685  3.2698
   63MOL   H30526469   3.933   6.284   5.349 -1.2621  0.2922 -1.3990
   63MOL   H30626470   3.720   6.146   5.290  1.1033 -0.0964 -0.8378
   63MOL   H30726471   3.646   6.253   5.400  0.0784 -0.1361 -0.9561
   63MOL   H30826472   3.825   6.331   5.159  0.0012 -3.5147  0.2893
   63MOL   H30926473   3.739   6.444   5.266  2.2762  1.1513 -2.7610
   63MOL   H31026474   3.532   6.364   5.173  1.1870  0.8303 -0.2570
   63MOL   H31126475   3.610   6.216   5.111 -1.3040  0.2854  0.1055
   63MOL   H31226476   3.630   6.506   5.006  0.5376 -0.3203  0.9470
   63MOL   H31326477   3.746   6.391   4.966 -0.0511  1.4604 -0.8878
   63MOL   H31426478   3.555   6.411   4.793 -1.8733  3.4567  1.2624
   63MOL   H31526479   3.537   6.249   4.877 -0.2812  0.3955 -3.3037
   63MOL   H31626480   3.431   6.386   4.904  0.3826  1.4508  2.1007
   63MOL   C31726481   3.912   6.105   5.469  0.1960  0.1385 -0.4640
   63MOL   C31826482   4.039   6.048   5.409 -0.0727 -0.0216 -0.7086
   63MOL   C31926483   4.088   5.918   5.489 -0.8652  0.1830  0.0381
   63MOL   C32026484   3.993   5.797   5.478  0.4310  0.6328 -0.5382
   63MOL   C32126485   4.032   5.668   5.543  0.3557 -0.3078 -0.0821
   63MOL   C32226486   4.165   5.605   5.484  0.0244  0.4152  0.6268
   63MOL   C32326487   4.189   5.452   5.487 -0.1934  0.0662  0.0977
   63MOL   H32426488   3.837   6.025   5.476  0.3580 -0.2708 -2.9065
   63MOL   H32526489   3.924   6.105   5.577 -2.2392  0.2897 -0.1615
   63MOL   H32626490   4.105   6.132   5.426  0.4596 -0.8368  1.4722
   63MOL   H32726491   4.093   5.935   5.597 -1.5894 -1.8683  0.4154
   63MOL   H32826492   4.189   5.892   5.457 -0.6719  1.9355 -0.8444
   63MOL   H32926493   3.972   5.790   5.371 -0.0376  1.9258 -0.5418
   63MOL   H33026494   3.899   5.833   5.520  0.6155 -0.9818  1.3059
   63MOL   H33126495   3.952   5.604   5.506 -0.5608  1.0715 -0.5147
   63MOL   H33226496   4.031   5.671   5.652  1.8887  1.7939 -0.1039
   63MOL   H33326497   4.253   5.649   5.531  0.2216 -0.1244  0.7635
   63MOL   H33426498   4.170   5.639   5.380  4.5885 -0.7691  0.3444
   63MOL   H33526499   4.151   5.406   5.579  0.6641 -0.7465  0.0561
   63MOL   H33626500   4.294   5.426   5.473 -0.2276 -0.1812  0.2863
   63MOL   H33726501   4.136   5.411   5.401  0.6910  0.7920 -0.8060
   63MOL   C33826502   4.034   6.036   5.255  0.4776  0.6802  0.0379
   63MOL   C33926503   4.172   6.014   5.183  0.4210 -0.1432  0.1790
   63MOL   C34026504   4.265   6.140   5.186 -0.1748 -0.1179 -0.0801
   63MOL   C34126505   4.223   6.278   5.121 -0.3996 -0.0146  0.9200
   63MOL   C34226506   4.329   6.380   5.175  0.1874  0.4926 -0.6550
   63MOL   C34326507   4.317   6.523   5.108 -0.7223 -0.0638  0.6989
   63MOL   C34426508   4.412   6.628   5.182 -0.0703  0.1463 -0.2698
   63MOL   H34526509   3.980   6.122   5.213  0.6197  0.3247 -0.8901
   63MOL   H34626510   3.974   5.947   5.239  1.1107  0.4237 -0.9596
   63MOL   H34726511   4.219   5.935   5.241 -4.3676 -1.9936  1.8053
   63MOL   H34826512   4.297   6.154   5.289  2.1745 -1.3437 -0.5986
   63MOL   H34926513   4.362   6.121   5.140 -0.1400  0.3677 -0.2185
   63MOL   H35026514   4.122   6.309   5.150 -0.0491  0.2749  1.8537
   63MOL   H35126515   4.234   6.261   5.014 -0.3790 -2.2060  1.2519
   63MOL   H35226516   4.310   6.384   5.283 -0.9321  0.9491 -0.8636
   63MOL   H35326517   4.429   6.338   5.161 -0.2923 -1.0309  0.3274
   63MOL   H35426518   4.359   6.521   5.008 -0.9461 -0.9334  0.6223
   63MOL   H35526519   4.215   6.563   5.108 -0.9117 -0.4596 -1.5338
   63MOL   H35626520   4.404   6.621   5.291  0.5279  3.8141  0.0921
   63MOL   H35726521   4.397   6.733   5.154  0.2241  0.3985  0.5040
   63MOL   H35826522   4.515   6.597   5.163  0.1286  1.3620 -1.2170
   63MOL   C35926523   4.143   5.976   5.031 -0.9583  0.0732 -0.1729
   63MOL   C36026524   4.255   5.918   4.941 -0.2369  0.1601  0.1823
   63MOL   C36126525   4.321   5.786   4.988 -0.0388 -0.5335 -0.4245
   63MOL   C36226526   4.231   5.671   5.026 -0.9156  0.1798 -0.1237
   63MOL   C36326527   4.316   5.550   5.049  0.4649 -1.0024 -0.5282
   63MOL   C36426528   4.245   5.429   5.113 -0.6541 -0.0044  0.5279
   63MOL   C36526529   4.330   5.314   5.168  0.6162  0.7173  0.3587
   63MOL   H36626530   4.103   6.060   4.974 -0.1582  0.3552 -0.3220
   63MOL   H36726531   4.060   5.905   5.027  0.5049 -1.8225  1.7922
   63MOL   H36826532   4.334   5.992   4.944 -1.4390  1.3916  2.6462
   63MOL   H36926533   4.399   5.770   4.914  1.5315  1.4696  0.7339
   63MOL   H37026534   4.370   5.810   5.083 -1.6376  2.7639 -0.3359
   63MOL   H37126535   4.174   5.706   5.112  0.2624 -0.5472  0.9575
   63MOL   H37226536   4.152   5.660   4.951 -1.1354  0.3623  0.0773
   63MOL   H37326537   4.374   5.521   4.962  1.0936  1.0756 -0.8308
   63MOL   H37426538   4.387   5.586   5.124  0.0836 -1.1050 -0.1107
   63MOL   H37526539   4.177   5.459   5.193  1.1332  4.0170  0.6514
   63MOL   H37626540   4.189   5.376   5.035  0.2278 -2.1392  1.3010
   63MOL   H37726541   4.274   5.227   5.201 -0.6639  0.1643 -3.0198
   63MOL   H37826542   4.396   5.276   5.090  0.4402 -1.6821  1.3325
   63MOL   H37926543   4.397   5.340   5.249  1.9243 -1.6418  0.0831
   63MOL   C38026544   4.209   5.887   4.800  0.4787 -0.2423  0.0154
   63MOL   C38126545   4.317   5.873   4.689  1.1544 -0.1296 -0.1028
   63MOL   C38226546   4.259   5.867   4.545  0.3029  0.3416  0.2215
   63MOL   C38326547   4.174   5.750   4.529  0.2619  0.2471  0.0909
   63MOL   C38426548   4.109   5.739   4.393  0.5705  1.0614 -0.5646
   63MOL   C38526549   4.097   5.595   4.347 -0.1062  1.0505  0.7460
   63MOL   C38626550   3.991   5.516   4.429  0.7603 -0.0503  0.6061
   63MOL   H38726551   4.149   5.795   4.799  1.2725 -0.7833  1.0870
   63MOL   H38826552   4.143   5.971   4.780  0.3320 -0.4767 -0.5052
   63MOL   H38926553   4.378   5.783   4.695  1.6519  0.1603 -0.7773
   63MOL   H39026554   4.343   5.871   4.476  0.3300  1.7523  0.3214
   63MOL   H39126555   4.195   5.949   4.513 -0.2230  0.7879  2.3174
   63MOL   H39226556   4.219   5.657   4.562 -0.6793 -0.4412 -0.5270
   63MOL   H39326557   4.091   5.768   4.597  0.3662  0.5564  0.1345
   63MOL   H39426558   4.012   5.790   4.381  0.9243  1.3355 -2.4152
   63MOL   H39526559   4.163   5.794   4.316 -0.8806  3.5480  0.1277
   63MOL   H39626560   4.196   5.550   4.356 -0.3409  0.2740 -0.3872
   63MOL   H39726561   4.073   5.604   4.241 -0.7911  0.7224  0.8677
   63MOL   H39826562   4.020   5.493   4.532 -1.7528 -2.0168  0.9437
   63MOL   H39926563   3.959   5.426   4.376 -2.3260  0.6644  1.1392
   63MOL   H40026564   3.900   5.571   4.452  1.2670  1.6728 -1.4367
   63MOL   C40126565   4.424   5.986   4.688  0.1826 -0.0304  0.5494
   63MOL   C40226566   4.386   6.138   4.665 -0.2305  0.8964 -0.5983
   63MOL   C40326567   4.492   6.244   4.683  0.0062 -0.4702  0.5061
   63MOL   C40426568   4.504   6.283   4.828 -0.4393  0.2695  0.1390
   63MOL   C40526569   4.615   6.383   4.859  0.4648  0.5612  0.7710
   63MOL   C40626570   4.756   6.332   4.869  0.1222 -0.5155  0.3972
   63MOL   C40726571   4.857   6.440   4.919  0.7754  0.9113  0.0510
   63MOL   H40826572   4.501   5.948   4.621  1.0871 -0.6280  1.9031
   63MOL   H40926573   4.477   5.982   4.783  0.7705 -2.0619  0.1763
   63MOL   H41026574   4.295   6.164   4.720 -0.7700  0.1748 -1.1398
   63MOL   H41126575   4.461   6.321   4.611 -2.5228 -0.9571  1.0328
   63MOL   H41226576   4.589   6.209   4.648 -0.3019  0.7416 -1.7120
   63MOL   H41326577   4.521   6.194   4.888  1.4550  0.2126 -0.4478
   63MOL   H41426578   4.408   6.319   4.864 -0.0432  0.4592  1.0302
   63MOL   H41526579   4.604   6.465   4.788  1.6237 -0.9312 -1.1779
   63MOL   H41626580   4.591   6.441   4.948 -0.4093  0.6278  0.4920
   63MOL   H41726581   4.762   6.251   4.942  2.2965  0.1765  1.0329
   63MOL   H41826582   4.797   6.297   4.774  1.5115  1.1231  0.3609
   63MOL   H41926583   4.827   6.472   5.019 -2.3350  0.0871 -0.5955
   63MOL   H42026584   4.860   6.524   4.850  1.3504 -0.0926 -1.1705
   63MOL   H42126585   4.959   6.401   4.928  0.6612  0.8788  1.2254
   63MOL   H42226586   4.353   6.154   4.562  0.1473  1.5234 -0.6294
   64MOL     C126587   4.431   4.108   0.846 -0.1719 -0.3027  0.0716
   64MOL     C226588   4.387   4.133   0.701 -0.4524  0.6233 -0.0700
   64MOL     C326589   4.438   4.031   0.596 -0.0867  0.0688  0.2215
   64MOL     C426590   4.322   3.963   0.512 -0.8772  0.3398  0.2419
   64MOL     C526591   4.260   3.840   0.579 -0.0614 -0.3292 -1.0406
   64MOL     C626592   4.119   3.806   0.543 -0.0713  0.4333 -0.5082
   64MOL     C726593   4.019   3.887   0.625 -0.2092  0.0422  0.0240
   64MOL     H826594   4.417   4.004   0.875  1.3222 -0.6413 -0.4041
   64MOL     H926595   4.388   4.179   0.917 -0.8244  0.2433 -0.8622
   64MOL    H1026596   4.279   4.131   0.695 -0.5954  2.2116  1.5204
   64MOL    H1126597   4.508   4.074   0.525 -1.5505  0.8583 -0.7778
   64MOL    H1226598   4.507   3.961   0.644 -0.2868  0.4217  1.0308
   64MOL    H1326599   4.241   4.031   0.485 -1.1160  0.3138  0.8833
   64MOL    H1426600   4.366   3.928   0.419  1.4486 -1.9876  2.1357
   64MOL    H1526601   4.259   3.852   0.688 -1.2500 -0.4439 -1.0275
   64MOL    H1626602   4.332   3.759   0.565  0.1667 -0.8653  2.6453
   64MOL    H1726603   4.112   3.700   0.568  1.5951  0.5248  0.4092
   64MOL    H1826604   4.106   3.812   0.435 -0.2612 -0.4197 -0.5357
   64MOL    H1926605   3.916   3.859   0.606  0.2856 -0.8263 -1.4816
   64MOL    H2026606   4.026   3.991   0.595 -0.0320  0.5182  1.6585
   64MOL    H2126607   4.034   3.878   0.733 -2.8936  0.2867  0.4606
   64MOL    H2226608   4.539   4.108   0.859 -0.3082  1.2563  1.3340
   64MOL    C2326609   4.433   4.271   0.655  0.8394 -0.6120  0.9039
   64MOL    C2426610   4.381   4.333   0.524 -0.2625  0.3862  0.0525
   64MOL    C2526611   4.468   4.460   0.492  0.3734 -0.6958 -0.2581
   64MOL    C2626612   4.610   4.427   0.448  0.5666  0.2333  0.2103
   64MOL    C2726613   4.716   4.539   0.457  0.1121  0.2990  0.3205
   64MOL    C2826614   4.703   4.637   0.338  0.7543  1.0300  0.0163
   64MOL    C2926615   4.752   4.778   0.373 -0.1955  1.0983 -0.4795
   64MOL    H3026616   4.395   4.342   0.728  1.3605  0.6784 -0.0555
   64MOL    H3126617   4.542   4.272   0.662  0.7809 -0.5474  1.7792
   64MOL    H3226618   4.405   4.260   0.446  4.1371  1.2334  0.5002
   64MOL    H3326619   4.462   4.525   0.579  1.0905  0.2997 -0.9455
   64MOL    H3426620   4.425   4.525   0.416 -1.8630 -3.2032 -1.2023
   64MOL    H3526621   4.611   4.380   0.350  0.6603 -1.0981  0.8407
   64MOL    H3626622   4.652   4.350   0.514  0.1446 -0.1882 -0.0125
   64MOL    H3726623   4.819   4.502   0.461 -0.4191 -1.3445 -0.8398
   64MOL    H3826624   4.698   4.574   0.559 -1.7959  1.3082 -0.3467
   64MOL    H3926625   4.601   4.656   0.304  0.3692 -0.9372 -0.0276
   64MOL    H4026626   4.749   4.597   0.247 -1.8461 -0.9745 -0.4939
   64MOL    H4126627   4.694   4.814   0.458 -2.7054 -0.4779 -1.4714
   64MOL    H4226628   4.850   4.758   0.416 -0.8162 -0.0534  0.4396
   64MOL    H4326629   4.757   4.854   0.295 -0.5101  0.1208 -1.4576
   64MOL    C4426630   4.227   4.353   0.528 -0.0596 -0.1428 -0.3785
   64MOL    C4526631   4.166   4.393   0.389 -0.2237 -0.5749 -0.1036
   64MOL    C4626632   4.025   4.331   0.382  0.3396  0.4936  0.5181
   64MOL    C4726633   3.941   4.341   0.251 -0.0306 -0.3612 -0.0717
   64MOL    C4826634   3.797   4.288   0.260 -0.6018  0.3649 -0.3069
   64MOL    C4926635   3.723   4.327   0.130  0.8125  0.1858 -0.4355
   64MOL    C5026636   3.579   4.286   0.135 -0.3668  0.2248  0.6136
   64MOL    H5126637   4.198   4.424   0.606 -0.1915 -0.7159  0.0965
   64MOL    H5226638   4.184   4.256   0.554 -0.0223 -0.0086  0.1928
   64MOL    H5326639   4.224   4.338   0.314 -2.3329 -2.1990 -0.5837
   64MOL    H5426640   3.963   4.374   0.460 -0.2260 -0.5208  0.6442
   64MOL    H5526641   4.035   4.225   0.407  0.4994  0.8470  2.0094
   64MOL    H5626642   3.924   4.449   0.247 -0.9288 -0.4717  0.4137
   64MOL    H5726643   4.005   4.313   0.168 -0.6968  1.0560 -1.0935
   64MOL    H5826644   3.737   4.307   0.349 -1.1276 -2.7452  0.0635
   64MOL    H5926645   3.811   4.180   0.259 -0.5897  0.3569 -2.5066
   64MOL    H6026646   3.770   4.268   0.050 -0.7762 -1.5231 -0.1541
   64MOL    H6126647   3.726   4.435   0.119  1.0087  0.1922 -0.3180
   64MOL    H6226648   3.526   4.299   0.040  0.2491 -0.0947  0.2202
   64MOL    H6326649   3.532   4.350   0.209 -3.2975 -2.1043  0.8498
   64MOL    H6426650   3.559   4.182   0.163 -2.3811  0.0655 -1.2302
   64MOL    C6526651   4.161   4.549   0.361 -0.6427  0.0189  0.2133
   64MOL    C6626652   4.180   4.595   0.218  0.3256 -0.3054 -0.1406
   64MOL    C6726653   4.308   4.540   0.151 -0.2039 -0.1636  0.3788
   64MOL    C6826654   4.341   4.579   0.005  0.1988  0.4068 -0.0355
   64MOL    C6926655   4.401   4.456   7.636 -0.1030 -0.6191  0.6214
   64MOL    C7026656   4.293   4.361   7.584 -0.0855 -0.4990 -0.2659
   64MOL    C7126657   4.346   4.249   7.493 -0.1999 -0.2197  0.0022
   64MOL    H7226658   4.066   4.595   0.388 -0.5341  0.7710 -0.6676
   64MOL    H7326659   4.237   4.599   0.421  0.7739 -0.4002 -1.2083
   64MOL    H7426660   4.101   4.555   0.154  1.3062  0.0534 -1.6017
   64MOL    H7526661   4.395   4.570   0.209  1.1178  0.9753 -2.1113
   64MOL    H7626662   4.297   4.431   0.153  1.6284 -0.3501  1.1774
   64MOL    H7726663   4.249   4.610   7.668 -0.2264 -1.0598 -0.1789
   64MOL    H7826664   4.394   4.674   0.016 -1.3531  1.2477  0.3265
   64MOL    H7926665   4.441   4.497   7.543 -0.6158 -0.5868  0.4119
   64MOL    H8026666   4.478   4.399   7.688  0.0620 -1.8149 -0.8955
   64MOL    H8126667   4.228   4.418   7.518  0.1699 -0.4913 -0.5127
   64MOL    H8226668   4.248   4.316   7.673  0.9679  0.3577  0.7260
   64MOL    H8326669   4.391   4.172   7.555  0.5279 -0.9942 -1.4586
   64MOL    H8426670   4.263   4.199   7.442  0.1552  0.9059 -1.7211
   64MOL    H8526671   4.411   4.275   7.410  0.2640 -0.0182  0.4300
   64MOL    C8626672   4.162   4.751   0.222 -0.2934 -0.5180  0.1352
   64MOL    C8726673   4.286   4.843   0.271  0.5046 -0.9005  0.5229
   64MOL    C8826674   4.345   4.934   0.159  0.0258  0.7676 -0.2076
   64MOL    C8926675   4.251   5.049   0.116  0.3687  0.8102  1.0713
   64MOL    C9026676   4.327   5.162   0.051 -0.1414 -0.0637 -0.3744
   64MOL    C9126677   4.252   5.292   0.032  0.0847 -0.1751 -0.1259
   64MOL    C9226678   4.342   5.402   7.691  0.2236  0.1940 -0.0238
   64MOL    H9326679   4.143   4.782   0.119  2.0762  2.5135  0.5387
   64MOL    H9426680   4.063   4.770   0.264  0.6911  1.8977  1.4263
   64MOL    H9526681   4.370   4.775   0.286  0.0655 -1.7398 -0.6915
   64MOL    H9626682   4.436   4.979   0.199  1.1498  0.0132 -1.9164
   64MOL    H9726683   4.394   4.874   0.083 -3.0266  0.5923 -2.1070
   64MOL    H9826684   4.180   5.006   0.045  0.1581  2.2080  0.4067
   64MOL    H9926685   4.187   5.089   0.195 -0.4114 -1.6140  1.6917
   64MOL   H10026686   4.391   5.123   7.686  0.7660  0.3685  0.1461
   64MOL   H10126687   4.401   5.186   0.127 -2.2128 -3.4628  2.9172
   64MOL   H10226688   4.159   5.279   7.689 -0.9138  2.1158  0.9140
   64MOL   H10326689   4.215   5.332   0.126  1.3746  0.1088  0.2639
   64MOL   H10426690   4.395   5.379   7.599  2.7706 -0.5714  1.5905
   64MOL   H10526691   4.413   5.435   0.053  0.6106  2.2280 -1.2257
   64MOL   H10626692   4.281   5.492   7.677 -0.8358 -0.2917  1.2942
   64MOL   C10726693   4.245   4.925   0.395  0.0013 -0.1068  0.3056
   64MOL   C10826694   4.220   4.853   0.529  0.0099  0.2392  0.0192
   64MOL   C10926695   4.353   4.793   0.588  0.1873 -0.4657  0.9387
   64MOL   C11026696   4.445   4.903   0.636  0.7744  0.0750 -0.1419
   64MOL   C11126697   4.557   4.854   0.722  0.4127 -0.0387 -0.4004
   64MOL   C11226698   4.641   4.958   0.793 -0.3018 -0.0000  0.6866
   64MOL   C11326699   4.691   5.063   0.690  0.0155 -1.1518  1.2418
   64MOL   H11426700   4.160   4.990   0.372  2.5574  3.3254  0.1655
   64MOL   H11526701   4.319   5.005   0.402  0.0042 -0.1063  0.2627
   64MOL   H11626702   4.150   4.772   0.508  1.1210  0.2382 -4.0785
   64MOL   H11726703   4.415   4.744   0.513 -1.9957 -0.4174 -0.9569
   64MOL   H11826704   4.321   4.726   0.668  0.7719 -3.0952 -0.9439
   64MOL   H11926705   4.474   4.964   0.551  2.9065  0.2424  0.6695
   64MOL   H12026706   4.383   4.961   0.704  0.4285 -2.7208  2.0425
   64MOL   H12126707   4.624   4.801   0.654  0.6206  1.9048 -1.7270
   64MOL   H12226708   4.520   4.777   0.790  0.2070  0.8830  0.5428
   64MOL   H12326709   4.589   5.013   0.871 -0.6752 -0.4642  0.7669
   64MOL   H12426710   4.730   4.915   0.838  0.0822 -1.8862 -1.7912
   64MOL   H12526711   4.772   5.123   0.732 -2.1425  3.6564 -0.9700
   64MOL   H12626712   4.728   5.025   0.594  1.0548  2.0032  0.3095
   64MOL   H12726713   4.610   5.133   0.668  0.4682 -0.5367  1.5192
   64MOL   C12826714   4.132   4.930   0.632 -0.0220  0.5240  0.0459
   64MOL   C12926715   4.081   4.849   0.760  0.0323  0.3674 -0.0212
   64MOL   C13026716   3.982   4.735   0.729 -0.6593  0.5825  0.7304
   64MOL   C13126717   3.845   4.769   0.665 -0.3232 -0.4959 -0.1768
   64MOL   C13226718   3.757   4.645   0.648 -0.3554 -0.2840  0.0273
   64MOL   C13326719   3.619   4.679   0.583 -0.7197  0.1342  0.2649
   64MOL   C13426720   3.623   4.719   0.438  0.1462 -0.3646  0.0181
   64MOL   H13526721   4.163   5.031   0.657  3.1514 -0.1094 -1.1241
   64MOL   H13626722   4.044   4.960   0.575 -0.4691  0.2051  0.5682
   64MOL   H13726723   4.170   4.794   0.792  0.4075  0.2793 -1.1825
   64MOL   H13826724   3.957   4.675   0.816 -1.6663 -2.9652 -1.8736
   64MOL   H13926725   4.025   4.662   0.660  0.0697  0.6400  1.1215
   64MOL   H14026726   3.867   4.823   0.573 -0.2365  0.3040  0.3095
   64MOL   H14126727   3.792   4.844   0.724 -1.0254 -0.7551 -0.4763
   64MOL   H14226728   3.732   4.609   0.748  0.8934 -2.8300 -0.5424
   64MOL   H14326729   3.807   4.563   0.598  2.0302  2.5672 -2.4823
   64MOL   H14426730   3.560   4.760   0.627 -0.4196  0.3553  0.2594
   64MOL   H14526731   3.554   4.592   0.589 -2.4180  1.3895  0.5910
   64MOL   H14626732   3.527   4.718   0.386 -0.1396  0.6907  0.5134
   64MOL   H14726733   3.694   4.661   0.377 -0.4196  2.1133 -3.1367
   64MOL   H14826734   3.676   4.814   0.445 -1.3093  0.4531 -0.0105
   64MOL   C14926735   4.030   4.934   0.880  0.4111 -0.5939 -0.1662
   64MOL   C15026736   4.142   4.964   0.982 -0.1130  0.0075  0.6128
   64MOL   C15126737   4.186   4.827   1.056  0.4704  0.1839  0.1667
   64MOL   C15226738   4.334   4.789   1.061  0.0394 -0.0947 -1.1379
   64MOL   C15326739   4.364   4.679   1.163  0.2424 -0.1244 -0.2337
   64MOL   C15426740   4.518   4.658   1.181  0.5446  0.1549  0.2573
   64MOL   C15526741   4.596   4.620   1.057 -0.1714  0.1440 -0.2992
   64MOL   H15626742   3.974   5.023   0.850  2.6185  1.4599  1.5342
   64MOL   H15726743   3.961   4.867   0.932  1.0235 -2.2750 -1.4676
   64MOL   H15826744   4.230   4.991   0.924 -0.5314 -0.9354 -0.5066
   64MOL   H15926745   4.148   4.832   1.158  1.5494  0.4123  0.5674
   64MOL   H16026746   4.130   4.743   1.016 -2.5273  2.1161  0.1597
   64MOL   H16126747   4.395   4.874   1.092 -0.9411  0.1920  0.0574
   64MOL   H16226748   4.371   4.746   0.968 -0.9154 -1.6832 -0.7855
   64MOL   H16326749   4.304   4.594   1.132  3.1727 -1.8278 -1.4179
   64MOL   H16426750   4.328   4.711   1.260  0.0858  2.6298 -1.1452
   64MOL   H16526751   4.530   4.575   1.252  1.9709  0.3524  0.2765
   64MOL   H16626752   4.561   4.747   1.227 -0.1045  0.5515  0.0978
   64MOL   H16726753   4.565   4.527   1.008 -2.1409  0.7229 -0.1702
   64MOL   H16826754   4.703   4.625   1.076 -0.2112  0.9112 -0.2800
   64MOL   H16926755   4.585   4.703   0.988  0.2557  1.4256  1.1672
   64MOL   C17026756   4.104   5.076   1.074  0.0517 -0.1817  0.2161
   64MOL   C17126757   4.087   5.218   1.009 -0.1636 -0.5957 -0.4262
   64MOL   C17226758   3.989   5.301   1.096 -0.1864  0.5440 -0.1522
   64MOL   C17326759   3.959   5.444   1.049 -0.0379  0.3108 -0.1616
   64MOL   C17426760   3.881   5.523   1.160 -0.9848  0.7457  0.4076
   64MOL   C17526761   3.857   5.666   1.110  0.6335 -0.1301 -0.2275
   64MOL   C17626762   3.728   5.681   1.024  0.2020 -0.2929 -0.0224
   64MOL   H17726763   4.168   5.074   1.162  0.1696  0.1009  0.1379
   64MOL   H17826764   4.007   5.040   1.108 -0.6754  2.0164  0.5241
   64MOL   H17926765   4.050   5.225   0.906  2.4759  0.2044 -1.3783
   64MOL   H18026766   4.009   5.297   1.203 -1.7273  0.4683  0.1454
   64MOL   H18126767   3.896   5.246   1.096  0.4239 -0.6863  4.0825
   64MOL   H18226768   3.894   5.439   0.962  1.4260  0.3673 -1.2802
   64MOL   H18326769   4.045   5.508   1.027 -1.9550  2.4179 -1.8168
   64MOL   H18426770   3.943   5.524   1.250 -0.4766  1.1917  0.0558
   64MOL   H18526771   3.789   5.474   1.192 -1.6314  0.5008 -1.7996
   64MOL   H18626772   3.943   5.707   1.057 -0.6719  1.6032 -1.0470
   64MOL   H18726773   3.844   5.738   1.190 -1.1494 -1.0840  0.3579
   64MOL   H18826774   3.640   5.643   1.074 -0.5723 -2.1858 -2.6779
   64MOL   H18926775   3.753   5.628   0.931  0.0929  0.9477 -0.7700
   64MOL   H19026776   3.720   5.786   0.997  0.6390 -0.0419  0.8129
   64MOL   C19126777   4.220   5.297   0.996 -0.1423 -0.2566 -0.1822
   64MOL   C19226778   4.235   5.390   0.870  0.0559  0.1138  0.6443
   64MOL   C19326779   4.346   5.491   0.887 -0.4872  0.0064 -0.5195
   64MOL   C19426780   4.302   5.602   0.981 -0.0898 -0.0039  0.3762
   64MOL   C19526781   4.411   5.709   1.003  0.3301 -0.4350  0.4695
   64MOL   C19626782   4.519   5.672   1.109 -0.1557 -0.4348 -0.1142
   64MOL   C19726783   4.624   5.777   1.147  0.5439  0.3373  0.2203
   64MOL   H19826784   4.299   5.222   0.992  1.9869  1.8041  1.5908
   64MOL   H19926785   4.235   5.351   1.090  1.7274 -0.7681 -0.1749
   64MOL   H20026786   4.142   5.443   0.852  1.1902  1.3660 -1.6999
   64MOL   H20126787   4.392   5.527   0.795 -0.2707  0.1363 -0.3592
   64MOL   H20226788   4.436   5.452   0.935  0.3056  0.1485 -1.8616
   64MOL   H20326789   4.276   5.564   1.080  1.6303 -1.1321  0.4279
   64MOL   H20426790   4.211   5.649   0.943 -0.0883  0.7744  1.3271
   64MOL   H20526791   4.444   5.757   0.910 -2.0199 -0.9984 -0.6935
   64MOL   H20626792   4.359   5.788   1.057  1.0798 -2.1011  3.7467
   64MOL   H20726793   4.561   5.578   1.075  0.2152 -1.1520  2.2366
   64MOL   H20826794   4.482   5.633   1.204 -2.1473  1.4335 -0.0767
   64MOL   H20926795   4.571   5.860   1.194 -0.4249 -0.4867  0.6114
   64MOL   H21026796   4.681   5.815   1.063  1.3664 -0.5103  0.3858
   64MOL   H21126797   4.698   5.753   1.223  0.7812  1.7270  0.4527
   64MOL   C21226798   4.280   5.310   0.743  0.0413 -0.0627 -0.3253
   64MOL   C21326799   4.249   5.379   0.599  0.6781 -0.2268 -0.0058
   64MOL   C21426800   4.329   5.308   0.489  0.9652 -0.0315 -0.7944
   64MOL   C21526801   4.477   5.343   0.486 -0.5592 -0.2715 -0.5859
   64MOL   C21626802   4.544   5.288   0.361 -0.6701  0.0218 -0.2426
   64MOL   C21726803   4.696   5.323   0.345  0.6068 -0.3316 -0.3132
   64MOL   C21826804   4.754   5.294   0.208 -0.1939 -0.3830 -0.6714
   64MOL   H21926805   4.227   5.215   0.740 -0.2363  0.1106 -1.2669
   64MOL   H22026806   4.386   5.283   0.746 -0.5183 -2.1940  2.0412
   64MOL   H22126807   4.266   5.485   0.616  2.3961 -0.6136  0.7938
   64MOL   H22226808   4.314   5.200   0.485  2.1984 -0.2405 -0.0964
   64MOL   H22326809   4.293   5.334   0.390 -0.6060 -2.4899 -0.9125
   64MOL   H22426810   4.529   5.303   0.574  1.4901  1.0579 -1.1726
   64MOL   H22526811   4.490   5.446   0.518 -0.0850 -0.7127  0.7218
   64MOL   H22626812   4.525   5.181   0.367  0.8457 -0.1487  2.2720
   64MOL   H22726813   4.488   5.329   0.277 -1.7578 -0.2756  0.3407
   64MOL   H22826814   4.721   5.426   0.368  0.9373 -0.7478  1.2008
   64MOL   H22926815   4.744   5.266   0.424  0.1870 -0.0769  0.1292
   64MOL   H23026816   4.713   5.369   0.142 -1.3003 -0.8971 -0.5700
   64MOL   H23126817   4.733   5.197   0.163 -0.2376 -0.5917 -0.2114
   64MOL   H23226818   4.863   5.305   0.216 -0.5323  1.0256  2.5868
   64MOL   C23326819   4.103   5.376   0.561  0.4173  0.5055 -0.5090
   64MOL   C23426820   4.045   5.457   0.441  0.5207  0.0442 -0.2593
   64MOL   C23526821   3.902   5.393   0.404 -0.1992 -0.2911  0.5857
   64MOL   C23626822   3.916   5.266   0.320  0.1797  0.2244  0.5764
   64MOL   C23726823   3.779   5.208   0.304  0.7785 -0.4847 -0.5527
   64MOL   C23826824   3.774   5.074   0.228 -0.1057  0.1190  0.1305
   64MOL   C23926825   3.750   5.088   0.078 -0.0372  0.4192  0.0763
   64MOL   H24026826   4.045   5.407   0.648  3.1069  1.8112  0.8857
   64MOL   H24126827   4.090   5.269   0.539 -0.4854  0.4704  0.1794
   64MOL   H24226828   4.117   5.431   0.364 -0.0071  1.2935 -1.1821
   64MOL   H24326829   3.838   5.459   0.346 -0.6143  0.1911  1.5797
   64MOL   H24426830   3.851   5.375   0.499  0.0985  0.1617  0.8333
   64MOL   H24526831   3.977   5.197   0.378 -1.6776 -0.9176  1.2299
   64MOL   H24626832   3.986   5.281   0.238  0.5127 -2.7546  0.2863
   64MOL   H24726833   3.705   5.274   0.259 -0.2651 -0.8202  0.6357
   64MOL   H24826834   3.749   5.172   0.403  0.7399 -0.7994 -0.6797
   64MOL   H24926835   3.868   5.021   0.243 -1.3043 -1.6851  1.4280
   64MOL   H25026836   3.693   5.017   0.273 -0.2749  0.1449 -0.1365
   64MOL   H25126837   3.671   5.159   0.053  0.3701  0.2713 -1.7085
   64MOL   H25226838   3.826   5.128   0.011 -0.3069  2.6731  1.0595
   64MOL   H25326839   3.722   4.988   0.045 -2.5333  2.2063 -3.6233
   64MOL   C25426840   4.036   5.605   0.471  0.6321 -0.1747 -0.1570
   64MOL   C25526841   4.036   5.686   0.342  0.1948 -0.2033  0.1816
   64MOL   C25626842   4.167   5.672   0.251  0.5570  0.1120 -0.7030
   64MOL   C25726843   4.297   5.704   0.327 -0.6908 -0.1174 -0.5476
   64MOL   C25826844   4.423   5.733   0.240  0.2270 -0.6501  0.1965
   64MOL   C25926845   4.523   5.818   0.317 -0.0833 -0.3709  0.1109
   64MOL   C26026846   4.564   5.751   0.447  0.0251 -0.2167 -0.2765
   64MOL   H26126847   4.113   5.644   0.538  1.4839 -1.3525 -0.4305
   64MOL   H26226848   3.944   5.605   0.529  1.5583 -1.6793  1.3348
   64MOL   H26326849   3.962   5.655   0.268 -0.2079  0.9187  0.1021
   64MOL   H26426850   4.148   5.733   0.163 -0.3987 -2.5312 -2.3921
   64MOL   H26526851   4.180   5.569   0.217  3.1418 -0.7358  2.5554
   64MOL   H26626852   4.287   5.787   0.397  0.1753 -0.9003  0.5315
   64MOL   H26726853   4.309   5.620   0.395 -1.0963 -0.6858 -1.1767
   64MOL   H26826854   4.392   5.778   0.146  1.8777 -2.0805 -1.0678
   64MOL   H26926855   4.463   5.634   0.221  0.8026 -0.1793 -1.0833
   64MOL   H27026856   4.611   5.822   0.254 -0.7250 -2.8937 -1.0236
   64MOL   H27126857   4.486   5.919   0.334 -0.7743 -0.2622 -1.9053
   64MOL   H27226858   4.623   5.814   0.514 -0.0617 -2.1601  1.6932
   64MOL   H27326859   4.474   5.721   0.502 -1.3892  2.4518 -1.0268
   64MOL   H27426860   4.633   5.669   0.429  1.1060  0.0587  2.3645
   64MOL   C27526861   4.001   5.841   0.370  0.2302  0.5451 -0.2269
   64MOL   C27626862   3.869   5.872   0.442  0.1422  0.0825  0.0976
   64MOL   C27726863   3.864   5.862   0.599  0.8785  0.3718 -0.6314
   64MOL   C27826864   3.989   5.912   0.679  0.0889  0.2267  0.5093
   64MOL   C27926865   3.997   5.889   0.825  0.2710  0.5034 -0.3663
   64MOL   C28026866   4.080   5.973   0.921 -0.8168  0.7067  0.2058
   64MOL   C28126867   4.040   5.971   1.067 -0.1889 -0.5848  0.2379
   64MOL   H28226868   4.016   5.902   0.280 -0.4179  0.4479 -0.4022
   64MOL   H28326869   4.078   5.872   0.440  0.4191 -0.0327 -0.1769
   64MOL   H28426870   3.851   5.978   0.421  1.8664  0.3497 -0.1176
   64MOL   H28526871   3.779   5.920   0.634  0.5175 -0.5072 -0.0256
   64MOL   H28626872   3.838   5.761   0.630  0.0181  1.0371  0.9192
   64MOL   H28726873   4.001   6.018   0.655  0.4144 -0.4289 -2.5235
   64MOL   H28826874   4.079   5.865   0.638  0.5402  2.3819 -1.0653
   64MOL   H28926875   4.015   5.783   0.843 -0.3303  0.3218 -0.8417
   64MOL   H29026876   3.894   5.904   0.858 -0.2530  2.6653 -2.8507
   64MOL   H29126877   4.185   5.944   0.909 -1.0705  0.4236 -1.5483
   64MOL   H29226878   4.089   6.077   0.887  1.6163  0.3642 -0.3108
   64MOL   H29326879   4.077   6.058   1.123  0.5255 -0.7868  0.0780
   64MOL   H29426880   4.083   5.884   1.116 -1.5194 -1.3261  0.1154
   64MOL   H29526881   3.933   5.960   1.088  0.0123 -3.5696 -0.0734
   64MOL   C29626882   3.763   5.794   0.359  0.0835  0.9662  0.2884
   64MOL   C29726883   3.619   5.859   0.363  0.0818 -0.4356  1.1985
   64MOL   C29826884   3.498   5.759   0.343  0.2976  0.0642 -0.0135
   64MOL   C29926885   3.508   5.635   0.433  0.7831  0.1961  0.1646
   64MOL   C30026886   3.495   5.664   0.585 -0.3248  0.4136 -0.1921
   64MOL   C30126887   3.497   5.546   0.685  0.4093 -0.0406 -0.0305
   64MOL   C30226888   3.448   5.573   0.826  0.1506  0.4838 -0.3579
   64MOL   H30326889   3.787   5.800   0.253  0.3293 -3.3631  0.0105
   64MOL   H30426890   3.750   5.690   0.391  0.1565  0.7595 -0.3568
   64MOL   H30526891   3.610   5.905   0.461 -1.2733  1.4127  0.2498
   64MOL   H30626892   3.407   5.816   0.361 -0.6401 -0.7707 -1.8755
   64MOL   H30726893   3.488   5.717   0.243 -1.7997  2.2955 -0.7933
   64MOL   H30826894   3.591   5.569   0.406 -0.5526 -1.4979  0.1512
   64MOL   H30926895   3.422   5.578   0.398 -0.1147  1.5044  0.1878
   64MOL   H31026896   3.404   5.721   0.604  0.1003  0.6630  1.1357
   64MOL   H31126897   3.580   5.724   0.616  1.4182 -1.9988 -0.1416
   64MOL   H31226898   3.431   5.467   0.647  1.1409 -0.6736  0.0025
   64MOL   H31326899   3.595   5.500   0.692 -0.2198 -1.0793  2.3486
   64MOL   H31426900   3.500   5.660   0.867 -1.6949  0.8299  1.3257
   64MOL   H31526901   3.339   5.574   0.828  0.1145 -1.3777 -0.4285
   64MOL   H31626902   3.484   5.495   0.893  0.7413  0.3440 -0.8320
   64MOL   C31726903   3.591   5.992   0.277 -0.2879 -0.1320 -0.4438
   64MOL   C31826904   3.459   6.071   0.279  0.5310 -0.8207  0.0477
   64MOL   C31926905   3.415   6.115   0.429  0.9803  0.3726 -0.0020
   64MOL   C32026906   3.291   6.194   0.440  0.3849 -0.6218 -0.0248
   64MOL   C32126907   3.248   6.257   0.580 -0.5299  0.9851  0.4293
   64MOL   C32226908   3.117   6.330   0.585  0.4489  0.3078  0.6171
   64MOL   C32326909   3.036   6.322   0.713  0.3739 -0.3786  0.6075
   64MOL   H32426910   3.622   5.971   0.175 -0.3965  1.3585 -0.7937
   64MOL   H32526911   3.653   6.073   0.315 -3.3230  1.7138  0.7507
   64MOL   H32626912   3.375   6.008   0.252  1.6252 -1.3845 -2.1281
   64MOL   H32726913   3.498   6.174   0.467  1.8636 -1.4094  0.9237
   64MOL   H32826914   3.410   6.029   0.495 -1.3614  0.1565 -0.4441
   64MOL   H32926915   3.210   6.130   0.406  0.2850  0.4767 -1.9214
   64MOL   H33026916   3.290   6.290   0.388 -2.6934 -0.0229  1.0610
   64MOL   H33126917   3.323   6.330   0.612 -0.3105  1.0914 -0.3216
   64MOL   H33226918   3.232   6.185   0.660  1.1748  1.3290  1.0883
   64MOL   H33326919   3.057   6.307   0.496  0.3066 -0.0544  0.8052
   64MOL   H33426920   3.139   6.435   0.571  0.6157 -0.0615 -2.2943
   64MOL   H33526921   3.002   6.219   0.720 -0.4088 -0.2437 -0.9568
   64MOL   H33626922   2.956   6.392   0.738 -0.7938 -1.6916  0.5926
   64MOL   H33726923   3.105   6.337   0.796  0.8503 -0.4934  0.2320
   64MOL   C33826924   3.462   6.185   0.169  0.2590  0.6743 -0.6825
   64MOL   C33926925   3.502   6.160   0.022 -0.3620 -1.0002  0.2693
   64MOL   C34026926   3.500   6.303   7.670 -0.0781  0.7595 -0.1044
   64MOL   C34126927   3.533   6.308   7.520 -0.2163  0.1205 -0.2408
   64MOL   C34226928   3.522   6.450   7.466  0.1986 -0.4198  0.2222
   64MOL   C34326929   3.555   6.457   7.313 -0.3280  0.4539 -0.6491
   64MOL   C34426930   3.516   6.594   7.250  0.2237 -0.2924  0.4193
   64MOL   H34526931   3.524   6.263   0.213  1.2905  0.2309 -1.3291
   64MOL   H34626932   3.363   6.233   0.173  0.1910  0.5913 -1.2902
   64MOL   H34726933   3.610   6.150   0.025 -0.4320 -2.0037 -0.2586
   64MOL   H34826934   3.406   6.356   7.680  1.3913  3.2678  0.9598
   64MOL   H34926935   3.566   6.374   0.006  0.6313  0.8638 -1.1645
   64MOL   H35026936   3.463   6.243   7.466  0.6458 -0.8148 -0.2402
   64MOL   H35126937   3.633   6.270   7.505  0.6254  2.4399 -0.7177
   64MOL   H35226938   3.423   6.489   7.488  0.6562  1.2146 -0.5808
   64MOL   H35326939   3.596   6.514   7.514  0.6227  0.4177 -1.5220
   64MOL   H35426940   3.662   6.442   7.308 -0.5754 -1.1838 -1.3172
   64MOL   H35526941   3.500   6.378   7.263  0.9834 -1.0324  0.2315
   64MOL   H35626942   3.552   6.605   7.147 -1.1590 -0.2632 -0.0763
   64MOL   H35726943   3.548   6.684   7.303 -2.8010  1.0820  0.0445
   64MOL   H35826944   3.408   6.607   7.242  0.2828 -0.1759 -0.2265
   64MOL   C35926945   3.435   6.042   7.667 -0.4234  0.3981 -0.9297
   64MOL   C36026946   3.281   6.031   7.666 -0.0915 -0.8066 -0.2984
   64MOL   C36126947   3.222   6.132   7.562  0.7111  0.2249  0.8415
   64MOL   C36226948   3.072   6.163   7.569 -0.2423 -0.3303  0.1932
   64MOL   C36326949   3.025   6.240   7.699 -0.1169 -0.2268  0.4200
   64MOL   C36426950   2.868   6.259   7.687 -0.5709  0.0306  0.2465
   64MOL   C36526951   2.794   6.329   0.094  0.3679  0.0362  0.3118
   64MOL   H36626952   3.476   5.950   7.710 -2.3124 -1.1970 -2.4429
   64MOL   H36726953   3.478   6.035   7.567 -0.2187 -0.0758 -0.8110
   64MOL   H36826954   3.247   6.059   0.052  0.3480 -1.5790  0.0782
   64MOL   H36926955   3.265   6.230   7.582 -1.7471  1.2599  1.2659
   64MOL   H37026956   3.241   6.114   7.456 -0.8306 -0.9100  0.7377
   64MOL   H37126957   3.041   6.225   7.486 -0.3728  0.0218  0.5088
   64MOL   H37226958   3.019   6.068   7.562  0.6639 -0.7062 -2.1396
   64MOL   H37326959   3.057   6.193   0.078  0.4248  0.1338  0.4219
   64MOL   H37426960   3.071   6.339   7.704 -1.5504  0.4432  0.6153
   64MOL   H37526961   2.844   6.318   7.599  0.9869 -0.7388 -0.7106
   64MOL   H37626962   2.831   6.159   7.666 -2.7387  1.3810 -2.5971
   64MOL   H37726963   2.705   6.387   0.070  0.5786  0.8669  1.5032
   64MOL   H37826964   2.768   6.253   0.168  0.9867 -1.7931 -1.3090
   64MOL   H37926965   2.864   6.400   0.136  2.4035 -0.7532 -1.6444
   64MOL   C38026966   3.239   5.889   7.628  0.0551 -1.1137  0.1727
   64MOL   C38126967   3.241   5.784   0.030 -0.7564 -0.1035 -0.2041
   64MOL   C38226968   3.110   5.778   0.111  0.1470 -0.4144 -0.3297
   64MOL   C38326969   3.065   5.905   0.177 -1.0898  0.2834 -0.3315
   64MOL   C38426970   2.930   5.894   0.254  0.2623  0.1474 -0.3235
   64MOL   C38526971   2.900   6.021   0.327  0.9110 -0.5899  0.5943
   64MOL   C38626972   2.759   6.024   0.391 -0.0252  0.1736  0.6476
   64MOL   H38726973   3.141   5.885   7.580 -1.0682  1.6156  2.0996
   64MOL   H38826974   3.297   5.851   7.544  1.2896 -2.4043  1.5898
   64MOL   H38926975   3.318   5.811   0.104  2.2186  0.1340 -3.2592
   64MOL   H39026976   3.116   5.700   0.187 -0.2728  0.5581  0.7199
   64MOL   H39126977   3.035   5.739   0.043  0.0674 -0.3014 -0.3081
   64MOL   H39226978   3.144   5.940   0.243 -1.5722  0.8764 -0.0602
   64MOL   H39326979   3.046   5.983   0.102 -1.2190  2.0465  1.4788
   64MOL   H39426980   2.855   5.854   0.186  1.5687  0.5821 -2.0654
   64MOL   H39526981   2.948   5.810   0.321  3.9435 -0.6036 -2.1720
   64MOL   H39626982   2.908   6.102   0.255  2.1710 -0.0184  1.3647
   64MOL   H39726983   2.974   6.047   0.403  0.5700  2.6951 -0.1278
   64MOL   H39826984   2.755   5.956   0.476  0.1797 -0.2992  0.2799
   64MOL   H39926985   2.685   5.982   0.323  1.6293 -0.3799 -0.8459
   64MOL   H40026986   2.732   6.119   0.438 -1.4085 -0.5256  1.2772
   64MOL   C40126987   3.291   5.645   7.695 -0.1976  0.1416  0.5216
   64MOL   C40226988   3.433   5.640   7.643  0.5042 -0.0778  0.2887
   64MOL   C40326989   3.477   5.504   7.619 -0.1964  0.8768 -0.5064
   64MOL   C40426990   3.631   5.497   7.598  0.6270 -0.5919 -0.1260
   64MOL   C40526991   3.711   5.524   0.007 -0.3332  1.1734 -0.5235
   64MOL   C40626992   3.854   5.472   7.711 -0.1144  0.3470 -0.2143
   64MOL   C40726993   3.956   5.557   7.628  0.6953  0.0789 -0.3654
   64MOL   H40826994   3.212   5.594   7.640  1.6996 -1.0479 -1.1655
   64MOL   H40926995   3.300   5.588   0.074 -0.6443 -0.2119  0.3466
   64MOL   H41026996   3.478   5.688   0.017 -0.2987 -0.4084  0.8818
   64MOL   H41126997   3.432   5.466   7.527 -1.3861  0.6802  0.1426
   64MOL   H41226998   3.443   5.439   7.700  2.0293 -0.1666 -0.3890
   64MOL   H41326999   3.655   5.572   7.523 -0.6193  0.8914  0.9431
   64MOL   H41427000   3.664   5.404   7.552  0.4533 -0.9546  0.4871
   64MOL   H41527001   3.710   5.630   0.033 -0.2488  0.9177  0.5625
   64MOL   H41627002   3.666   5.475   0.094  1.5134 -0.7297 -0.5856
   64MOL   H41727003   3.894   5.454   0.097 -3.1705 -1.6596  0.7108
   64MOL   H41827004   3.854   5.370   7.673 -2.6788  0.8651 -1.7365
   64MOL   H41927005   3.991   5.647   7.679  0.3268  0.5110 -0.8699
   64MOL   H42027006   3.912   5.579   7.531  1.0363  1.6619 -0.1799
   64MOL   H42127007   4.048   5.502   7.612  0.9709  0.5203 -0.2890
   64MOL   H42227008   3.447   5.713   7.563 -0.7625  3.1852  2.9312
   65MOL     C127009   4.272   5.537   3.169  0.2603 -0.2139  0.2122
   65MOL     C227010   4.220   5.571   3.311  1.1493  0.0886 -0.7656
   65MOL     C327011   4.322   5.648   3.385  0.3108 -0.2522 -0.1241
   65MOL     C427012   4.290   5.700   3.527 -0.2374 -0.2894 -0.0074
   65MOL     C527013   4.172   5.791   3.547  0.2403 -0.0645  0.2400
   65MOL     C627014   4.148   5.822   3.699 -0.7078 -0.1009  0.2149
   65MOL     C727015   4.070   5.944   3.723 -0.3783 -0.6041  0.4986
   65MOL     H827016   4.365   5.482   3.163  0.1839 -0.3716  0.4943
   65MOL     H927017   4.285   5.636   3.125 -2.0623 -0.5594 -1.4108
   65MOL    H1027018   4.124   5.624   3.311 -0.2048 -2.2363  1.2205
   65MOL    H1127019   4.412   5.586   3.383 -0.6364 -1.6220 -0.6963
   65MOL    H1227020   4.338   5.739   3.326 -1.1727 -0.0398 -0.2018
   65MOL    H1327021   4.286   5.606   3.580  0.3600 -0.1356  0.3230
   65MOL    H1427022   4.377   5.760   3.557 -1.7938  2.1039 -0.1301
   65MOL    H1527023   4.088   5.759   3.486 -0.0215  1.5777 -0.2822
   65MOL    H1627024   4.203   5.884   3.499  1.7070 -1.2721 -1.2132
   65MOL    H1727025   4.243   5.840   3.748 -0.1760 -1.9735 -0.0680
   65MOL    H1827026   4.104   5.737   3.751  1.6297 -2.7986 -2.0481
   65MOL    H1927027   4.114   6.040   3.698  0.2116 -1.5211 -2.1264
   65MOL    H2027028   4.061   5.946   3.832  1.1917  0.5934  0.6197
   65MOL    H2127029   3.972   5.939   3.675  0.5385 -0.8334 -1.3830
   65MOL    H2227030   4.189   5.492   3.114  0.8120 -0.7191 -0.2005
   65MOL    C2327031   4.186   5.433   3.383 -0.3607 -0.4129  0.6035
   65MOL    C2427032   4.034   5.407   3.385  0.0182 -0.0581 -0.1629
   65MOL    C2527033   3.946   5.484   3.483 -0.1852  0.1345 -0.1131
   65MOL    C2627034   3.983   5.460   3.628  0.0362 -0.4739  0.4325
   65MOL    C2727035   3.857   5.475   3.720 -0.0427  0.0998 -0.1609
   65MOL    C2827036   3.889   5.446   3.867  0.0211  0.5559 -1.1139
   65MOL    C2927037   3.957   5.557   3.948  0.4040  0.4781  0.6795
   65MOL    H3027038   4.248   5.365   3.325 -2.2646  0.4720 -2.6013
   65MOL    H3127039   4.216   5.428   3.488 -1.4799  0.4074  0.9740
   65MOL    H3227040   3.993   5.450   3.294 -1.2213 -2.2870 -0.6967
   65MOL    H3327041   3.839   5.464   3.471 -0.9973  3.5109  0.8008
   65MOL    H3427042   3.942   5.592   3.466  0.3553 -0.0996 -1.7502
   65MOL    H3527043   4.052   5.540   3.654  0.4496 -0.8932  0.6473
   65MOL    H3627044   4.043   5.371   3.647 -1.0951 -1.8342 -2.0961
   65MOL    H3727045   3.781   5.411   3.676  1.5850 -1.4449 -0.8043
   65MOL    H3827046   3.820   5.577   3.713 -1.2505 -0.3794 -0.8377
   65MOL    H3927047   3.959   5.363   3.864 -0.6152 -0.0800  0.8189
   65MOL    H4027048   3.795   5.418   3.915  0.4284  1.2896  0.1272
   65MOL    H4127049   3.882   5.636   3.958  0.8814  1.3976 -2.3265
   65MOL    H4227050   3.993   5.526   4.046 -0.7852 -0.1747  0.9241
   65MOL    H4327051   4.031   5.611   3.888 -0.6563 -1.8231 -2.8513
   65MOL    C4427052   3.989   5.264   3.362  0.3433 -0.1370 -0.0791
   65MOL    C4527053   3.836   5.231   3.330  0.1665  0.1808 -0.1251
   65MOL    C4627054   3.774   5.330   3.220  0.0899  0.7848  0.2289
   65MOL    C4727055   3.838   5.316   3.082  0.4568 -0.0110  0.3564
   65MOL    C4827056   3.778   5.416   2.986  0.3704  0.5984  0.1945
   65MOL    C4927057   3.806   5.365   2.848  0.2940  0.8185 -0.1638
   65MOL    C5027058   3.783   5.469   2.738 -0.0450 -0.2676  1.3252
   65MOL    H5127059   4.035   5.192   3.431  1.6784 -0.6077 -1.4327
   65MOL    H5227060   4.039   5.227   3.272  0.0330 -0.1616 -0.2398
   65MOL    H5327061   3.785   5.248   3.425  0.7220 -1.8953  0.5722
   65MOL    H5427062   3.772   5.434   3.252 -0.6493  0.2457  2.0155
   65MOL    H5527063   3.671   5.313   3.190  0.3875 -2.7424  0.9214
   65MOL    H5627064   3.947   5.328   3.081  0.5124 -0.4933  0.3524
   65MOL    H5727065   3.810   5.223   3.033 -2.9965  1.3511 -0.3830
   65MOL    H5827066   3.824   5.515   2.994  0.7811  0.2598  2.2749
   65MOL    H5927067   3.671   5.435   2.994  0.5608  2.6931 -1.7142
   65MOL    H6027068   3.757   5.272   2.820  1.6495 -0.4413  1.4807
   65MOL    H6127069   3.912   5.338   2.846 -0.3453 -2.1046  1.4610
   65MOL    H6227070   3.676   5.486   2.736  0.1340  0.8967  1.1631
   65MOL    H6327071   3.803   5.430   2.638  1.0282 -0.6327  1.6773
   65MOL    H6427072   3.836   5.565   2.744  2.4531 -1.4134 -1.1652
   65MOL    C6527073   3.814   5.075   3.307 -0.0746 -0.3080 -0.3359
   65MOL    C6627074   3.673   5.024   3.356 -0.0069  0.0232 -1.2859
   65MOL    C6727075   3.669   4.985   3.504  0.4091 -0.0011 -0.3470
   65MOL    C6827076   3.709   5.091   3.605  0.2754  0.2738  0.0424
   65MOL    C6927077   3.672   5.042   3.749  0.6089  0.8275  0.5126
   65MOL    C7027078   3.681   5.140   3.863  0.2430 -0.5391 -0.5147
   65MOL    C7127079   3.557   5.236   3.863 -0.0330  0.1646  0.4294
   65MOL    H7227080   3.835   5.064   3.201  0.4391  1.4764 -0.4384
   65MOL    H7327081   3.891   5.027   3.368  0.4667 -1.0248 -1.5659
   65MOL    H7427082   3.604   5.106   3.336 -2.2156 -1.4181  0.1911
   65MOL    H7527083   3.567   4.954   3.528  1.1109 -2.7267 -0.6718
   65MOL    H7627084   3.741   4.904   3.515 -1.1408 -1.1051  2.0577
   65MOL    H7727085   3.816   5.113   3.607  0.2259  0.4255  1.0923
   65MOL    H7827086   3.654   5.184   3.587 -0.6429 -0.3357 -0.2934
   65MOL    H7927087   3.575   4.992   3.760  0.3193  0.8677 -1.6377
   65MOL    H8027088   3.746   4.967   3.777  1.0884  1.3579  0.6528
   65MOL    H8127089   3.769   5.202   3.850 -0.4348  0.7230  0.7721
   65MOL    H8227090   3.695   5.096   3.961 -2.2888 -0.5017 -0.0976
   65MOL    H8327091   3.553   5.292   3.770 -1.0269  0.6024  0.7283
   65MOL    H8427092   3.464   5.186   3.887  0.5317 -0.8502  0.5117
   65MOL    H8527093   3.583   5.314   3.936 -1.5691 -0.0056  1.1833
   65MOL    C8627094   3.619   4.912   3.261  0.1461  0.1450 -0.4204
   65MOL    C8727095   3.489   4.949   3.182  0.2114  0.9393 -0.6140
   65MOL    C8827096   3.527   5.055   3.076  0.0385  0.0324  0.6091
   65MOL    C8927097   3.402   5.109   2.995 -0.4279  0.6524  0.1698
   65MOL    C9027098   3.451   5.242   2.926 -0.4499  0.4656 -0.7316
   65MOL    C9127099   3.340   5.301   2.833  0.5702 -0.3340 -0.4233
   65MOL    C9227100   3.362   5.448   2.793 -0.0297  0.0939  0.3624
   65MOL    H9327101   3.704   4.893   3.195 -0.0461  2.1573 -1.2771
   65MOL    H9427102   3.605   4.817   3.313 -1.7313  0.6743  0.0676
   65MOL    H9527103   3.417   5.002   3.244 -0.7638 -0.5669 -0.4314
   65MOL    H9627104   3.580   5.137   3.124 -1.3452  0.5898  1.2158
   65MOL    H9727105   3.591   5.014   2.998  0.0507 -0.0504  0.6634
   65MOL    H9827106   3.355   5.034   2.931 -0.1782  0.6459 -0.0048
   65MOL    H9927107   3.328   5.143   3.068 -0.5317  1.7876 -0.4589
   65MOL   H10027108   3.536   5.201   2.872  0.8346  0.3404  1.3167
   65MOL   H10127109   3.489   5.321   2.991  0.2897  0.3142 -0.9783
   65MOL   H10227110   3.331   5.245   2.739 -0.1844 -1.9334  0.5745
   65MOL   H10327111   3.252   5.280   2.894  1.4935 -3.0203  0.0538
   65MOL   H10427112   3.299   5.480   2.711 -0.7225 -0.4937  0.6578
   65MOL   H10527113   3.461   5.465   2.750  0.3170 -1.4798  0.4925
   65MOL   H10627114   3.328   5.508   2.877  1.3918  0.4735  0.6839
   65MOL   C10727115   3.429   4.817   3.121  1.0189  0.8605  0.2585
   65MOL   C10827116   3.312   4.754   3.201  0.0043 -0.6126 -0.8867
   65MOL   C10927117   3.216   4.678   3.107 -0.1259  0.0335 -0.4708
   65MOL   C11027118   3.273   4.543   3.063 -0.0254  0.0790 -0.1654
   65MOL   C11127119   3.185   4.469   2.962  0.1585  0.0940 -0.3380
   65MOL   C11227120   3.169   4.547   2.826 -0.5311 -0.2040  0.1140
   65MOL   C11327121   3.110   4.481   2.704  0.1626 -0.3003 -0.7849
   65MOL   H11427122   3.506   4.742   3.106 -0.4652 -0.8905  1.1630
   65MOL   H11527123   3.396   4.843   3.021 -0.1245 -1.7925 -0.0961
   65MOL   H11627124   3.258   4.843   3.236  1.1562 -0.1510 -0.2864
   65MOL   H11727125   3.201   4.728   3.011 -1.5514  1.4323  0.4664
   65MOL   H11827126   3.115   4.681   3.148  1.2379 -0.6086  3.1622
   65MOL   H11927127   3.372   4.562   3.021  0.8640 -0.7806  1.4919
   65MOL   H12027128   3.292   4.472   3.144  1.1245  0.5077 -0.0463
   65MOL   H12127129   3.080   4.458   2.987 -0.1441 -0.2175 -1.7072
   65MOL   H12227130   3.229   4.371   2.943 -2.1287 -1.6561  2.9878
   65MOL   H12327131   3.106   4.634   2.845 -0.1611  0.2737 -0.7874
   65MOL   H12427132   3.266   4.591   2.804 -0.2698 -0.5382  0.6167
   65MOL   H12527133   3.167   4.392   2.678  1.8395  0.0901  1.3994
   65MOL   H12627134   3.007   4.446   2.708  0.2579 -0.6113 -1.0176
   65MOL   H12727135   3.124   4.562   2.632 -1.1666  0.7842  0.1293
   65MOL   C12827136   3.358   4.684   3.328 -0.1090 -0.3348 -0.5236
   65MOL   C12927137   3.257   4.597   3.409 -0.5078 -0.8959 -0.1957
   65MOL   C13027138   3.148   4.685   3.477  0.0350 -0.6463 -0.0056
   65MOL   C13127139   3.019   4.618   3.525 -0.4508 -1.0071 -0.5201
   65MOL   C13227140   2.912   4.724   3.549 -0.1859 -0.2451  0.0098
   65MOL   C13327141   2.767   4.665   3.550 -0.1940  0.1503 -0.3473
   65MOL   C13427142   2.656   4.769   3.558 -0.7244  0.2684  0.0980
   65MOL   H13527143   3.445   4.621   3.310  0.7016  0.4548  0.5927
   65MOL   H13627144   3.403   4.748   3.404  0.9698 -1.0896 -0.5104
   65MOL   H13727145   3.205   4.536   3.335 -3.5641 -0.1965  1.2966
   65MOL   H13827146   3.117   4.760   3.404  1.1356 -3.1864 -3.2291
   65MOL   H13927147   3.193   4.735   3.563 -0.8541 -0.0211  0.1023
   65MOL   H14027148   3.033   4.567   3.620  0.1837  0.5413  0.2350
   65MOL   H14127149   2.985   4.550   3.448  0.0575 -1.2455 -0.5350
   65MOL   H14227150   2.909   4.799   3.470  1.9095  1.1484  1.2102
   65MOL   H14327151   2.941   4.764   3.647  1.1853  0.1637 -0.5533
   65MOL   H14427152   2.755   4.608   3.642  1.0400 -0.3933 -0.5101
   65MOL   H14527153   2.743   4.607   3.461 -0.9284 -0.1766  0.0650
   65MOL   H14627154   2.662   4.823   3.652 -1.5385  1.9650 -0.7995
   65MOL   H14727155   2.560   4.720   3.541 -0.8956  0.7203 -0.2553
   65MOL   H14827156   2.669   4.850   3.486 -2.4807  1.8057  1.4400
   65MOL   C14927157   3.318   4.511   3.520 -0.8886 -0.4533 -0.1981
   65MOL   C15027158   3.402   4.391   3.476  0.6106  0.2903  0.5299
   65MOL   C15127159   3.302   4.279   3.424 -0.2062 -0.1051  0.2164
   65MOL   C15227160   3.368   4.171   3.342  0.3548  0.5484  0.5394
   65MOL   C15327161   3.268   4.061   3.306 -0.0138 -0.0584 -0.1836
   65MOL   C15427162   3.334   3.947   3.237 -0.3062  0.6258  0.5378
   65MOL   C15527163   3.224   3.850   3.198 -0.0734 -0.3696 -0.1070
   65MOL   H15627164   3.370   4.569   3.597 -0.5873  0.8190 -1.3398
   65MOL   H15727165   3.232   4.474   3.576 -0.8910  0.6212  0.5445
   65MOL   H15827166   3.462   4.424   3.391  1.4307 -0.1258  0.9443
   65MOL   H15927167   3.258   4.223   3.507 -2.1332 -2.1342 -2.0846
   65MOL   H16027168   3.214   4.312   3.369 -0.3004 -1.0197 -0.2063
   65MOL   H16127169   3.449   4.135   3.404 -0.4801 -0.4814  1.0543
   65MOL   H16227170   3.416   4.214   3.254 -0.4009  0.4500  0.0713
   65MOL   H16327171   3.186   4.107   3.250  0.3509 -0.0980 -0.7510
   65MOL   H16427172   3.220   4.023   3.396  1.3917  2.3714  1.6479
   65MOL   H16527173   3.396   3.890   3.307 -0.3712 -1.3801 -1.0022
   65MOL   H16627174   3.391   3.978   3.150 -1.4249  2.1249  0.3305
   65MOL   H16727175   3.167   3.893   3.115 -0.6043 -2.1815 -0.7035
   65MOL   H16827176   3.175   3.817   3.289  1.5553 -0.8039  0.6165
   65MOL   H16927177   3.271   3.757   3.165  0.0277 -0.6330  0.7781
   65MOL   C17027178   3.500   4.354   3.589 -0.2176 -0.3793 -0.4454
   65MOL   C17127179   3.639   4.429   3.576 -0.1099  0.2620  0.7257
   65MOL   C17227180   3.707   4.452   3.714  0.2570  0.4013 -0.1021
   65MOL   C17327181   3.690   4.587   3.784  0.5109 -0.2162  0.1675
   65MOL   C17427182   3.783   4.604   3.906  0.6994 -0.3817  0.1811
   65MOL   C17527183   3.726   4.717   3.989  0.5171  0.2725 -0.2782
   65MOL   C17627184   3.826   4.781   4.090  0.0439  0.5361 -0.1609
   65MOL   H17727185   3.521   4.247   3.598 -1.2824 -0.4387  1.8485
   65MOL   H17827186   3.454   4.377   3.685  0.5115 -0.5415 -0.0480
   65MOL   H17927187   3.605   4.529   3.547 -2.4659 -0.7622 -0.1883
   65MOL   H18027188   3.814   4.436   3.701  0.5566  2.0407  0.2001
   65MOL   H18127189   3.665   4.376   3.780  0.3569 -0.8964 -1.5049
   65MOL   H18227190   3.585   4.608   3.805  0.8396  2.4662 -0.6392
   65MOL   H18327191   3.725   4.659   3.710  0.6142  0.8675  1.2582
   65MOL   H18427192   3.886   4.620   3.875  0.3758 -0.6079 -1.0199
   65MOL   H18527193   3.787   4.518   3.972  0.9804 -1.7324 -1.5677
   65MOL   H18627194   3.643   4.683   4.051  0.2028 -0.1830 -0.9559
   65MOL   H18727195   3.693   4.789   3.914 -3.9171 -1.9074 -0.6035
   65MOL   H18827196   3.781   4.874   4.125 -0.5375 -0.6054  2.2333
   65MOL   H18927197   3.919   4.800   4.036  0.5178 -2.2216 -0.4384
   65MOL   H19027198   3.845   4.722   4.180 -1.2445 -0.2178 -0.3664
   65MOL   C19127199   3.734   4.365   3.464  0.4208 -0.6534  0.9093
   65MOL   C19227200   3.796   4.460   3.359  0.1575  0.2095  0.5145
   65MOL   C19327201   3.914   4.542   3.420 -0.4839  0.7609  0.0427
   65MOL   C19427202   3.947   4.677   3.361 -0.1921 -0.1013  0.1780
   65MOL   C19527203   4.053   4.770   3.434 -0.1851 -0.0576 -0.5848
   65MOL   C19627204   4.023   4.792   3.584 -0.1403  0.0256 -0.0763
   65MOL   C19727205   4.091   4.914   3.645 -0.3463 -0.0409  0.2454
   65MOL   H19827206   3.669   4.297   3.408 -0.8135  0.2968  1.1704
   65MOL   H19927207   3.811   4.304   3.512 -1.2074 -1.0456  3.0901
   65MOL   H20027208   3.717   4.525   3.323 -0.6646 -0.6133  0.8175
   65MOL   H20127209   4.004   4.481   3.419 -0.4986  0.7461 -0.6929
   65MOL   H20227210   3.890   4.566   3.523  0.8206  2.2641  0.0187
   65MOL   H20327211   3.844   4.713   3.353 -0.9090 -1.5231  2.4303
   65MOL   H20427212   3.976   4.665   3.256 -0.1458 -0.9148  0.2833
   65MOL   H20527213   4.153   4.727   3.425  0.3790  1.2452 -0.5537
   65MOL   H20627214   4.053   4.869   3.390 -0.4941  0.4925  0.6284
   65MOL   H20727215   4.051   4.698   3.631  2.8585  0.0921 -1.6137
   65MOL   H20827216   3.915   4.798   3.600 -0.1778 -4.6815  2.2123
   65MOL   H20927217   4.056   5.002   3.592 -0.2082 -1.2580 -1.9146
   65MOL   H21027218   4.200   4.914   3.651 -0.2940  3.2879  0.0823
   65MOL   H21127219   4.071   4.906   3.752  0.6331  0.7367  0.4942
   65MOL   C21227220   3.851   4.380   3.234  0.3811  0.5047  0.8432
   65MOL   C21327221   3.755   4.397   3.114 -0.5735  0.7018 -0.3581
   65MOL   C21427222   3.760   4.548   3.060 -0.6262 -0.3150  0.1946
   65MOL   C21527223   3.669   4.583   2.945 -0.2248 -0.0262 -0.2310
   65MOL   C21627224   3.696   4.722   2.884 -0.5483  0.3752  0.3728
   65MOL   C21727225   3.596   4.760   2.780  0.5568  0.0186 -0.0305
   65MOL   C21827226   3.614   4.668   2.648  0.3196 -0.0294 -0.0358
   65MOL   H21927227   3.879   4.278   3.257 -0.1462 -0.5438 -2.8146
   65MOL   H22027228   3.946   4.427   3.207 -0.2514  1.0295 -0.4957
   65MOL   H22127229   3.655   4.373   3.150  0.3508  0.6071  2.1994
   65MOL   H22227230   3.754   4.627   3.135  1.8775  1.5843 -1.5144
   65MOL   H22327231   3.863   4.559   3.026 -1.2170 -2.5569 -2.4369
   65MOL   H22427232   3.564   4.569   2.967  0.1107 -1.4862  0.5318
   65MOL   H22527233   3.693   4.515   2.864  2.8973  1.6521 -0.8014
   65MOL   H22627234   3.686   4.800   2.960 -0.0225  1.8817 -1.0774
   65MOL   H22727235   3.801   4.738   2.860 -0.7022  1.4690  0.3982
   65MOL   H22827236   3.490   4.766   2.805  0.8844  2.7643  0.9113
   65MOL   H22927237   3.620   4.861   2.748 -0.7474  0.1039 -0.7863
   65MOL   H23027238   3.575   4.567   2.649  1.1379 -0.3597  1.5666
   65MOL   H23127239   3.720   4.662   2.624  0.8814 -0.3330  2.3825
   65MOL   H23227240   3.572   4.713   2.558  1.4976 -0.6644 -0.9152
   65MOL   C23327241   3.795   4.299   3.001 -0.1081  0.3552  0.7570
   65MOL   C23427242   3.728   4.166   3.005  1.0194 -0.8844  1.0035
   65MOL   C23527243   3.575   4.172   2.966  0.3043 -0.4364  0.0715
   65MOL   C23627244   3.547   4.226   2.821  0.1580 -0.1160 -0.3362
   65MOL   C23727245   3.444   4.149   2.747  0.1099  0.1426 -0.1859
   65MOL   C23827246   3.406   4.214   2.620  0.3863  0.0455  0.1946
   65MOL   C23927247   3.303   4.136   2.535 -0.4358  0.8778  0.0708
   65MOL   H24027248   3.902   4.281   2.991 -0.2014  0.7098 -1.1107
   65MOL   H24127249   3.773   4.342   2.903 -1.3687 -2.3417 -0.1888
   65MOL   H24227250   3.726   4.120   3.104  0.6166 -2.4394  0.2893
   65MOL   H24327251   3.533   4.240   3.040 -0.5716 -1.6783  0.7385
   65MOL   H24427252   3.520   4.079   2.982  0.6903 -0.5205  0.9329
   65MOL   H24527253   3.637   4.226   2.759  0.5865  0.0243  0.2812
   65MOL   H24627254   3.526   4.330   2.844  0.2983 -0.2773  0.5497
   65MOL   H24727255   3.357   4.135   2.810 -0.0211  2.2232  0.1261
   65MOL   H24827256   3.483   4.048   2.733 -0.2590 -0.1971  1.2045
   65MOL   H24927257   3.363   4.307   2.658 -0.0759  0.0965 -0.4656
   65MOL   H25027258   3.489   4.237   2.554  0.1595 -1.1259 -0.5223
   65MOL   H25127259   3.340   4.050   2.480 -2.6865  0.9436 -1.6422
   65MOL   H25227260   3.205   4.110   2.574 -0.3250 -0.9176 -0.8099
   65MOL   H25327261   3.289   4.193   2.442 -2.6630  0.1223 -0.0904
   65MOL   C25427262   3.808   4.056   2.935 -0.6688  0.0682 -0.4949
   65MOL   C25527263   3.739   3.914   2.920  0.8065 -0.2250  0.5061
   65MOL   C25627264   3.718   3.837   3.048  0.0968  0.5914  0.6354
   65MOL   C25727265   3.629   3.710   3.036  0.2232 -0.7046  0.3652
   65MOL   C25827266   3.585   3.652   3.164  0.0159  0.0513  0.8059
   65MOL   C25927267   3.503   3.529   3.141 -0.0970  0.5126 -0.3099
   65MOL   C26027268   3.473   3.444   3.270 -0.6723 -0.1074 -0.1014
   65MOL   H26127269   3.892   4.037   3.002  0.4596  1.6184 -1.4513
   65MOL   H26227270   3.843   4.085   2.836 -0.6812  4.6433  0.7544
   65MOL   H26327271   3.634   3.927   2.894  1.4749  2.3533 -1.0787
   65MOL   H26427272   3.676   3.909   3.118 -0.2890  0.1525  0.8599
   65MOL   H26527273   3.814   3.808   3.090  0.4743  2.5111  1.1511
   65MOL   H26627274   3.544   3.735   2.972 -0.1709 -0.1646  1.1040
   65MOL   H26727275   3.665   3.633   2.967 -0.3142  0.0114 -0.7437
   65MOL   H26827276   3.526   3.724   3.221  0.0146  0.8249 -0.1707
   65MOL   H26927277   3.669   3.622   3.227  1.1544 -0.3393 -0.8710
   65MOL   H27027278   3.404   3.560   3.108 -0.7448  0.8600  1.8610
   65MOL   H27127279   3.550   3.461   3.070  1.5693  3.0491 -1.7239
   65MOL   H27227280   3.435   3.347   3.238  0.7534 -0.2443 -1.4137
   65MOL   H27327281   3.560   3.434   3.335 -0.4570 -0.5659 -0.4605
   65MOL   H27427282   3.388   3.488   3.322 -0.2471  1.2385 -0.5359
   65MOL   C27527283   3.824   3.828   2.828 -0.0562  0.5903  0.4448
   65MOL   C27627284   3.799   3.868   2.679  1.0804  0.5346  0.1939
   65MOL   C27727285   3.685   3.779   2.627  0.3233  0.1219  0.0183
   65MOL   C27827286   3.618   3.822   2.490  0.2372 -0.4081 -0.2179
   65MOL   C27927287   3.483   3.750   2.460 -0.2499  0.0238 -0.9176
   65MOL   C28027288   3.416   3.794   2.324 -0.4361 -0.6231 -0.0646
   65MOL   C28127289   3.296   3.707   2.293 -0.0748  0.7992  0.4249
   65MOL   H28227290   3.807   3.721   2.837  1.8216  0.1294 -1.1466
   65MOL   H28327291   3.932   3.840   2.842  0.0511  1.5712 -1.0481
   65MOL   H28427292   3.783   3.975   2.669 -1.0240 -0.0428 -3.2637
   65MOL   H28527293   3.735   3.683   2.621  2.2993  0.9742  2.1699
   65MOL   H28627294   3.603   3.772   2.699  0.6666  3.1038  0.7470
   65MOL   H28727295   3.692   3.795   2.415 -0.1276 -2.4419  0.1168
   65MOL   H28827296   3.599   3.930   2.490  1.1865 -0.2385 -0.9150
   65MOL   H28927297   3.417   3.777   2.542 -2.3356 -0.5503 -2.3390
   65MOL   H29027298   3.506   3.644   2.451 -1.9584 -0.4613  0.2733
   65MOL   H29127299   3.397   3.902   2.323 -0.3533 -0.5999  0.5215
   65MOL   H29227300   3.485   3.784   2.241  0.4505 -1.7557  0.8025
   65MOL   H29327301   3.254   3.711   2.192 -0.2370 -0.0222  0.4508
   65MOL   H29427302   3.207   3.737   2.349  0.8064  1.9469  1.2234
   65MOL   H29527303   3.323   3.605   2.320  0.6716  1.1417  0.9775
   65MOL   C29627304   3.932   3.843   2.599 -0.0987 -0.1623  0.9952
   65MOL   C29727305   4.032   3.962   2.606  0.7498 -0.0752 -0.4149
   65MOL   C29827306   3.980   4.083   2.525 -0.3938 -0.4763  0.2721
   65MOL   C29927307   4.043   4.218   2.552  0.3574 -0.0452 -0.3335
   65MOL   C30027308   3.994   4.274   2.685  0.0800  0.5198 -0.6614
   65MOL   C30127309   4.057   4.412   2.724 -0.3294  0.4500 -0.7006
   65MOL   C30227310   3.980   4.532   2.682 -0.6010  0.4862 -0.2356
   65MOL   H30327311   3.979   3.749   2.627  0.4937 -0.6709 -1.6442
   65MOL   H30427312   3.908   3.826   2.494  0.0981  1.3457  0.7022
   65MOL   H30527313   4.020   4.002   2.706  0.9489 -1.4536  0.1685
   65MOL   H30627314   3.988   4.069   2.417 -1.7732  1.1092 -0.0535
   65MOL   H30727315   3.872   4.095   2.535 -0.4517  0.5728 -1.3318
   65MOL   H30827316   4.014   4.286   2.471 -1.7356 -0.3480  0.1157
   65MOL   H30927317   4.151   4.210   2.552  0.2861 -2.4504 -4.6327
   65MOL   H31027318   4.024   4.210   2.769 -0.3727 -0.1605 -1.0166
   65MOL   H31127319   3.889   4.298   2.677  0.0012  1.0864  1.6317
   65MOL   H31227320   4.064   4.416   2.833  1.4030 -1.2231 -0.7295
   65MOL   H31327321   4.155   4.416   2.677 -0.1362  0.6480 -0.2765
   65MOL   H31427322   4.021   4.630   2.704  1.8835 -0.4415 -0.5982
   65MOL   H31527323   3.965   4.529   2.575 -1.7661  2.3347 -0.1392
   65MOL   H31627324   3.881   4.516   2.726 -0.1133 -4.3209 -0.5748
   65MOL   C31727325   4.181   3.922   2.570  0.8481 -0.5601  0.3643
   65MOL   C31827326   4.239   3.837   2.684 -0.0839 -0.4051  0.1259
   65MOL   C31927327   4.363   3.763   2.626 -0.1266 -0.2067  0.2111
   65MOL   C32027328   4.328   3.630   2.555  0.0644  0.2330  0.4137
   65MOL   C32127329   4.454   3.581   2.489  0.6344  0.0674  0.0360
   65MOL   C32227330   4.420   3.466   2.396  0.1456  0.4572 -0.0986
   65MOL   C32327331   4.532   3.407   2.303 -0.4754  0.4312  0.3705
   65MOL   H32427332   4.250   4.004   2.551 -1.3416  1.0680 -0.7864
   65MOL   H32527333   4.170   3.869   2.476  1.5203  0.4838 -0.3120
   65MOL   H32627334   4.163   3.767   2.717  0.9989 -2.8590 -2.4173
   65MOL   H32727335   4.429   3.724   2.704 -0.8815 -1.1400  0.3991
   65MOL   H32827336   4.429   3.816   2.558  1.6605  0.4755  2.4230
   65MOL   H32927337   4.253   3.652   2.479 -0.7386 -0.0588  1.1034
   65MOL   H33027338   4.296   3.559   2.632  0.1862  1.0462  1.2210
   65MOL   H33127339   4.540   3.565   2.555  1.2947  0.1762 -0.7894
   65MOL   H33227340   4.485   3.664   2.426 -3.3520  1.2685 -0.4878
   65MOL   H33327341   4.327   3.485   2.343  0.5814 -0.0957 -1.0845
   65MOL   H33427342   4.385   3.377   2.449 -1.8025  1.2599 -0.0034
   65MOL   H33527343   4.550   3.481   2.225 -0.4264  3.2475  2.9663
   65MOL   H33627344   4.505   3.322   2.241  1.1021 -0.1667  0.4681
   65MOL   H33727345   4.628   3.385   2.350 -0.7014  2.0280  1.6240
   65MOL   C33827346   4.288   3.926   2.800  0.3218 -0.2637 -0.0986
   65MOL   C33927347   4.374   3.874   2.916  0.3287  0.5090  0.1190
   65MOL   C34027348   4.302   3.757   2.984  1.2204 -0.1646 -0.6818
   65MOL   C34127349   4.163   3.776   3.041  0.5098  0.0667 -0.5825
   65MOL   C34227350   4.094   3.646   3.085  0.4526  0.4119 -0.6036
   65MOL   C34327351   4.068   3.537   2.973  0.1033 -0.5497  0.4480
   65MOL   C34427352   4.015   3.401   3.023 -0.7099  0.0413  0.0596
   65MOL   H34527353   4.200   3.974   2.841 -0.7579 -1.5492 -0.8662
   65MOL   H34627354   4.339   4.009   2.752  0.5790 -1.2430 -1.5733
   65MOL   H34727355   4.468   3.830   2.883 -0.0172  0.4158 -0.7348
   65MOL   H34827356   4.290   3.677   2.911  0.5714 -1.3811  0.7436
   65MOL   H34927357   4.367   3.709   3.057 -0.8023 -3.0402 -0.6812
   65MOL   H35027358   4.109   3.825   2.959  0.2288  1.0764  0.1933
   65MOL   H35127359   4.165   3.850   3.121 -0.4020 -1.1132  0.5450
   65MOL   H35227360   4.160   3.609   3.164  0.1368  0.9409 -0.0892
   65MOL   H35327361   4.001   3.664   3.139  0.9209 -0.9792  0.7187
   65MOL   H35427362   3.995   3.585   2.907  0.3712  0.2609  0.7268
   65MOL   H35527363   4.156   3.519   2.911  0.4643  0.4076  0.6681
   65MOL   H35627364   4.088   3.368   3.096 -0.0297 -0.6595 -0.9257
   65MOL   H35727365   4.005   3.321   2.949  2.5942 -1.3880  1.0810
   65MOL   H35827366   3.913   3.402   3.063 -0.3752  0.5335  0.9126
   65MOL   C35927367   4.399   3.991   3.026  0.0015  0.7503  0.5176
   65MOL   C36027368   4.488   4.109   2.967  0.5307  0.2382  0.0683
   65MOL   C36127369   4.489   4.236   3.064  0.4306  0.2334 -0.2709
   65MOL   C36227370   4.376   4.335   3.039 -0.3189  0.0170  0.5350
   65MOL   C36327371   4.373   4.449   3.136  0.1123 -0.1027 -0.2046
   65MOL   C36427372   4.238   4.514   3.138  0.5920  0.2938  0.0367
   65MOL   C36527373   4.210   4.594   3.010  0.8485 -0.2884  0.9042
   65MOL   H36627374   4.431   3.947   3.121  1.6158  0.0595 -0.3367
   65MOL   H36727375   4.306   4.045   3.046  1.0354  2.6704  0.2333
   65MOL   H36827376   4.437   4.136   2.874 -0.1596  2.3196  1.0252
   65MOL   H36927377   4.487   4.202   3.167 -0.4004  0.9584 -0.0476
   65MOL   H37027378   4.583   4.290   3.059 -1.4214  3.5374 -0.6081
   65MOL   H37127379   4.386   4.360   2.933 -1.0197  0.6196  0.6107
   65MOL   H37227380   4.283   4.279   3.044  0.1757 -0.7118  1.7586
   65MOL   H37327381   4.403   4.421   3.237  2.1694 -0.7170 -0.9698
   65MOL   H37427382   4.448   4.519   3.100 -0.2171 -0.2320 -1.1638
   65MOL   H37527383   4.163   4.436   3.150 -1.3303  2.0827  0.0593
   65MOL   H37627384   4.227   4.577   3.226  1.9105 -0.1409  0.5174
   65MOL   H37727385   4.273   4.682   2.999  0.0216  0.3356  1.0917
   65MOL   H37827386   4.235   4.526   2.929  1.0825  0.8142  0.0516
   65MOL   H37927387   4.103   4.618   3.010  1.1150  1.1863  4.7072
   65MOL   C38027388   4.635   4.070   2.923  0.2035  0.1159 -0.5314
   65MOL   C38127389   4.651   4.043   2.772  0.2277 -0.1386 -0.0259
   65MOL   C38227390   4.640   4.167   2.678 -0.5047 -0.7416 -0.4658
   65MOL   C38327391   4.611   4.132   2.529  0.1506 -0.7582 -0.2849
   65MOL   C38427392   4.580   4.253   2.444 -0.2543  0.1830 -0.8484
   65MOL   C38527393   4.431   4.291   2.453  0.2677  0.2264  0.3394
   65MOL   C38627394   4.403   4.428   2.387 -0.5525 -0.0989 -0.4927
   65MOL   H38727395   4.710   4.145   2.949 -0.2084  0.1672  0.5462
   65MOL   H38827396   4.671   3.993   2.992 -0.4346  1.3668  1.2548
   65MOL   H38927397   4.567   3.981   2.741 -0.5273  1.6476 -1.5986
   65MOL   H39027398   4.728   4.230   2.695 -1.5120  0.0290  2.1056
   65MOL   H39127399   4.554   4.219   2.720 -0.2049 -0.2896 -0.4124
   65MOL   H39227400   4.703   4.089   2.490  0.6247 -0.2653  0.2658
   65MOL   H39327401   4.537   4.053   2.535  0.3113 -0.7747  2.1920
   65MOL   H39427402   4.637   4.333   2.493  2.2077 -2.3785  0.6419
   65MOL   H39527403   4.621   4.237   2.345  0.7385  2.8876 -0.9132
   65MOL   H39627404   4.399   4.288   2.557  1.5997 -1.1701  0.7084
   65MOL   H39727405   4.368   4.220   2.400  0.0010  1.5422 -1.1696
   65MOL   H39827406   4.299   4.460   2.397 -0.1356  0.4433  2.9633
   65MOL   H39927407   4.424   4.413   2.281  0.1785  0.7358 -0.4695
   65MOL   H40027408   4.462   4.503   2.441  0.0980  0.0620 -1.4127
   65MOL   C40127409   4.780   3.960   2.740 -0.5834 -0.4153  0.8475
   65MOL   C40227410   4.754   3.812   2.760 -0.7989 -0.7244 -0.6993
   65MOL   C40327411   4.886   3.733   2.745 -0.3094 -0.6165  0.2215
   65MOL   C40427412   4.883   3.578   2.742 -0.3637 -0.1769  0.4562
   65MOL   C40527413   5.019   3.505   2.769  0.0358 -0.0984 -0.1097
   65MOL   C40627414   5.139   3.536   2.667 -0.4205  1.2488 -0.4255
   65MOL   C40727415   5.113   3.519   2.512 -0.2091 -0.0055 -0.5692
   65MOL   H40827416   4.866   3.999   2.795  1.5289  0.2333 -2.7487
   65MOL   H40927417   4.803   3.976   2.635 -1.4794  1.2618  0.8850
   65MOL   H41027418   4.680   3.770   2.692 -0.1295 -0.5905 -1.5271
   65MOL   H41127419   4.955   3.762   2.824  0.0917  0.5485 -0.5324
   65MOL   H41227420   4.935   3.766   2.653  0.9879  0.3428  1.2302
   65MOL   H41327421   4.835   3.536   2.654 -0.8047  0.0693  0.5791
   65MOL   H41427422   4.821   3.535   2.822 -0.2274  0.6721  1.0252
   65MOL   H41527423   5.055   3.530   2.869  0.1774 -2.1087  0.3579
   65MOL   H41627424   5.000   3.398   2.775  0.1814 -0.2402 -1.8226
   65MOL   H41727425   5.177   3.636   2.686  0.4525  1.0119 -0.9467
   65MOL   H41827426   5.217   3.472   2.707 -2.0196  1.0874  2.6535
   65MOL   H41927427   5.069   3.610   2.472 -0.3509  1.1028  2.0469
   65MOL   H42027428   5.068   3.427   2.475 -0.1178 -0.6439  0.8706
   65MOL   H42127429   5.211   3.523   2.462 -1.4272 -0.4119 -3.0914
   65MOL   H42227430   4.716   3.803   2.862  0.2422 -0.7423 -0.3023
   66MOL     C127431   1.099   6.446   7.355 -0.1155 -0.3183 -0.3444
   66MOL     C227432   1.188   6.477   7.233  0.3013 -0.1894  0.0401
   66MOL     C327433   1.338   6.449   7.263  0.0785  0.3954  0.7295
   66MOL     C427434   1.429   6.440   7.137 -0.1827  0.5181  0.5915
   66MOL     C527435   1.575   6.433   7.173  0.2518 -0.1427  0.1944
   66MOL     C627436   1.656   6.338   7.076 -0.5059  1.0192 -0.0624
   66MOL     C727437   1.808   6.364   7.064 -0.7103 -0.1714  1.2460
   66MOL     H827438   0.996   6.481   7.349 -0.1549 -0.1025  1.3371
   66MOL     H927439   1.143   6.494   7.443 -0.3288  0.1929 -0.5131
   66MOL    H1027440   1.160   6.413   7.150 -0.1972  2.5870 -2.0112
   66MOL    H1127441   1.374   6.510   7.346  2.7032 -0.3834  0.2126
   66MOL    H1227442   1.346   6.351   7.310  1.9786  0.5311  0.7165
   66MOL    H1327443   1.402   6.349   7.085 -0.2767 -0.2247  1.9185
   66MOL    H1427444   1.401   6.529   7.080  1.3056  0.3979 -0.3489
   66MOL    H1527445   1.598   6.393   7.271  1.3018  0.0905  0.0525
   66MOL    H1627446   1.625   6.530   7.172 -1.1989  0.6210  0.5402
   66MOL    H1727447   1.605   6.334   6.980 -0.1131 -0.8470 -0.2145
   66MOL    H1827448   1.645   6.234   7.107  1.4767  0.8568  0.1406
   66MOL    H1927449   1.834   6.337   6.962 -1.9192  0.4188  0.7645
   66MOL    H2027450   1.866   6.326   7.148 -0.3954 -0.0810  1.0684
   66MOL    H2127451   1.825   6.472   7.069  0.8728 -0.4782  2.7074
   66MOL    H2227452   1.093   6.338   7.370  1.9688 -0.2414  1.4117
   66MOL    C2327453   1.163   6.621   7.176 -0.5111  0.1724 -0.0196
   66MOL    C2427454   1.210   6.732   7.271 -0.4923  0.3057  0.2988
   66MOL    C2527455   1.104   6.845   7.290  0.4791 -0.3527 -0.0901
   66MOL    C2627456   0.970   6.800   7.361 -0.1619 -0.1036 -0.3225
   66MOL    C2727457   0.989   6.769   7.515 -0.3803  0.0292 -0.0641
   66MOL    C2827458   0.869   6.706   7.594 -0.5195  0.0928 -0.2289
   66MOL    C2927459   0.916   6.681   0.027  0.1683  0.2968  0.6437
   66MOL    H3027460   1.215   6.635   7.081 -1.4527 -0.8499 -0.6984
   66MOL    H3127461   1.057   6.626   7.151 -0.7811 -1.8445  0.5895
   66MOL    H3227462   1.230   6.689   7.369  1.9487  0.4796 -0.1056
   66MOL    H3327463   1.069   6.888   7.196 -0.1500  1.6963  1.0471
   66MOL    H3427464   1.135   6.933   7.347 -0.3801 -0.0806 -0.0416
   66MOL    H3527465   0.935   6.707   7.314 -1.5926  0.5132 -0.4968
   66MOL    H3627466   0.889   6.871   7.344  0.0954  0.0463 -0.9435
   66MOL    H3727467   1.018   6.852   7.578 -0.0124 -0.5537  0.5468
   66MOL    H3827468   1.067   6.692   7.516  0.4446  0.8316 -1.2480
   66MOL    H3927469   0.832   6.616   7.546 -0.7088  1.0002 -1.8321
   66MOL    H4027470   0.781   6.772   7.597 -0.3901  0.2383  0.4557
   66MOL    H4127471   0.837   6.640   0.091 -0.4030  0.4999  0.0729
   66MOL    H4227472   0.994   6.605   0.031 -0.4780 -0.3581  0.8203
   66MOL    H4327473   0.958   6.772   0.070 -2.4946  1.0674  1.6972
   66MOL    C4427474   1.348   6.798   7.226 -0.6325  0.1063 -0.5323
   66MOL    C4527475   1.456   6.808   7.336 -0.2883 -0.1533  0.7720
   66MOL    C4627476   1.583   6.849   7.271  0.0713  0.0200  1.0736
   66MOL    C4727477   1.590   6.997   7.228  0.3437  0.5133 -0.3273
   66MOL    C4827478   1.731   7.041   7.190 -0.4654  0.0361  0.0797
   66MOL    C4927479   1.786   6.960   7.078  0.4083  0.1444 -0.1251
   66MOL    C5027480   1.932   6.989   7.024  0.7520 -0.0613  0.1396
   66MOL    H5127481   1.338   6.900   7.190  0.0466  0.5411  0.4982
   66MOL    H5227482   1.392   6.733   7.149 -1.8914 -1.2237 -0.1545
   66MOL    H5327483   1.467   6.705   7.370 -0.8843 -0.4286  0.1139
   66MOL    H5427484   1.610   6.782   7.190  1.5543  0.9745  0.7623
   66MOL    H5527485   1.658   6.835   7.349  0.7902  2.4868  0.8537
   66MOL    H5627486   1.531   7.003   7.137 -1.3886 -1.0690  0.6420
   66MOL    H5727487   1.557   7.063   7.308  1.3240  1.9459 -1.0702
   66MOL    H5827488   1.789   7.021   7.280 -1.0647  0.6799  0.6129
   66MOL    H5927489   1.736   7.148   7.168  1.6685  0.0080  0.2877
   66MOL    H6027490   1.720   6.977   6.993 -1.7405  0.6701  1.5955
   66MOL    H6127491   1.790   6.851   7.091 -1.3225  0.3130  2.0392
   66MOL    H6227492   2.002   6.954   7.100 -0.4289 -1.8640  0.4329
   66MOL    H6327493   1.954   7.095   7.011 -0.0382  0.3119  1.6714
   66MOL    H6427494   1.953   6.942   6.928  1.7264  0.3370  0.1530
   66MOL    C6527495   1.406   6.896   7.458 -0.5343  0.3544  0.2113
   66MOL    C6627496   1.509   6.905   7.569 -0.2923  0.3173  0.5505
   66MOL    C6727497   1.565   6.759   7.610  0.7909 -0.3982  0.4893
   66MOL    C6827498   1.447   6.659   7.649 -0.5963 -0.3676  0.3780
   66MOL    C6927499   1.490   6.518   7.670 -0.0369 -0.5880  0.2298
   66MOL    C7027500   1.384   6.414   7.707  0.3755 -0.1373 -0.4991
   66MOL    C7127501   1.456   6.280   0.031  0.1472  0.0440  0.1527
   66MOL    H7227502   1.390   6.999   7.428 -1.4535  0.1572  0.0161
   66MOL    H7327503   1.310   6.859   7.494 -0.6730 -0.8660 -1.3526
   66MOL    H7427504   1.596   6.962   7.537 -0.5481  1.1448  1.2965
   66MOL    H7527505   1.632   6.718   7.535  0.2010  1.5093 -1.1115
   66MOL    H7627506   1.624   6.768   7.701  2.1743  0.3616 -0.4611
   66MOL    H7727507   1.404   6.700   0.027  1.4343  1.4406  0.5511
   66MOL    H7827508   1.376   6.663   7.566  1.1411 -0.1279 -1.1328
   66MOL    H7927509   1.540   6.491   7.577 -0.1505 -0.2014  0.0542
   66MOL    H8027510   1.556   6.527   0.042  0.3007  1.4273 -0.2023
   66MOL    H8127511   1.306   6.401   7.632  0.5855  1.9006 -1.1196
   66MOL    H8227512   1.316   6.443   0.074  0.5716 -3.4844  0.9320
   66MOL    H8327513   1.387   6.218   0.089  0.7795 -0.5853  0.2385
   66MOL    H8427514   1.491   6.244   7.648  0.6580  3.2446 -0.9074
   66MOL    H8527515   1.554   6.286   0.079  1.2187  1.5876 -2.1555
   66MOL    C8627516   1.454   6.978   7.697 -0.4579  0.5978 -0.0502
   66MOL    C8727517   1.410   7.121   7.677  0.1152  0.2224 -1.1947
   66MOL    C8827518   1.268   7.150   0.004  0.6873 -0.4046  0.1867
   66MOL    C8927519   1.159   7.120   7.607 -0.3534 -0.4728  0.3681
   66MOL    C9027520   1.021   7.182   7.646  0.2053  0.4886  0.4059
   66MOL    C9127521   0.910   7.154   7.533  0.2695 -0.0262 -0.1721
   66MOL    C9227522   0.769   7.201   7.578 -0.0938 -0.2797  0.3406
   66MOL    H9327523   1.364   6.919   0.003 -0.7954  0.8988 -0.6806
   66MOL    H9427524   1.516   6.968   0.073 -0.9389 -0.4952  0.1720
   66MOL    H9527525   1.427   7.153   7.574 -0.2219  1.2717 -0.9282
   66MOL    H9627526   1.247   7.099   0.098 -1.3331  1.6463  0.8931
   66MOL    H9727527   1.258   7.257   0.025 -0.5956 -0.3232 -0.8118
   66MOL    H9827528   1.194   7.151   7.509  1.3609  0.8993  1.3861
   66MOL    H9927529   1.133   7.015   7.597 -1.6801  0.0328 -1.9253
   66MOL   H10027530   1.032   7.289   7.663 -4.1328  0.8080  1.7248
   66MOL   H10127531   0.983   7.152   0.030  0.7357  0.3498  0.5706
   66MOL   H10227532   0.940   7.198   7.438  0.8499 -0.2121 -0.0739
   66MOL   H10327533   0.918   7.048   7.507  2.7080  0.0923 -0.0019
   66MOL   H10427534   0.689   7.177   7.508  0.3251 -1.4277  0.2383
   66MOL   H10527535   0.768   7.310   7.581  1.8764 -0.2847  2.0669
   66MOL   H10627536   0.753   7.167   7.681 -1.0035 -1.8540 -0.2914
   66MOL   C10727537   1.499   7.205   0.058  0.3912  0.2542 -0.4421
   66MOL   C10827538   1.655   7.204   0.041  0.8753  0.0710  0.5351
   66MOL   C10927539   1.696   7.257   7.622 -0.6964 -0.2779  0.1638
   66MOL   C11027540   1.841   7.237   7.583  1.3381  0.2949  0.4016
   66MOL   C11127541   1.872   7.317   7.450  0.1786  0.3063  0.3531
   66MOL   C11227542   2.018   7.305   7.415 -0.2724 -0.3514 -0.3202
   66MOL   C11327543   2.071   7.157   7.398  0.3681  0.7037  0.0073
   66MOL   H11427544   1.475   7.170   0.158 -0.0596  1.1693 -0.2243
   66MOL   H11527545   1.457   7.305   0.066  0.8121  0.2834  1.7578
   66MOL   H11627546   1.676   7.097   0.044 -0.8688 -0.2570  2.0059
   66MOL   H11727547   1.658   7.358   7.608  1.0773  0.1526 -1.7989
   66MOL   H11827548   1.639   7.191   7.556 -2.0254  0.1676  0.8641
   66MOL   H11927549   1.899   7.270   7.669  0.0561  0.8160  1.0834
   66MOL   H12027550   1.866   7.132   7.569  3.0164  0.9464 -1.7792
   66MOL   H12127551   1.833   7.415   7.475  0.4106 -0.3660  3.5566
   66MOL   H12227552   1.828   7.274   7.359  0.8554  0.3792 -0.0104
   66MOL   H12327553   2.036   7.355   7.320 -1.7424  3.1179  1.1602
   66MOL   H12427554   2.075   7.349   7.496  0.8579  0.3196 -1.4539
   66MOL   H12527555   2.060   7.101   7.491  1.4843 -1.7042 -1.2432
   66MOL   H12627556   2.009   7.107   7.324 -0.8994 -0.7738  2.0057
   66MOL   H12727557   2.176   7.160   7.368 -0.0218 -0.1188 -1.5149
   66MOL   C12827558   1.728   7.262   0.168 -0.0301 -0.4857  0.5312
   66MOL   C12927559   1.730   7.154   0.286 -0.5367 -0.4821 -0.2340
   66MOL   C13027560   1.631   7.204   0.397 -0.5580  0.1855 -0.3166
   66MOL   C13127561   1.589   7.114   0.504  0.6191 -0.2264  0.8322
   66MOL   C13227562   1.514   6.988   0.457  1.3887 -0.2750 -0.2214
   66MOL   C13327563   1.502   6.894   0.580  0.7654  0.4311 -0.3570
   66MOL   C13427564   1.415   6.776   0.544 -0.1525 -0.1553  0.8276
   66MOL   H13527565   1.831   7.290   0.149 -0.3044 -0.6708 -1.3371
   66MOL   H13627566   1.674   7.350   0.201  2.1214  1.0030  0.1272
   66MOL   H13727567   1.701   7.055   0.250 -1.0025 -0.3180 -0.3149
   66MOL   H13827568   1.540   7.244   0.352 -1.0947  0.2528  0.8279
   66MOL   H13927569   1.683   7.287   0.444  1.4375 -2.4687  2.3232
   66MOL   H14027570   1.513   7.174   0.553 -1.3588 -1.7510 -0.2676
   66MOL   H14127571   1.667   7.083   0.573  1.6989 -1.0403 -0.7079
   66MOL   H14227572   1.566   6.939   0.375 -1.4699 -2.3702 -0.8444
   66MOL   H14327573   1.412   7.015   0.429  1.1254 -0.9538  0.0904
   66MOL   H14427574   1.460   6.950   0.664 -2.2945 -0.1930 -1.3942
   66MOL   H14527575   1.602   6.855   0.600  0.4902 -0.2555 -0.3307
   66MOL   H14627576   1.411   6.714   0.633 -1.6711 -0.2259  0.7122
   66MOL   H14727577   1.468   6.722   0.465 -0.8330  0.6066 -0.1503
   66MOL   H14827578   1.322   6.815   0.503  0.1645 -0.9148 -0.6560
   66MOL   C14927579   1.877   7.130   0.334 -0.1911  0.7424 -0.4204
   66MOL   C15027580   1.966   7.047   0.241 -0.1199  0.3900  0.3430
   66MOL   C15127581   1.908   6.912   0.196  0.2117 -0.5107  0.7020
   66MOL   C15227582   1.867   6.821   0.314 -0.2921  0.2778  0.3603
   66MOL   C15327583   1.760   6.720   0.265 -0.7027 -0.0826  0.1910
   66MOL   C15427584   1.722   6.621   0.374 -0.3153  0.1883  0.2085
   66MOL   C15527585   1.625   6.525   0.316  0.4598  0.4116 -0.5501
   66MOL   H15627586   1.921   7.227   0.357 -1.5615  0.5605  3.3680
   66MOL   H15727587   1.857   7.078   0.428  1.6357 -1.5437 -1.2569
   66MOL   H15827588   1.981   7.113   0.155 -0.2985  0.1825  0.1522
   66MOL   H15927589   1.824   6.932   0.130  0.7482 -2.2258 -0.5120
   66MOL   H16027590   1.983   6.862   0.134 -0.9567 -0.2622 -0.9423
   66MOL   H16127591   1.814   6.885   0.384 -0.5265  0.5320 -0.0465
   66MOL   H16227592   1.946   6.777   0.375  1.7356 -0.1939 -2.4601
   66MOL   H16327593   1.788   6.659   0.180 -0.1019 -4.6272  3.4874
   66MOL   H16427594   1.670   6.776   0.238 -2.6817 -2.7679  0.9914
   66MOL   H16527595   1.684   6.671   0.463  1.6000  1.7269  0.2113
   66MOL   H16627596   1.814   6.567   0.395  0.1435  1.2176  0.8968
   66MOL   H16727597   1.586   6.452   0.387  0.2592  1.9388  0.9511
   66MOL   H16827598   1.660   6.467   0.230  1.2978 -0.0910  0.1156
   66MOL   H16927599   1.535   6.576   0.283 -0.8186 -1.5992 -0.3026
   66MOL   C17027600   2.112   7.038   0.301 -0.2560  0.2565  0.1653
   66MOL   C17127601   2.233   7.020   0.196 -0.2638  0.1964  0.6017
   66MOL   C17227602   2.261   7.146   0.113 -0.1171 -0.4911 -0.6714
   66MOL   C17327603   2.351   7.120   7.710  0.5855 -0.2709  0.7974
   66MOL   C17427604   2.373   7.254   7.638 -0.2559 -0.2045  0.0351
   66MOL   C17527605   2.434   7.238   7.501  0.3029 -0.3102 -0.0101
   66MOL   C17627606   2.417   7.363   7.416  0.7272 -0.1563  0.1223
   66MOL   H17727607   2.117   6.966   0.383  1.3715  1.3674  1.0676
   66MOL   H17827608   2.131   7.138   0.340  0.2649  0.3623 -0.3515
   66MOL   H17927609   2.200   6.949   0.119 -1.9137  1.6230 -0.0375
   66MOL   H18027610   2.313   7.209   0.186 -1.8267 -2.6159  2.5321
   66MOL   H18127611   2.172   7.202   0.084  0.0045 -0.9091 -1.8719
   66MOL   H18227612   2.310   7.044   7.645  2.2226  1.1511 -1.9821
   66MOL   H18327613   2.453   7.098   0.030  0.0688 -2.1294  1.1828
   66MOL   H18427614   2.433   7.317   7.704  0.9461 -1.4073  0.1218
   66MOL   H18527615   2.273   7.294   7.625 -0.3889 -0.6295 -0.2473
   66MOL   H18627616   2.401   7.147   7.451 -0.3313  0.5222 -1.1411
   66MOL   H18727617   2.539   7.221   7.526  0.4686 -1.3074 -1.2985
   66MOL   H18827618   2.471   7.350   7.322  1.2893 -3.9862  0.8531
   66MOL   H18927619   2.429   7.459   7.465  2.3029  0.2347 -1.0058
   66MOL   H19027620   2.317   7.369   7.373  0.7416 -1.6568 -0.1728
   66MOL   C19127621   2.350   6.951   0.277  0.8451 -0.4557  0.2169
   66MOL   C19227622   2.317   6.797   0.289  0.1182  0.3349 -0.1219
   66MOL   C19327623   2.358   6.721   0.161 -0.2060  0.1978  0.7155
   66MOL   C19427624   2.301   6.577   0.155  0.4069 -0.1084  0.6699
   66MOL   C19527625   2.160   6.583   0.088  0.4238  0.0949  0.3676
   66MOL   C19627626   2.108   6.441   0.064 -0.5008 -0.1698 -0.1988
   66MOL   C19727627   1.969   6.452   7.713  0.0210  0.3742 -0.3592
   66MOL   H19827628   2.358   6.994   0.377  1.1724  1.8215 -0.7450
   66MOL   H19927629   2.446   6.951   0.227  1.6452  0.1225  1.7293
   66MOL   H20027630   2.212   6.774   0.306  0.6205  0.2812  3.3790
   66MOL   H20127631   2.467   6.719   0.157 -0.2767 -1.4063 -2.1129
   66MOL   H20227632   2.339   6.773   0.068  0.7465 -1.6780 -0.5701
   66MOL   H20327633   2.302   6.526   0.251  1.7910 -0.0997  0.6597
   66MOL   H20427634   2.368   6.513   0.099  0.5806  0.2833  0.4313
   66MOL   H20527635   2.097   6.639   0.157  0.5302  0.2905  0.3047
   66MOL   H20627636   2.155   6.636   7.706  0.6416 -1.2983 -0.4289
   66MOL   H20727637   2.094   6.399   0.164 -0.0625  1.5373  0.6059
   66MOL   H20827638   2.181   6.381   0.011 -0.2745 -1.7909  1.8906
   66MOL   H20927639   1.981   6.522   7.630  0.1143  3.3627  2.0783
   66MOL   H21027640   1.899   6.495   0.071  0.1646  1.4708 -0.8704
   66MOL   H21127641   1.923   6.353   7.709 -1.7958  1.1288  1.2224
   66MOL   C21227642   2.392   6.750   0.416 -0.7800 -0.1252  0.1363
   66MOL   C21327643   2.333   6.774   0.557  0.0026  0.2108 -0.0660
   66MOL   C21427644   2.210   6.685   0.583  0.5360  0.1775  0.6240
   66MOL   C21527645   2.102   6.767   0.644 -0.1360  0.0557 -0.7277
   66MOL   C21627646   1.971   6.685   0.696  0.3529  0.2257 -0.1044
   66MOL   C21727647   1.879   6.779   0.781  0.0450  0.3249  0.5637
   66MOL   C21827648   1.779   6.692   0.855 -0.3496 -0.5797 -0.1015
   66MOL   H21927649   2.494   6.782   0.395 -0.5606 -1.4568 -0.9253
   66MOL   H22027650   2.401   6.642   0.403  1.5010  0.1945 -1.2893
   66MOL   H22127651   2.290   6.874   0.555  1.0576  0.6729 -0.0389
   66MOL   H22227652   2.176   6.636   0.492  2.8270  0.6832 -0.5341
   66MOL   H22327653   2.239   6.601   0.647 -2.7287  0.6596  2.8499
   66MOL   H22427654   2.070   6.843   0.573  1.5980 -0.1803 -1.7792
   66MOL   H22527655   2.145   6.811   0.734 -1.3325 -1.6286  0.7009
   66MOL   H22627656   1.931   6.622   0.617  3.2190 -1.6257 -0.1539
   66MOL   H22727657   2.016   6.616   0.767  0.4754 -2.1892 -2.4586
   66MOL   H22827658   1.943   6.840   0.844  1.4417  1.3511 -1.7824
   66MOL   H22927659   1.825   6.857   0.728 -1.8444 -1.6158 -0.4527
   66MOL   H23027660   1.716   6.744   0.927  1.4810  2.4909 -0.6344
   66MOL   H23127661   1.812   6.601   0.904 -1.3053  0.0178  1.6890
   66MOL   H23227662   1.712   6.655   0.777  0.3562 -1.3334 -0.3588
   66MOL   C23327663   2.430   6.780   0.685 -0.4948  0.0090 -0.3757
   66MOL   C23427664   2.550   6.883   0.679 -0.2890 -0.2071 -0.3820
   66MOL   C23527665   2.489   7.025   0.711  0.4575  1.0442 -0.2180
   66MOL   C23627666   2.579   7.137   0.659  0.3042 -0.0686  0.8068
   66MOL   C23727667   2.536   7.186   0.522 -0.2843  0.0900 -0.0505
   66MOL   C23827668   2.608   7.317   0.486  0.0282  1.7337 -0.9272
   66MOL   C23927669   2.555   7.396   0.372 -0.0842 -0.5919 -0.2814
   66MOL   H24027670   2.473   6.684   0.711 -0.0749  0.2960  0.0077
   66MOL   H24127671   2.380   6.800   0.780  0.9765 -0.4102  0.5094
   66MOL   H24227672   2.587   6.893   0.576 -1.3059  0.3026 -0.7046
   66MOL   H24327673   2.469   7.045   0.816  1.4119  3.2298 -0.4322
   66MOL   H24427674   2.387   7.039   0.675 -0.2877 -1.4313  0.8553
   66MOL   H24527675   2.681   7.101   0.670  0.5321  0.6137  0.9533
   66MOL   H24627676   2.561   7.224   0.722 -0.3773  0.8472 -0.6450
   66MOL   H24727677   2.428   7.201   0.525 -0.2953  0.0983 -0.4956
   66MOL   H24827678   2.556   7.100   0.458 -2.1331 -0.5266  0.1854
   66MOL   H24927679   2.614   7.379   0.576 -0.5825 -0.4105  0.6369
   66MOL   H25027680   2.713   7.301   0.464 -0.2265  0.0472 -0.9687
   66MOL   H25127681   2.560   7.333   0.283 -3.3652 -1.7018  0.2581
   66MOL   H25227682   2.452   7.428   0.383  0.2146 -0.2533  1.6973
   66MOL   H25327683   2.615   7.486   0.355  0.7609 -0.8855  1.0399
   66MOL   C25427684   2.657   6.848   0.787  0.3637 -1.2898  0.3353
   66MOL   C25527685   2.779   6.767   0.748 -0.0379  0.2935 -0.6668
   66MOL   C25627686   2.741   6.619   0.744  0.1181 -0.0595  0.3930
   66MOL   C25727687   2.717   6.570   0.596  0.2713  0.0330  0.1676
   66MOL   C25827688   2.644   6.440   0.597 -0.0486  0.2303 -0.1526
   66MOL   C25927689   2.625   6.364   0.462  0.4359 -0.0076 -0.1105
   66MOL   C26027690   2.549   6.429   0.344 -0.2595  0.3702 -1.1840
   66MOL   H26127691   2.611   6.809   0.878  2.8892 -2.3919  1.1843
   66MOL   H26227692   2.705   6.943   0.813 -1.7783 -0.8239  2.8975
   66MOL   H26327693   2.806   6.796   0.647  0.3159 -1.9412 -1.2540
   66MOL   H26427694   2.651   6.597   0.800  0.7923 -1.5225  0.9256
   66MOL   H26527695   2.808   6.551   0.797 -0.1500 -0.0975  0.6818
   66MOL   H26627696   2.663   6.645   0.539  0.7700 -1.0659 -1.7832
   66MOL   H26727697   2.817   6.552   0.556  0.8581  1.2394  1.0426
   66MOL   H26827698   2.543   6.462   0.632 -0.3020 -1.0551 -0.0370
   66MOL   H26927699   2.690   6.370   0.667  0.2503 -0.5653 -1.1195
   66MOL   H27027700   2.722   6.331   0.427 -0.1789 -2.5037  0.4198
   66MOL   H27127701   2.576   6.269   0.486 -0.1467 -0.2415 -2.1278
   66MOL   H27227702   2.557   6.363   0.258  1.0852 -0.1629 -0.6615
   66MOL   H27327703   2.444   6.429   0.375 -0.1213  2.3894 -0.6511
   66MOL   H27427704   2.589   6.526   0.313  1.8922 -0.3434 -0.6956
   66MOL   C27527705   2.910   6.790   0.839  0.7744  0.1651  0.5125
   66MOL   C27627706   3.042   6.802   0.760  0.7317 -0.2621 -0.2551
   66MOL   C27727707   3.162   6.806   0.863 -0.1372 -0.2368  0.2319
   66MOL   C27827708   3.196   6.668   0.929  0.1900 -0.3480 -0.0179
   66MOL   C27927709   3.341   6.653   0.994 -0.4243 -0.1927  1.1017
   66MOL   C28027710   3.355   6.525   1.074 -0.1060  0.6671  0.3890
   66MOL   C28127711   3.350   6.404   0.980  0.9381 -0.9048 -0.7814
   66MOL   H28227712   2.920   6.715   0.917  1.4589 -0.9477 -0.6280
   66MOL   H28327713   2.906   6.889   0.884  2.9598  0.0384  1.0370
   66MOL   H28427714   3.067   6.714   0.700 -0.8828 -1.8977  1.3927
   66MOL   H28527715   3.251   6.834   0.806 -1.0516  1.6991 -0.2874
   66MOL   H28627716   3.138   6.883   0.936  0.5109  0.2643 -0.0832
   66MOL   H28727717   3.181   6.599   0.846 -1.2799  1.3238 -1.1692
   66MOL   H28827718   3.123   6.640   1.005  0.0278  0.4697  0.1245
   66MOL   H28927719   3.366   6.734   1.063  1.7320  0.0955  0.0339
   66MOL   H29027720   3.413   6.663   0.913 -1.3704 -0.9316  0.1651
   66MOL   H29127721   3.450   6.518   1.128  1.0397 -2.2115 -1.9079
   66MOL   H29227722   3.266   6.514   1.136 -0.2506 -0.4966 -0.0150
   66MOL   H29327723   3.391   6.311   1.020  2.3078  1.1922  2.9993
   66MOL   H29427724   3.416   6.419   0.895 -0.2620 -0.2904 -1.6154
   66MOL   H29527725   3.246   6.389   0.949  0.9505 -0.3383 -1.0921
   66MOL   C29627726   3.036   6.940   0.681 -0.1296 -0.0831 -0.9964
   66MOL   C29727727   3.089   6.922   0.533 -0.2244 -0.5804 -0.0519
   66MOL   C29827728   3.140   7.049   0.464 -0.1640  0.3722  0.1420
   66MOL   C29927729   3.275   7.108   0.510 -0.3478 -0.6757  0.9939
   66MOL   C30027730   3.296   7.250   0.458 -0.1002  1.0191 -0.9343
   66MOL   C30127731   3.440   7.297   0.460 -0.1588  0.5537 -0.6897
   66MOL   C30227732   3.482   7.322   0.602 -0.4593 -0.2846 -0.5659
   66MOL   H30327733   2.934   6.977   0.690 -0.2286 -0.7185  0.5802
   66MOL   H30427734   3.087   7.026   0.724  1.4168 -0.1444 -2.6357
   66MOL   H30527735   3.179   6.861   0.525 -0.1259 -0.5977  1.1308
   66MOL   H30627736   3.147   7.042   0.355 -1.0466  1.6956 -0.0073
   66MOL   H30727737   3.069   7.131   0.469  0.4723  0.8519  1.6355
   66MOL   H30827738   3.366   7.052   0.487  2.1450  1.8553  4.2760
   66MOL   H30927739   3.273   7.103   0.618  1.7864  0.7176  1.1261
   66MOL   H31027740   3.224   7.318   0.505  0.9972  0.0166  2.3242
   66MOL   H31127741   3.260   7.247   0.355 -0.4592  0.4644 -0.7932
   66MOL   H31227742   3.498   7.217   0.414 -0.6914 -0.8210  0.9478
   66MOL   H31327743   3.442   7.388   0.401  0.1325  1.0905  0.1497
   66MOL   H31427744   3.496   7.235   0.666  0.2516  1.1891  1.3061
   66MOL   H31527745   3.581   7.368   0.604 -0.3896 -0.4831  1.1399
   66MOL   H31627746   3.417   7.394   0.651  0.3312  0.9284 -1.2492
   66MOL   C31727747   2.974   6.854   0.453 -0.2877 -0.1802  0.9746
   66MOL   C31827748   2.996   6.818   0.307 -0.1060 -0.0092 -0.2327
   66MOL   C31927749   3.114   6.722   0.294  0.1330  0.1842  0.0319
   66MOL   C32027750   3.159   6.671   0.150  0.3324 -0.1757 -0.7960
   66MOL   C32127751   3.236   6.766   0.055  0.0159  0.2894 -0.0592
   66MOL   C32227752   3.308   6.700   7.648  0.2195  0.4266 -0.8088
   66MOL   C32327753   3.419   6.787   7.587  0.1982 -0.0898  0.2982
   66MOL   H32427754   2.886   6.919   0.460  0.6195  1.1004  0.7217
   66MOL   H32527755   2.946   6.762   0.503  0.4116 -0.9055  0.0572
   66MOL   H32627756   3.025   6.910   0.257 -2.8950  1.5148  0.8326
   66MOL   H32727757   3.099   6.638   0.362 -1.2767 -0.4613 -1.0503
   66MOL   H32827758   3.203   6.773   0.332  1.1983 -2.7290  1.6493
   66MOL   H32927759   3.071   6.628   0.103 -0.3093 -0.1344  0.3370
   66MOL   H33027760   3.213   6.578   0.167  0.6799  0.5295  2.3436
   66MOL   H33127761   3.311   6.812   0.120  1.5808 -0.1436 -1.5189
   66MOL   H33227762   3.161   6.841   0.031 -2.9822 -2.3330  0.8758
   66MOL   H33327763   3.240   6.671   7.567  1.1935 -1.1343 -1.0991
   66MOL   H33427764   3.348   6.601   7.669  0.4556 -0.3763 -4.6778
   66MOL   H33527765   3.482   6.834   7.662  0.6102 -1.2631  0.7069
   66MOL   H33627766   3.378   6.869   7.529 -0.3149 -1.1725 -0.8881
   66MOL   H33727767   3.486   6.735   7.519  0.7896 -0.8240  1.4174
   66MOL   C33827768   2.861   6.764   0.234 -0.0064  0.4434 -0.0021
   66MOL   C33927769   2.825   6.802   0.086 -1.1998 -0.6507  0.6953
   66MOL   C34027770   2.746   6.938   0.088 -1.1180 -0.1630  0.2058
   66MOL   C34127771   2.828   7.049   0.147  0.2066  0.1069  0.1986
   66MOL   C34227772   2.753   7.183   0.132  0.2802 -0.2529 -0.0453
   66MOL   C34327773   2.835   7.298   0.097  0.5026 -0.5489  0.8401
   66MOL   C34427774   2.919   7.347   0.218  0.5113  0.2086  0.0104
   66MOL   H34527775   2.777   6.792   0.298  1.2954 -0.5730  2.2099
   66MOL   H34627776   2.848   6.656   0.245 -1.0052  0.5880  0.3008
   66MOL   H34727777   2.918   6.813   0.030 -2.4891 -2.3523 -1.8884
   66MOL   H34827778   2.708   6.970   7.704 -0.3882  0.1378  0.0202
   66MOL   H34927779   2.664   6.931   0.160 -1.1765  0.7560  0.2363
   66MOL   H35027780   2.925   7.058   0.099 -0.6544  1.1799 -1.3976
   66MOL   H35127781   2.846   7.025   0.252 -1.2015  1.7252  0.8317
   66MOL   H35227782   2.685   7.171   0.048 -0.0860  2.2143 -0.1414
   66MOL   H35327783   2.688   7.202   0.218  0.3663 -0.5524  0.0852
   66MOL   H35427784   2.901   7.261   0.020 -0.2908 -0.9719  0.3517
   66MOL   H35527785   2.767   7.378   0.069  0.6589 -0.4975  0.6125
   66MOL   H35627786   2.999   7.416   0.190  0.0277  1.3105  1.2571
   66MOL   H35727787   2.969   7.264   0.269  2.0228 -0.4568 -2.4888
   66MOL   H35827788   2.870   7.397   0.301  1.9820  0.2649  0.8682
   66MOL   C35927789   2.755   6.683   0.004 -0.2980  0.1834  0.0554
   66MOL   C36027790   2.736   6.709   7.567  0.0651 -0.4036  0.6733
   66MOL   C36127791   2.785   6.594   7.479 -0.3870 -0.5762 -0.4570
   66MOL   C36227792   2.931   6.578   7.473 -0.1075 -0.1076  0.3529
   66MOL   C36327793   2.979   6.474   7.367  0.3035  0.0185 -0.0925
   66MOL   C36427794   3.130   6.461   7.346  0.2971 -0.4610 -0.5688
   66MOL   C36527795   3.164   6.384   7.218 -1.1599 -0.1195 -0.4050
   66MOL   H36627796   2.673   6.640   0.063  0.8121 -0.8475  0.8713
   66MOL   H36727797   2.828   6.602   0.007 -1.0486 -0.5497 -0.8696
   66MOL   H36827798   2.793   6.795   7.533 -2.8471  1.1167 -0.4539
   66MOL   H36927799   2.744   6.499   7.513 -1.6913 -0.2187 -1.0055
   66MOL   H37027800   2.753   6.600   7.375 -3.9320 -0.6237  0.5935
   66MOL   H37127801   2.977   6.676   7.465 -0.0815  0.0194  1.9451
   66MOL   H37227802   2.976   6.534   7.562  1.7049  0.5658 -0.2034
   66MOL   H37327803   2.931   6.377   7.382  1.7434 -1.1573 -2.8804
   66MOL   H37427804   2.947   6.507   7.268  2.3067  1.6928 -0.2179
   66MOL   H37527805   3.186   6.554   7.342  0.9241 -0.8389 -0.5811
   66MOL   H37627806   3.168   6.411   7.435  0.4273 -0.6378 -0.7247
   66MOL   H37727807   3.139   6.279   7.230  0.3119 -0.5769 -1.2227
   66MOL   H37827808   3.119   6.421   7.126 -1.3629 -0.6122 -0.5043
   66MOL   H37927809   3.273   6.381   7.206 -1.3697  0.5925 -2.7424
   66MOL   C38027810   2.587   6.738   7.527 -0.4525 -0.6459  0.0627
   66MOL   C38127811   2.560   6.815   7.395 -0.2729  0.2766 -0.0231
   66MOL   C38227812   2.406   6.826   7.375 -0.5265 -0.7897 -0.2040
   66MOL   C38327813   2.323   6.693   7.349  0.1786  0.6818  0.3273
   66MOL   C38427814   2.188   6.733   7.304  0.1629  0.4357  0.1080
   66MOL   C38527815   2.090   6.616   7.288 -0.0725 -0.4696 -0.2585
   66MOL   C38627816   1.942   6.651   7.281 -0.4878 -0.2762 -0.3690
   66MOL   H38727817   2.540   6.640   7.528  0.2298 -0.9812  1.1461
   66MOL   H38827818   2.536   6.787   7.611 -0.6582 -2.4302  0.9976
   66MOL   H38927819   2.594   6.751   7.314 -0.5714 -2.4882  1.9674
   66MOL   H39027820   2.401   6.874   7.278 -0.7070 -0.4967 -0.0479
   66MOL   H39127821   2.367   6.888   7.455  0.5894 -2.7226  1.9230
   66MOL   H39227822   2.368   6.634   7.269 -0.5281  1.8957 -1.0038
   66MOL   H39327823   2.310   6.629   7.436  0.7470  0.6865  0.4147
   66MOL   H39427824   2.150   6.802   7.379  2.8663  3.0415 -0.8566
   66MOL   H39527825   2.187   6.796   7.216  1.1654 -1.5113 -1.3257
   66MOL   H39627826   2.100   6.546   7.370 -0.9583 -0.2096  0.0679
   66MOL   H39727827   2.129   6.556   7.204  1.9962  0.8810 -0.3032
   66MOL   H39827828   1.926   6.709   7.190  2.8355 -0.2652 -0.9952
   66MOL   H39927829   1.910   6.724   7.356  1.2848 -1.2405  1.3629
   66MOL   H40027830   1.880   6.562   7.291 -0.7026  0.0715  1.6731
   66MOL   C40127831   2.636   6.954   7.375  0.3296 -0.6086  0.0690
   66MOL   C40227832   2.743   6.957   7.269  0.2256  0.1070 -0.0200
   66MOL   C40327833   2.689   6.963   7.125 -0.5252 -0.1638 -0.0962
   66MOL   C40427834   2.800   6.950   7.027  0.1326 -0.1057 -0.0723
   66MOL   C40527835   2.846   6.801   6.990  0.9907  0.2354  0.3028
   66MOL   C40627836   2.984   6.798   6.914  0.0598  0.3568  0.3263
   66MOL   C40727837   3.041   6.656   6.886 -0.0693  0.1305  0.3703
   66MOL   H40827838   2.697   6.972   7.463  1.3448  0.5488 -0.8473
   66MOL   H40927839   2.568   7.038   7.362 -1.6762 -2.1333  0.4796
   66MOL   H41027840   2.804   6.867   7.277  1.0951  0.5842 -1.1214
   66MOL   H41127841   2.647   7.064   7.123  0.8623  0.4222 -0.5262
   66MOL   H41227842   2.606   6.894   7.108 -1.1693  0.6210 -0.2160
   66MOL   H41327843   2.895   6.996   7.052 -0.2891  0.1300  1.1442
   66MOL   H41427844   2.774   7.004   6.936  1.4350  1.2732  0.3549
   66MOL   H41527845   2.855   6.743   7.082 -0.4187  0.3576  0.5365
   66MOL   H41627846   2.768   6.762   6.925 -1.3028  0.4448  2.8089
   66MOL   H41727847   2.950   6.836   6.818 -3.1937  0.5205  1.4651
   66MOL   H41827848   3.057   6.870   6.951 -0.6239  0.0330  2.4078
   66MOL   H41927849   2.963   6.590   6.848  0.5920 -1.5717  1.9350
   66MOL   H42027850   3.075   6.625   6.984 -1.3164 -1.9094  0.1778
   66MOL   H42127851   3.131   6.658   6.825  0.0380  0.3072  0.5328
   66MOL   H42227852   2.806   7.044   7.286 -1.0546  1.0977 -0.3591
   67MOL     C127853   7.486   4.679   4.791  0.4326  0.2312  0.4171
   67MOL     C227854   7.343   4.649   4.753  0.5948 -0.1547 -0.0927
   67MOL     C327855   7.274   4.609   4.884 -0.5884  0.1246  0.0568
   67MOL     C427856   7.240   4.735   4.960  0.3924 -0.7631 -0.3012
   67MOL     C527857   7.162   4.699   5.085  0.1947 -0.9336  0.5801
   67MOL     C627858   7.118   4.823   5.168  0.0492  0.2072  0.1831
   67MOL     C727859   6.990   4.887   5.123 -0.5205 -0.2036 -0.5447
   67MOL     H827860   7.528   4.596   4.848  0.5902 -0.3210 -0.4976
   67MOL     H927861   7.499   4.760   4.862  1.7566 -0.4091  0.9220
   67MOL    H1027862   7.290   4.731   4.704  0.3244 -0.2351  0.0609
   67MOL    H1127863   7.182   4.559   4.853 -0.9618  1.5313 -1.1516
   67MOL    H1227864   7.331   4.534   4.938 -1.3302 -0.9942 -0.6827
   67MOL    H1327865   7.328   4.784   5.002 -1.0215  1.3671  0.2762
   67MOL    H1427866   7.179   4.810   4.909  0.5831 -0.4156 -0.0176
   67MOL    H1527867   7.220   4.627   5.144 -0.1408 -1.3681  0.3866
   67MOL    H1627868   7.072   4.641   5.066 -0.4910 -0.0571  1.1146
   67MOL    H1727869   7.195   4.898   5.183  0.1107 -0.0587  1.2063
   67MOL    H1827870   7.109   4.795   5.273  1.0727 -3.1534 -0.5547
   67MOL    H1927871   6.975   4.970   5.192  0.4763 -0.2835 -0.2315
   67MOL    H2027872   6.899   4.825   5.121 -0.7566 -0.0092  1.9219
   67MOL    H2127873   7.005   4.937   5.028 -0.1598  0.4208 -0.1608
   67MOL    H2227874   7.550   4.695   4.704 -0.3837  0.4448 -0.1519
   67MOL    C2327875   7.339   4.534   4.659 -0.5262 -0.1255 -0.3161
   67MOL    C2427876   7.400   4.552   4.524 -0.4900  0.2580 -0.1927
   67MOL    C2527877   7.353   4.670   4.450 -0.0247 -1.1899  0.5739
   67MOL    C2627878   7.199   4.674   4.413 -0.6960 -0.2885  0.2673
   67MOL    C2727879   7.162   4.799   4.332  0.1860  0.4185  0.4159
   67MOL    C2827880   7.036   4.789   4.253 -0.1549  0.0015 -0.4842
   67MOL    C2927881   7.018   4.894   4.144 -0.2418  0.0080  0.2538
   67MOL    H3027882   7.390   4.457   4.716  2.1822 -0.0694 -2.5615
   67MOL    H3127883   7.240   4.489   4.656 -1.6388  2.0787  1.6236
   67MOL    H3227884   7.507   4.568   4.539 -0.7113  2.1571 -0.4388
   67MOL    H3327885   7.411   4.692   4.360 -1.6062 -0.1142 -0.2168
   67MOL    H3427886   7.371   4.756   4.513  0.7309 -0.6123 -0.4119
   67MOL    H3527887   7.139   4.660   4.503 -2.3524  0.7101 -0.6662
   67MOL    H3627888   7.177   4.587   4.350  1.5881  0.3738 -1.4938
   67MOL    H3727889   7.242   4.811   4.259 -0.2777 -2.6137 -0.6823
   67MOL    H3827890   7.159   4.885   4.399  1.6359  1.6556 -1.0763
   67MOL    H3927891   6.948   4.797   4.318  1.1792 -2.6870  1.7857
   67MOL    H4027892   7.033   4.689   4.211  0.4250  0.2299 -1.0607
   67MOL    H4127893   7.103   4.880   4.077  0.2578  1.7369  0.4974
   67MOL    H4227894   6.927   4.864   4.093 -0.1275 -0.0628  0.0906
   67MOL    H4327895   7.020   4.999   4.173  3.9047  0.3000 -0.7027
   67MOL    C4427896   7.399   4.422   4.444  0.1562 -0.5310 -0.1717
   67MOL    C4527897   7.536   4.358   4.412 -0.3851 -0.3440 -0.0383
   67MOL    C4627898   7.615   4.307   4.536 -0.6969  0.4532 -0.4532
   67MOL    C4727899   7.548   4.185   4.611 -0.1742 -0.4555  0.7015
   67MOL    C4827900   7.612   4.148   4.742  0.0046 -0.0003  0.1196
   67MOL    C4927901   7.563   4.221   4.869  0.1924 -0.0048 -0.3527
   67MOL    C5027902   7.608   4.164   4.999 -0.3666 -0.2817 -0.6949
   67MOL    H5127903   7.345   4.445   4.352  0.3598  0.9870  0.0823
   67MOL    H5227904   7.332   4.351   4.492 -1.8234  1.5954  0.2591
   67MOL    H5327905   7.597   4.434   4.365  2.1228 -1.5135  1.2116
   67MOL    H5427906   7.618   4.387   4.610 -0.5696  0.5398 -0.5517
   67MOL    H5527907   0.007   4.285   4.516  0.1848  2.1787  1.9507
   67MOL    H5627908   7.443   4.210   4.622 -0.0540  0.5155 -0.2921
   67MOL    H5727909   7.537   4.099   4.544 -1.2496  1.3437 -1.4766
   67MOL    H5827910   0.005   4.157   4.722 -0.0948 -1.7136 -1.3591
   67MOL    H5927911   7.587   4.042   4.737  0.1115  0.0311 -1.3935
   67MOL    H6027912   7.456   4.206   4.881  0.5130 -2.4483 -0.3766
   67MOL    H6127913   7.567   4.329   4.854 -0.7798  0.0874  0.0027
   67MOL    H6227914   0.001   4.147   5.015 -0.3902 -0.0564 -0.3075
   67MOL    H6327915   7.563   4.068   5.022 -2.2737  0.7150 -0.2080
   67MOL    H6427916   7.585   4.217   5.091  1.6145 -1.2571  0.4148
   67MOL    C6527917   7.528   4.248   4.304 -0.1923 -0.1579 -0.3671
   67MOL    C6627918   7.662   4.173   4.267 -0.2762  0.3715 -0.3202
   67MOL    C6727919   0.059   4.267   4.234 -0.3762  1.0818  0.0396
   67MOL    C6827920   0.038   4.346   4.105 -0.0842  0.0642  0.1241
   67MOL    C6927921   0.145   4.453   4.093  0.0394 -0.6732 -0.2452
   67MOL    C7027922   0.110   4.527   3.958  0.1698 -0.0957  0.1361
   67MOL    C7127923   0.197   4.642   3.934  0.6163 -0.0654 -0.5458
   67MOL    H7227924   7.445   4.180   4.323 -0.9575 -0.1382 -3.3138
   67MOL    H7327925   7.483   4.298   4.218 -0.7338  0.8836  0.5173
   67MOL    H7427926   7.701   4.126   4.358  0.1317 -0.1085 -0.7431
   67MOL    H7527927   0.079   4.335   4.317  0.6322  2.3021 -1.1874
   67MOL    H7627928   0.149   4.208   4.216 -0.3371  1.3926 -0.7813
   67MOL    H7727929   0.046   4.286   4.015  2.9956 -1.6702  1.4365
   67MOL    H7827930   7.660   4.406   4.109 -0.0136  0.4347 -2.8278
   67MOL    H7927931   0.142   4.519   4.180 -0.0015 -0.3710 -0.4705
   67MOL    H8027932   0.244   4.410   4.084  0.3188 -0.2911  0.9830
   67MOL    H8127933   0.008   4.565   3.948 -1.7835 -4.3579  2.6580
   67MOL    H8227934   0.139   4.461   3.876  2.5924  0.0336  0.8361
   67MOL    H8327935   0.185   4.699   3.841  0.6436 -1.3933 -1.3759
   67MOL    H8427936   0.184   4.721   4.008  1.5473 -0.3243 -0.1095
   67MOL    H8527937   0.297   4.602   3.918 -0.2374 -1.8306 -1.5790
   67MOL    C8627938   7.644   4.060   4.162  0.1564 -0.1302  0.0296
   67MOL    C8727939   7.555   3.935   4.199  0.2426 -0.0527 -0.1805
   67MOL    C8827940   7.542   3.843   4.077  0.2877 -0.2458 -0.0705
   67MOL    C8927941   7.435   3.892   3.982  0.3250  0.1672  0.8156
   67MOL    C9027942   7.398   3.782   3.872  0.2907  0.2174  0.7261
   67MOL    C9127943   7.257   3.798   3.811 -0.2074 -0.2431  0.6231
   67MOL    C9227944   7.144   3.746   3.903  0.8175 -0.4742  0.2183
   67MOL    H9327945   7.619   4.109   4.067 -1.5078  1.2843  1.1616
   67MOL    H9427946   0.031   4.020   4.151  0.5770  0.5869  1.2513
   67MOL    H9527947   7.458   3.981   4.216 -0.2570 -1.3340  0.5266
   67MOL    H9627948   7.637   3.824   4.028  0.1207 -1.4427  0.0597
   67MOL    H9727949   7.511   3.742   4.104 -1.5456  0.1867 -0.4671
   67MOL    H9827950   7.346   3.906   4.042  0.7826  1.8361  1.1397
   67MOL    H9927951   7.460   3.989   3.938  1.3232  0.5250  2.1419
   67MOL   H10027952   7.418   3.682   3.912  0.6503  0.2271  0.5679
   67MOL   H10127953   7.469   3.784   3.790  0.4403 -0.4674  0.8283
   67MOL   H10227954   7.234   3.903   3.793  2.7798  0.0264 -1.8961
   67MOL   H10327955   7.259   3.745   3.716 -0.3918  1.1902 -0.2012
   67MOL   H10427956   7.138   3.800   3.998  2.2254  1.3707 -0.7177
   67MOL   H10527957   7.160   3.644   3.939 -1.7406 -1.3483 -1.0423
   67MOL   H10627958   7.043   3.752   3.864  0.6872  0.4283  0.6810
   67MOL   C10727959   7.609   3.860   4.322 -0.4213  0.1319  0.4411
   67MOL   C10827960   7.520   3.752   4.389  0.1150 -0.1087 -0.7002
   67MOL   C10927961   7.594   3.677   4.496  0.2270 -0.2529 -0.2932
   67MOL   C11027962   7.666   3.556   4.446  0.3639 -0.2079  0.2204
   67MOL   C11127963   0.012   3.480   4.565 -0.8275 -0.0632  0.7368
   67MOL   C11227964   0.083   3.352   4.527  0.2137  0.3618 -0.1183
   67MOL   C11327965   0.189   3.358   4.417  0.1117  0.2092 -0.3134
   67MOL   H11427966   7.645   3.931   4.396  1.7714 -2.7212  2.2139
   67MOL   H11527967   7.700   3.813   4.286 -0.9693  0.1996 -1.0620
   67MOL   H11627968   7.491   3.688   4.306 -0.5044  0.7328 -1.1459
   67MOL   H11727969   7.527   3.647   4.577  1.8053  2.3259  2.0906
   67MOL   H11827970   7.665   3.751   4.533  0.4279 -1.1022  1.0505
   67MOL   H11927971   7.596   3.491   4.393 -1.0645  1.9699 -0.6594
   67MOL   H12027972   0.022   3.586   4.368 -1.5003  0.0408 -1.4022
   67MOL   H12127973   7.652   3.452   4.641  0.0398  1.7662  2.2874
   67MOL   H12227974   0.089   3.543   4.609 -0.0517 -0.0188 -0.6461
   67MOL   H12327975   0.125   3.309   4.617  1.2061  1.0509 -0.2403
   67MOL   H12427976   0.005   3.283   4.495  0.8750 -0.7290  0.5732
   67MOL   H12527977   0.150   3.387   4.319  1.5296  0.2125 -0.8835
   67MOL   H12627978   0.260   3.433   4.452  0.5888 -0.5029  0.2499
   67MOL   H12727979   0.253   3.271   4.406 -1.3840 -0.5432 -3.8652
   67MOL   C12827980   7.397   3.831   4.441  0.1920  0.1115  0.1667
   67MOL   C12927981   7.281   3.744   4.480 -0.5114  0.1391 -0.1310
   67MOL   C13027982   7.211   3.680   4.358 -0.5317  0.5413 -0.0590
   67MOL   C13127983   7.111   3.564   4.393  0.1113  0.5017 -0.1400
   67MOL   C13227984   7.111   3.448   4.291 -0.1282 -0.1828  0.3086
   67MOL   C13327985   6.995   3.356   4.322  0.0744 -0.2971 -0.3718
   67MOL   C13427986   6.996   3.227   4.240 -0.0872 -0.9272  0.0475
   67MOL   H13527987   7.437   3.888   4.525  0.6702 -2.6395  1.9058
   67MOL   H13627988   7.360   3.898   4.364  1.7246 -0.7331 -1.3305
   67MOL   H13727989   7.330   3.663   4.533  0.5664  0.1534 -1.0915
   67MOL   H13827990   7.284   3.637   4.289 -0.8818 -0.9823  0.4843
   67MOL   H13927991   7.162   3.760   4.304 -0.9349 -0.3478 -1.0252
   67MOL   H14027992   7.012   3.607   4.402  1.3569  3.1643  1.1736
   67MOL   H14127993   7.139   3.520   4.489 -0.9219 -0.5689 -0.3117
   67MOL   H14227994   7.206   3.395   4.299  0.7318  1.1062 -1.1228
   67MOL   H14327995   7.101   3.497   4.195  1.6288 -1.6419 -0.6396
   67MOL   H14427996   6.903   3.415   4.317  1.3276  1.6062 -1.6747
   67MOL   H14527997   7.005   3.330   4.428 -1.4786 -0.5555 -0.2758
   67MOL   H14627998   6.915   3.165   4.279 -0.1687  0.0254  1.4280
   67MOL   H14727999   7.084   3.174   4.275  0.1838 -0.9516 -0.6714
   67MOL   H14828000   7.011   3.246   4.134 -1.1648 -2.2189 -0.3598
   67MOL   C14928001   7.172   3.806   4.572 -0.1037  0.6475 -0.3706
   67MOL   C15028002   7.220   3.908   4.681 -0.0664 -0.3220  0.4842
   67MOL   C15128003   7.329   3.848   4.774  0.0728  0.2965 -0.3723
   67MOL   C15228004   7.275   3.728   4.859 -0.6073  0.0625 -0.2978
   67MOL   C15328005   7.353   3.700   4.992 -0.2695 -0.2251 -0.6148
   67MOL   C15428006   7.278   3.596   5.082  0.2448 -0.4590 -0.3464
   67MOL   C15528007   7.345   3.579   5.225  0.5408 -0.0576 -0.8722
   67MOL   H15628008   7.094   3.847   4.508 -0.3089  0.3741 -0.2928
   67MOL   H15728009   7.119   3.728   4.627  1.8513  0.0860  0.7787
   67MOL   H15828010   7.268   3.991   4.631 -1.3566  0.0373 -0.1802
   67MOL   H15928011   7.418   3.810   4.724  0.8344  2.4466 -0.6990
   67MOL   H16028012   7.370   3.918   4.847  2.3211  0.1489 -1.4510
   67MOL   H16128013   7.277   3.641   4.793 -0.2913  0.2177 -0.4936
   67MOL   H16228014   7.171   3.743   4.888 -0.0582  3.0959  0.2493
   67MOL   H16328015   7.354   3.797   5.042 -2.0304 -0.5042  0.0012
   67MOL   H16428016   7.456   3.671   4.971 -0.2647 -0.5317 -0.1805
   67MOL   H16528017   7.284   3.501   5.028 -3.7532 -1.2510  0.4211
   67MOL   H16628018   7.170   3.615   5.086  0.3395 -0.1801  0.7793
   67MOL   H16728019   7.322   3.660   5.294  2.1570  0.8159 -1.3317
   67MOL   H16828020   7.453   3.567   5.219  0.2559 -2.9873 -0.9291
   67MOL   H16928021   7.308   3.483   5.262  0.7200 -0.3558 -1.4632
   67MOL   C17028022   7.099   3.969   4.765 -0.4395 -0.1862  1.0807
   67MOL   C17128023   7.001   4.065   4.692 -0.2484 -0.2450  0.2253
   67MOL   C17228024   6.880   4.110   4.782  0.3198  0.4078  0.0953
   67MOL   C17328025   6.798   4.001   4.848 -0.7444 -0.1248 -0.0762
   67MOL   C17428026   6.715   3.904   4.746  0.5159 -0.0258 -0.1527
   67MOL   C17528027   6.616   3.802   4.818 -0.1142 -0.3932  0.6148
   67MOL   C17628028   6.575   3.701   4.710  0.6951 -0.2743 -0.0792
   67MOL   H17728029   7.134   4.015   4.858 -1.2934  1.4758  0.5890
   67MOL   H17828030   7.047   3.878   4.794  0.0359 -0.5662  0.7507
   67MOL   H17928031   6.959   4.017   4.603  0.8442  3.3970 -2.3898
   67MOL   H18028032   6.811   4.175   4.728  2.4789  3.7075  1.1636
   67MOL   H18128033   6.926   4.176   4.855  1.0868  0.6762 -0.6192
   67MOL   H18228034   6.721   4.044   4.912 -0.2184  1.3582 -0.4224
   67MOL   H18328035   6.852   3.938   4.920  0.6015 -0.6860 -1.5451
   67MOL   H18428036   6.783   3.854   4.678  0.7596  2.0862 -1.5098
   67MOL   H18528037   6.671   3.965   4.668  1.2095  0.4959 -0.1433
   67MOL   H18628038   6.536   3.860   4.864  0.2123  0.1640  0.4751
   67MOL   H18728039   6.673   3.740   4.887  0.4767 -3.3016 -2.3275
   67MOL   H18828040   6.655   3.627   4.703  0.3934 -0.8201  2.0568
   67MOL   H18928041   6.558   3.742   4.610  2.1536  0.1168 -0.1788
   67MOL   H19028042   6.479   3.655   4.734  0.2063  1.3422  1.0746
   67MOL   C19128043   7.061   4.189   4.624  0.2682 -0.3444 -0.2213
   67MOL   C19228044   6.997   4.225   4.486  0.0274  0.1004  0.0551
   67MOL   C19328045   6.988   4.376   4.454  0.1383  1.1120 -0.0359
   67MOL   C19428046   6.887   4.446   4.551  0.0368  0.6380  0.3641
   67MOL   C19528047   6.742   4.412   4.518  0.7570  0.0624 -0.5868
   67MOL   C19628048   6.633   4.491   4.604  0.3842  0.3467  0.8730
   67MOL   C19728049   6.497   4.458   4.556 -0.4049 -0.1798 -0.5815
   67MOL   H19828050   7.169   4.176   4.613  0.5717  2.2331 -0.5161
   67MOL   H19928051   7.050   4.269   4.697  3.8207 -1.4586  1.6267
   67MOL   H20028052   6.895   4.188   4.491 -0.0142  0.2786  0.5031
   67MOL   H20128053   6.961   4.394   4.350 -1.2537  1.8377  0.4282
   67MOL   H20228054   7.087   4.419   4.471  0.4905 -0.2787  1.5848
   67MOL   H20328055   6.895   4.554   4.539 -2.1008  0.7957  0.1380
   67MOL   H20428056   6.919   4.424   4.652 -3.7551 -1.8748  1.1191
   67MOL   H20528057   6.717   4.428   4.413 -0.7858 -1.3332 -0.4452
   67MOL   H20628058   6.730   4.309   4.551  0.1912  0.3952  0.2692
   67MOL   H20728059   6.643   4.599   4.610 -0.4405  0.5057 -0.3797
   67MOL   H20828060   6.648   4.456   4.706 -0.2188 -2.8214 -0.0697
   67MOL   H20928061   6.426   4.523   4.607  0.4455  1.0532 -0.9224
   67MOL   H21028062   6.474   4.352   4.569  1.0763 -0.4449  0.0510
   67MOL   H21128063   6.481   4.476   4.450 -0.5735  1.2648 -0.3283
   67MOL   C21228064   7.052   4.150   4.369 -0.0762 -0.1395  0.1639
   67MOL   C21328065   6.945   4.094   4.273  0.3827 -0.2089 -0.1095
   67MOL   C21428066   7.002   4.097   4.130  0.0233 -0.4920 -0.2369
   67MOL   C21528067   6.970   4.225   4.048  1.1277 -0.0555 -0.1630
   67MOL   C21628068   7.038   4.209   3.906 -0.4563 -0.2000  0.5337
   67MOL   C21728069   6.995   4.313   3.803 -0.0068 -0.1096  0.1488
   67MOL   C21828070   6.840   4.337   3.787 -1.0876  0.9126 -0.3679
   67MOL   H21928071   7.110   4.064   4.400 -0.1887  0.0089  0.7947
   67MOL   H22028072   7.119   4.222   4.323  0.3585 -1.9203 -2.0853
   67MOL   H22128073   6.871   4.174   4.278  0.5360 -0.0222 -0.7227
   67MOL   H22228074   7.109   4.076   4.122  0.4265  1.6590 -0.7037
   67MOL   H22328075   6.955   4.021   4.068 -2.6673  3.1228 -2.8264
   67MOL   H22428076   6.998   4.318   4.096 -0.2424 -0.1973  0.9291
   67MOL   H22528077   6.862   4.235   4.048  0.9856 -1.2322  1.8663
   67MOL   H22628078   7.145   4.194   3.915 -0.2636 -1.2350 -2.9762
   67MOL   H22728079   7.006   4.110   3.873  0.6656 -0.5675  0.5454
   67MOL   H22828080   7.048   4.406   3.821  3.1026 -2.1508  1.9773
   67MOL   H22928081   7.036   4.275   3.710  0.2775 -0.6336  0.4828
   67MOL   H23028082   6.796   4.369   3.881 -2.7847  0.0435 -0.8341
   67MOL   H23128083   6.784   4.244   3.777  0.3865 -0.4169  3.0594
   67MOL   H23228084   6.816   4.410   3.710  1.2074 -0.7601 -2.7457
   67MOL   C23328085   6.892   3.951   4.312 -0.1333  0.1946 -0.0813
   67MOL   C23428086   6.745   3.917   4.273  0.6965 -0.1207 -0.9728
   67MOL   C23528087   6.716   3.764   4.264  0.9082 -0.7361  0.0411
   67MOL   C23628088   6.776   3.700   4.136 -0.0172 -0.1690 -0.2227
   67MOL   C23728089   6.720   3.557   4.111 -0.3590  0.1058 -0.6086
   67MOL   C23828090   6.786   3.489   3.991 -1.1629  0.0719 -0.1492
   67MOL   C23928091   6.750   3.563   3.861  0.0986 -0.3795  0.4474
   67MOL   H24028092   6.906   3.927   4.417 -0.0648  0.0098 -0.1323
   67MOL   H24128093   6.960   3.885   4.257  0.6270  1.0833 -0.2355
   67MOL   H24228094   6.723   3.949   4.171  0.5228  0.9439 -0.6111
   67MOL   H24328095   6.612   3.737   4.278  0.8363 -0.6751 -0.3855
   67MOL   H24428096   6.762   3.711   4.348  1.0775 -3.6328 -1.7974
   67MOL   H24528097   6.884   3.704   4.153  0.0503  0.8282 -0.8543
   67MOL   H24628098   6.761   3.767   4.052 -0.5336 -0.4473 -0.3541
   67MOL   H24728099   6.612   3.567   4.106 -0.3900  1.7529  2.3150
   67MOL   H24828100   6.736   3.508   4.207 -1.1902 -1.0696 -1.0629
   67MOL   H24928101   6.891   3.461   4.003 -0.6142  2.0197 -0.3427
   67MOL   H25028102   6.734   3.393   3.990  0.6002 -0.8900 -0.7784
   67MOL   H25128103   6.790   3.665   3.856  1.5705 -0.8503  1.9076
   67MOL   H25228104   6.792   3.512   3.774 -0.3377  2.6361 -1.6083
   67MOL   H25328105   6.643   3.572   3.846 -0.0546  1.3279  2.3286
   67MOL   C25428106   6.651   3.976   4.386 -0.7908 -0.5391  0.1940
   67MOL   C25528107   6.502   3.986   4.364 -0.3724 -0.4951 -0.7202
   67MOL   C25628108   6.473   4.063   4.230  0.1241 -0.1870  0.3163
   67MOL   C25728109   6.524   4.211   4.226  0.3766  0.4042 -0.4229
   67MOL   C25828110   6.497   4.295   4.097  0.4005 -0.2131 -0.2079
   67MOL   C25928111   6.553   4.434   4.122  0.2820  0.0517 -0.0183
   67MOL   C26028112   6.509   4.524   4.007  0.1520  0.0412  0.8310
   67MOL   H26128113   6.684   4.076   4.412  1.2901 -0.9555 -0.7855
   67MOL   H26228114   6.668   3.912   4.472 -1.9369 -2.6982 -1.1459
   67MOL   H26328115   6.471   3.885   4.341 -1.1256 -0.1827 -1.0921
   67MOL   H26428116   6.364   4.062   4.221  0.2421  0.4333 -1.3200
   67MOL   H26528117   6.498   4.003   4.143  1.0081 -0.4584  0.7553
   67MOL   H26628118   6.495   4.264   4.316 -0.8547 -0.9873  0.0089
   67MOL   H26728119   6.632   4.212   4.241  0.6117 -0.9891 -1.8162
   67MOL   H26828120   6.390   4.303   4.076  0.5285  0.3007 -0.6718
   67MOL   H26928121   6.537   4.234   4.016 -0.6887  2.1248 -2.5499
   67MOL   H27028122   6.520   4.475   4.217 -1.9135  0.2117 -0.8128
   67MOL   H27128123   6.661   4.424   4.134  0.1624 -0.9243  0.2588
   67MOL   H27228124   6.405   4.555   4.017  0.0698 -1.2167  4.5476
   67MOL   H27328125   6.569   4.614   4.001  0.4330 -0.1893  0.0772
   67MOL   H27428126   6.508   4.475   3.910 -0.5857  0.8520  0.4213
   67MOL   C27528127   6.439   4.052   4.493 -0.1283 -0.6919 -0.8582
   67MOL   C27628128   6.285   4.058   4.493 -0.3644  0.2392 -0.6228
   67MOL   C27728129   6.230   4.175   4.582 -0.0940  0.5158  0.2891
   67MOL   C27828130   6.243   4.145   4.738  0.2277 -0.3047 -0.0185
   67MOL   C27928131   6.170   4.257   4.817  0.3128 -0.4193 -0.4894
   67MOL   C28028132   6.176   4.243   4.969  0.4807 -0.0134 -0.6881
   67MOL   C28128133   6.125   4.367   5.045  0.3729  0.7652 -0.5669
   67MOL   H28228134   6.484   4.149   4.513 -1.6126  0.0433 -0.9998
   67MOL   H28328135   6.477   3.986   4.571  1.0592  1.4009  0.3564
   67MOL   H28428136   6.260   4.086   4.391 -1.9782 -1.7055 -0.7711
   67MOL   H28528137   6.282   4.266   4.552  0.5604 -0.1444 -0.5603
   67MOL   H28628138   6.128   4.207   4.557 -0.0254  1.7703  1.5603
   67MOL   H28728139   6.342   4.131   4.781 -0.2805 -0.5485  1.0705
   67MOL   H28828140   6.196   4.048   4.754  1.1485 -0.5128  1.4902
   67MOL   H28928141   6.065   4.265   4.786  1.1514  1.8352 -2.9632
   67MOL   H29028142   6.199   4.355   4.780 -0.8514  0.1072 -0.0570
   67MOL   H29128143   6.123   4.153   4.999  0.3703  0.6575  1.2260
   67MOL   H29228144   6.280   4.219   4.995  0.9807 -0.5824 -3.1252
   67MOL   H29328145   6.204   4.441   5.033  0.3919  0.6871 -0.9462
   67MOL   H29428146   6.103   4.357   5.151  3.5336 -0.0670  0.0651
   67MOL   H29528147   6.033   4.401   4.997  1.0666  0.7611 -1.9358
   67MOL   C29628148   6.225   3.917   4.517  0.2610 -0.3976 -0.4569
   67MOL   C29728149   6.076   3.911   4.474  0.5050  0.1543  0.0734
   67MOL   C29828150   6.016   3.782   4.536 -0.3941 -0.3643  0.3363
   67MOL   C29928151   5.949   3.800   4.679  0.3137 -0.1363  0.1090
   67MOL   C30028152   5.888   3.668   4.715  0.3903  0.0339 -0.5107
   67MOL   C30128153   5.828   3.672   4.853 -0.0932  0.9121  0.0914
   67MOL   C30228154   5.801   3.532   4.911 -0.3982  0.0574  0.2424
   67MOL   H30328155   6.287   3.845   4.465 -1.9357 -1.1037 -2.1812
   67MOL   H30428156   6.240   3.879   4.618  2.9694  0.7049 -0.4107
   67MOL   H30528157   6.019   3.996   4.510 -0.0716 -0.0385 -0.3807
   67MOL   H30628158   5.938   3.741   4.471 -1.5142  1.3061  0.5934
   67MOL   H30728159   6.095   3.707   4.542  0.6755  0.7362  0.3098
   67MOL   H30828160   5.875   3.880   4.683 -1.1882 -1.1880 -4.2589
   67MOL   H30928161   6.023   3.835   4.751  0.0756  1.3469 -0.3604
   67MOL   H31028162   5.966   3.592   4.722  0.0978 -0.3707 -1.5566
   67MOL   H31128163   5.811   3.651   4.640 -0.1699  0.7344 -0.0983
   67MOL   H31228164   5.898   3.722   4.921  1.1001  0.5436 -0.8534
   67MOL   H31328165   5.741   3.738   4.859 -0.4230  0.3973  1.1472
   67MOL   H31428166   5.785   3.539   5.018  1.9968 -1.6394  0.7809
   67MOL   H31528167   5.708   3.495   4.868 -0.6017 -0.5386  1.1757
   67MOL   H31628168   5.880   3.457   4.903  0.8119  1.1779  1.4266
   67MOL   C31728169   6.068   3.905   4.318  0.4052  0.3554  0.0414
   67MOL   C31828170   5.965   3.996   4.248 -0.8936 -0.6316  0.2994
   67MOL   C31928171   5.982   3.982   4.090 -0.3796 -0.3184 -0.3304
   67MOL   C32028172   5.969   4.116   4.011  1.0607  0.5587 -0.1654
   67MOL   C32128173   5.974   4.103   3.858 -0.0292 -1.1422  0.6420
   67MOL   C32228174   5.949   4.234   3.783 -0.1626  0.5896  0.5434
   67MOL   C32328175   6.065   4.332   3.788  0.0705  0.5039 -0.3842
   67MOL   H32428176   6.045   3.806   4.279 -0.8290  1.2194 -1.5160
   67MOL   H32528177   6.163   3.915   4.266  0.5981 -0.9885  0.1292
   67MOL   H32628178   6.001   4.096   4.271  1.0044 -0.3494 -3.5699
   67MOL   H32728179   5.915   3.905   4.054 -0.3392 -1.1045  1.2205
   67MOL   H32828180   6.084   3.952   4.066  0.4849  0.8381  1.7111
   67MOL   H32928181   6.029   4.196   4.055  0.8278 -0.9937  3.0559
   67MOL   H33028182   5.871   4.152   4.043  0.4445 -0.0076 -1.3833
   67MOL   H33128183   5.901   4.026   3.831 -0.8837 -0.7185  1.6802
   67MOL   H33228184   6.075   4.068   3.837  0.0912 -0.8782  0.7767
   67MOL   H33328185   5.863   4.282   3.827 -1.3040  1.3940 -2.4277
   67MOL   H33428186   5.916   4.211   3.682 -0.9969 -1.7663  1.3191
   67MOL   H33528187   6.142   4.304   3.716 -0.1921  1.3948 -1.0264
   67MOL   H33628188   6.116   4.341   3.884  1.1327  0.7003 -0.9608
   67MOL   H33728189   6.032   4.431   3.759 -1.1592  0.0488 -0.5610
   67MOL   C33828190   5.818   3.976   4.290 -0.0501 -0.1034 -0.1091
   67MOL   C33928191   5.739   4.109   4.326 -0.0158  0.8073  0.2878
   67MOL   C34028192   5.788   4.169   4.460  0.2419  0.6090  0.6866
   67MOL   C34128193   5.732   4.320   4.474  0.2909 -0.0905  0.3281
   67MOL   C34228194   5.793   4.387   4.596 -0.4999 -0.6362 -0.4354
   67MOL   C34328195   5.741   4.529   4.615  0.2470  0.3363  0.4441
   67MOL   C34428196   5.805   4.581   4.741 -0.3812  0.0506  0.0913
   67MOL   H34528197   5.826   3.911   4.377  2.0370  1.1021  0.6323
   67MOL   H34628198   5.762   3.905   4.229 -2.3246  1.3380  0.2215
   67MOL   H34728199   5.754   4.186   4.250  2.8200  0.2342  0.2027
   67MOL   H34828200   5.742   4.113   4.540 -0.3340  0.7770  0.4817
   67MOL   H34928201   5.895   4.163   4.478 -0.1895 -1.3745  2.7406
   67MOL   H35028202   5.623   4.325   4.468  0.3206 -1.3270 -1.5706
   67MOL   H35128203   5.752   4.379   4.385 -1.0391  1.6959  1.1710
   67MOL   H35228204   5.770   4.324   4.682  0.6906  0.1892  0.5008
   67MOL   H35328205   5.901   4.382   4.583 -0.3354  1.7618 -0.2427
   67MOL   H35428206   5.776   4.586   4.528  2.6130  0.4066  1.3810
   67MOL   H35528207   5.633   4.524   4.626  0.2680 -2.3272 -0.2531
   67MOL   H35628208   5.793   4.688   4.757 -1.3018 -0.1886  1.0548
   67MOL   H35728209   5.913   4.565   4.749 -0.3583  0.5721  0.8518
   67MOL   H35828210   5.765   4.528   4.827  0.5194 -0.0209  0.4702
   67MOL   C35928211   5.588   4.083   4.319  0.0746 -0.2398 -0.0928
   67MOL   C36028212   5.515   4.055   4.179 -0.7666  0.4915 -0.1906
   67MOL   C36128213   5.366   4.027   4.211  0.7790  0.2961  0.4089
   67MOL   C36228214   5.328   3.875   4.200  0.1206  0.4299  0.3537
   67MOL   C36328215   5.180   3.859   4.243  0.4647  0.0737  0.1967
   67MOL   C36428216   5.104   3.738   4.208 -0.2936 -1.1672  0.1534
   67MOL   C36528217   4.958   3.732   4.253 -0.5031  0.2834 -0.2779
   67MOL   H36628218   5.534   4.154   4.382 -0.5631  0.1635 -1.0740
   67MOL   H36728219   5.577   3.990   4.375  2.5033  0.0206  0.8874
   67MOL   H36828220   5.567   3.975   4.127  1.6134  0.7480  1.7050
   67MOL   H36928221   5.345   4.047   4.316 -0.1109 -3.1747  0.9532
   67MOL   H37028222   5.303   4.094   4.153  1.0548 -1.7390 -2.3527
   67MOL   H37128223   5.345   3.837   4.099 -0.0143 -1.1349  0.9104
   67MOL   H37228224   5.391   3.814   4.264  0.3601  0.7127  0.3921
   67MOL   H37328225   5.167   3.866   4.351 -0.2669 -1.5015  0.2176
   67MOL   H37428226   5.114   3.940   4.210 -1.1160 -1.7872 -1.3191
   67MOL   H37528227   5.097   3.747   4.100  0.9633  2.4085  0.3000
   67MOL   H37628228   5.160   3.646   4.226 -1.0158 -1.6036  0.1673
   67MOL   H37728229   4.958   3.716   4.361 -1.4384  2.1487  0.0144
   67MOL   H37828230   4.900   3.823   4.237 -0.8767  0.2804  1.0557
   67MOL   H37928231   4.907   3.651   4.200  2.5245 -1.3526 -0.7868
   67MOL   C38028232   5.531   4.183   4.081  0.2330  0.3992 -0.2739
   67MOL   C38128233   5.466   4.153   3.943 -0.2787  0.6023 -1.0287
   67MOL   C38228234   5.440   4.277   3.859  0.2817 -0.1958  0.7857
   67MOL   C38328235   5.314   4.353   3.892 -0.1533 -0.3106  0.3325
   67MOL   C38428236   5.293   4.482   3.821  0.5642  0.7522 -0.6486
   67MOL   C38528237   5.188   4.567   3.892  0.3023  0.0948  0.4775
   67MOL   C38628238   5.192   4.711   3.839  0.0377 -0.4540 -0.2794
   67MOL   H38728239   5.480   4.265   4.131  0.4971  0.9603 -0.9295
   67MOL   H38828240   5.635   4.216   4.075  0.3203  0.5018  1.3827
   67MOL   H38928241   5.367   4.109   3.948 -0.0849  0.1440 -1.1720
   67MOL   H39028242   5.459   4.274   3.751 -0.4928  1.9865  0.5587
   67MOL   H39128243   5.521   4.343   3.889 -1.5734  2.5445 -0.0107
   67MOL   H39228244   5.233   4.284   3.868  0.2773  0.2550 -3.0653
   67MOL   H39328245   5.321   4.374   3.999 -0.7936 -2.1715  0.7463
   67MOL   H39428246   5.392   4.527   3.831 -0.1420  2.1646  0.1460
   67MOL   H39528247   5.271   4.471   3.715 -1.8828  1.7695 -0.2850
   67MOL   H39628248   5.200   4.568   4.001  0.1174 -4.4353  0.6463
   67MOL   H39728249   5.091   4.522   3.870  0.0880 -0.2790  2.0954
   67MOL   H39828250   5.286   4.767   3.846 -1.5346  2.0770  1.3667
   67MOL   H39928251   5.117   4.764   3.897 -0.4060 -1.3943  0.0162
   67MOL   H40028252   5.171   4.713   3.732 -2.0995  1.3855  0.1481
   67MOL   C40128253   5.559   4.057   3.862  0.2000  0.5341 -0.3261
   67MOL   C40228254   5.480   3.994   3.747 -0.6764  0.2572  0.1783
   67MOL   C40328255   5.559   3.883   3.678 -0.3818  0.4240  0.5816
   67MOL   C40428256   5.482   3.801   3.571 -0.0553  0.0988  0.1177
   67MOL   C40528257   5.525   3.653   3.557 -0.0003  0.1805  0.0205
   67MOL   C40628258   5.669   3.648   3.504 -0.0617 -0.0300  0.0995
   67MOL   C40728259   5.705   3.505   3.454  0.4783 -0.6509  0.1792
   67MOL   H40828260   5.604   3.977   3.920 -1.2957  0.5549  0.8995
   67MOL   H40928261   5.639   4.112   3.813  0.0130  1.5309  0.4675
   67MOL   H41028262   5.452   4.072   3.676  0.6477  0.1228 -0.5078
   67MOL   H41128263   5.593   3.816   3.758  1.2173 -0.1008 -0.5137
   67MOL   H41228264   5.648   3.931   3.640 -0.4255  2.1032  2.5305
   67MOL   H41328265   5.493   3.856   3.477  0.2936 -1.7966 -0.9682
   67MOL   H41428266   5.374   3.798   3.586  0.0569 -1.2144  0.6984
   67MOL   H41528267   5.511   3.605   3.654  3.2378 -0.5673  0.1493
   67MOL   H41628268   5.454   3.600   3.494 -0.5741 -1.7810  2.2419
   67MOL   H41728269   5.687   3.728   3.432 -0.2021 -0.5311 -0.4966
   67MOL   H41828270   5.729   3.672   3.592 -0.3853  1.4496 -0.0615
   67MOL   H41928271   5.672   3.430   3.526  1.7878  0.6105  2.1496
   67MOL   H42028272   5.814   3.499   3.445  0.5251  1.6554 -1.0812
   67MOL   H42128273   5.667   3.481   3.355  0.9353  1.2493 -0.4792
   67MOL   H42228274   5.388   3.940   3.771 -0.1669 -0.2347  1.0434
   68MOL     C128275   1.620   1.608   1.185  0.7741  0.0138 -0.3987
   68MOL     C228276   1.513   1.684   1.109 -0.0299 -0.1368 -0.3340
   68MOL     C328277   1.577   1.804   1.031  0.0514 -0.0934 -0.2062
   68MOL     C428278   1.675   1.767   0.917 -0.4163  0.0067  0.8607
   68MOL     C528279   1.620   1.677   0.794  0.4302 -0.3410  0.3481
   68MOL     C628280   1.494   1.737   0.733  0.7130 -0.2193 -0.0052
   68MOL     C728281   1.466   1.678   0.597 -0.1077  0.3576 -0.1686
   68MOL     H828282   1.585   1.549   1.270 -1.4718  0.5637 -0.9072
   68MOL     H928283   1.700   1.670   1.226  0.6751 -0.8336  1.1170
   68MOL    H1028284   1.482   1.609   1.036 -1.5572 -0.5899  0.7524
   68MOL    H1128285   1.492   1.843   0.975 -0.2344 -0.8856 -0.3356
   68MOL    H1228286   1.614   1.890   1.086 -0.1987 -0.2268  0.1718
   68MOL    H1328287   1.715   1.861   0.877 -1.5512  0.8435  1.6481
   68MOL    H1428288   1.766   1.725   0.957  1.1653  1.0744 -1.4923
   68MOL    H1528289   1.603   1.572   0.816 -3.0694  0.3607  1.2844
   68MOL    H1628290   1.693   1.673   0.714  1.3778  2.1877  1.0374
   68MOL    H1728291   1.511   1.841   0.707 -3.1762 -0.3912 -3.7328
   68MOL    H1828292   1.415   1.714   0.804  0.2443 -3.3412 -1.4471
   68MOL    H1928293   1.464   1.570   0.590 -2.2030  0.3860 -0.3967
   68MOL    H2028294   1.546   1.695   0.525  0.0955 -0.5940 -0.1745
   68MOL    H2128295   1.373   1.723   0.560 -0.2262  2.5973  2.6763
   68MOL    H2228296   1.678   1.544   1.119 -1.6063 -1.0427 -1.4966
   68MOL    C2328297   1.399   1.734   1.201  0.1937 -0.1229  0.6268
   68MOL    C2428298   1.303   1.625   1.248 -0.1046  0.9472  0.5501
   68MOL    C2528299   1.168   1.628   1.175 -0.4833 -0.0356  0.3378
   68MOL    C2628300   1.169   1.574   1.033 -0.6296 -0.4867  0.1146
   68MOL    C2728301   1.033   1.576   0.964 -0.3287 -0.4715  0.0002
   68MOL    C2828302   1.050   1.510   0.830  0.0014 -0.1672 -0.8128
   68MOL    C2928303   0.912   1.512   0.741  0.2048 -0.1927  0.1278
   68MOL    H3028304   1.451   1.794   1.275  3.2439 -0.2817 -1.2754
   68MOL    H3128305   1.340   1.803   1.141  1.1016 -0.0802 -0.2318
   68MOL    H3228306   1.344   1.526   1.229 -1.6933  0.3719 -0.0056
   68MOL    H3328307   1.145   1.735   1.169 -0.4697 -0.1157 -1.4386
   68MOL    H3428308   1.092   1.570   1.226 -1.8191  0.2105 -1.3459
   68MOL    H3528309   1.199   1.470   1.045 -0.8460 -0.5424  0.1616
   68MOL    H3628310   1.247   1.617   0.970 -1.2238  0.4864  0.0198
   68MOL    H3728311   0.998   1.677   0.946  0.9481  0.0431  0.3091
   68MOL    H3828312   0.959   1.525   1.025  0.7284 -0.9475  0.9050
   68MOL    H3928313   1.096   1.411   0.834  2.3927  0.9130 -0.6202
   68MOL    H4028314   1.134   1.553   0.775  2.3344  1.2307  3.5646
   68MOL    H4128315   0.829   1.473   0.800 -0.4101  0.4384 -0.3194
   68MOL    H4228316   0.895   1.611   0.699 -0.6101 -0.2176  0.3869
   68MOL    H4328317   0.902   1.446   0.655  0.0462 -0.8253  0.6234
   68MOL    C4428318   1.282   1.624   1.399 -0.1147  0.1892 -0.2291
   68MOL    C4528319   1.234   1.488   1.464 -0.2523 -1.1540 -0.6474
   68MOL    C4628320   1.351   1.389   1.480  0.0044 -0.2972 -0.2419
   68MOL    C4728321   1.304   1.244   1.483  0.2550  0.0521  0.3843
   68MOL    C4828322   1.406   1.133   1.440  0.2069  0.1635  0.2225
   68MOL    C4928323   1.340   0.998   1.406 -0.1176  0.4395 -0.2185
   68MOL    C5028324   1.424   0.893   1.343  1.1044 -0.0968  0.3171
   68MOL    H5128325   1.208   1.701   1.422  0.3139  0.3415  0.6795
   68MOL    H5228326   1.374   1.664   1.443  2.9592 -4.3800 -2.0598
   68MOL    H5328327   1.157   1.453   1.396 -2.6377 -0.9063  1.8086
   68MOL    H5428328   1.397   1.417   1.575 -0.1742  2.5641 -0.9564
   68MOL    H5528329   1.429   1.403   1.404 -0.3596  2.8500 -0.1088
   68MOL    H5628330   1.255   1.218   1.577 -0.4194  1.4077  0.4186
   68MOL    H5728331   1.227   1.236   1.406  1.8472  2.4834 -1.5271
   68MOL    H5828332   1.480   1.117   1.518 -0.0352 -0.1235  0.3944
   68MOL    H5928333   1.455   1.165   1.348 -1.0417 -0.1787 -0.5801
   68MOL    H6028334   1.248   1.020   1.352  0.0045  1.0656 -0.1751
   68MOL    H6128335   1.309   0.958   1.503  1.1595  0.5324  0.2358
   68MOL    H6228336   1.432   0.909   1.235  2.1054  2.9905  0.8201
   68MOL    H6328337   1.373   0.799   1.366  1.4256 -0.2032  0.6014
   68MOL    H6428338   1.525   0.884   1.383  2.0228  0.8030 -1.7199
   68MOL    C6528339   1.153   1.512   1.593 -0.1302  0.0059 -0.2036
   68MOL    C6628340   1.017   1.586   1.582  0.2808 -0.2134 -0.3846
   68MOL    C6728341   0.970   1.626   1.720 -0.4531 -0.4456  0.3666
   68MOL    C6828342   0.929   1.518   1.826  0.2433  0.3600 -0.0524
   68MOL    C6928343   0.890   1.579   1.956  0.1292  0.3849  0.1438
   68MOL    C7028344   0.847   1.476   2.057  0.5244  0.8963 -0.0191
   68MOL    C7128345   0.807   1.529   2.195 -0.3082  0.6861  0.1556
   68MOL    H7228346   1.134   1.417   1.642 -0.7385 -1.4526 -3.1775
   68MOL    H7328347   1.221   1.562   1.663  0.1575  0.2695 -0.6667
   68MOL    H7428348   1.039   1.677   1.524  0.9765 -0.2781 -0.2301
   68MOL    H7528349   1.045   1.690   1.766 -0.8597  1.1041 -1.0723
   68MOL    H7628350   0.895   1.703   1.705 -0.4374 -0.4747  0.1394
   68MOL    H7728351   0.843   1.468   1.780  0.7094 -0.7086  0.2314
   68MOL    H7828352   1.005   1.442   1.842  1.4529  1.7113  0.7012
   68MOL    H7928353   0.958   1.651   2.003 -1.4835  1.6270  0.6070
   68MOL    H8028354   0.805   1.645   1.936  0.9798  1.8809  1.3294
   68MOL    H8128355   0.926   1.401   2.058 -0.3929 -0.0915  1.5714
   68MOL    H8228356   0.764   1.417   2.016  3.3097 -3.3289  0.0978
   68MOL    H8328357   0.728   1.466   2.237 -1.4342  0.8439 -1.6961
   68MOL    H8428358   0.894   1.534   2.260  0.9319 -1.0345 -1.3377
   68MOL    H8528359   0.766   1.628   2.173  2.0360  1.3402 -1.4172
   68MOL    C8628360   0.909   1.509   1.497  0.0673  0.2946  0.1958
   68MOL    C8728361   0.765   1.573   1.480 -0.1710  0.5357 -0.6751
   68MOL    C8828362   0.748   1.723   1.447  0.2295  0.6321  0.2006
   68MOL    C8928363   0.801   1.767   1.308 -0.0979  0.1023 -0.5647
   68MOL    C9028364   0.778   1.908   1.262 -0.2270  0.0891 -0.3411
   68MOL    C9128365   0.853   2.021   1.335 -0.3302 -0.0933  0.1543
   68MOL    C9228366   1.000   2.026   1.302  0.2005 -0.0287  0.1036
   68MOL    H9328367   0.943   1.502   1.393 -0.2348 -0.8224  0.1654
   68MOL    H9428368   0.894   1.412   1.544 -1.0209 -0.0053 -0.7381
   68MOL    H9528369   0.714   1.564   1.576  0.3976  2.1821 -0.1879
   68MOL    H9628370   0.644   1.754   1.460 -0.2474 -1.3531  1.2156
   68MOL    H9728371   0.809   1.789   1.509  0.7799  1.1697 -0.8827
   68MOL    H9828372   0.907   1.745   1.293  0.2294 -1.1500  3.0865
   68MOL    H9928373   0.762   1.697   1.234 -1.7453  0.5674 -0.1498
   68MOL   H10028374   0.674   1.937   1.277  0.1079  2.0598 -1.6002
   68MOL   H10128375   0.801   1.907   1.155 -1.3762  1.1624 -0.6115
   68MOL   H10228376   0.811   2.114   1.297  0.4356  0.8557  1.5864
   68MOL   H10328377   0.840   2.020   1.444 -0.3431 -0.0596  0.1531
   68MOL   H10428378   1.056   1.934   1.319  0.8593  0.1489 -1.0464
   68MOL   H10528379   1.039   2.108   1.361  0.2615 -0.9210  1.3220
   68MOL   H10628380   1.011   2.062   1.200  1.0545  2.2109  0.9648
   68MOL   C10728381   0.661   1.496   1.397 -0.6037  0.0363 -0.1313
   68MOL   C10828382   0.638   1.346   1.436  0.2559 -1.0313 -0.1031
   68MOL   C10928383   0.574   1.327   1.572  0.5839  0.1065 -0.6383
   68MOL   C11028384   0.564   1.183   1.607  0.1476 -0.8842 -0.0937
   68MOL   C11128385   0.529   1.182   1.754  0.2214  0.0317  0.0156
   68MOL   C11228386   0.652   1.180   1.842 -0.0730 -0.1420  0.4379
   68MOL   C11328387   0.628   1.109   1.978  0.3116 -0.4126  0.8394
   68MOL   H11428388   0.698   1.501   1.294  0.9522 -1.3791  0.3260
   68MOL   H11528389   0.564   1.543   1.410 -0.0801  1.1908 -0.2861
   68MOL   H11628390   0.738   1.305   1.448  0.6981 -0.1889 -0.7768
   68MOL   H11728391   0.474   1.369   1.582  0.9297  0.8319 -0.1856
   68MOL   H11828392   0.626   1.376   1.654  1.7094 -2.6828  0.3875
   68MOL   H11928393   0.476   1.139   1.559  0.1490  1.0044 -1.9172
   68MOL   H12028394   0.650   1.121   1.583 -0.3047 -1.3911 -0.4320
   68MOL   H12128395   0.471   1.090   1.758  0.3617 -0.1947 -2.4481
   68MOL   H12228396   0.462   1.263   1.782  0.8798  1.9614 -3.6754
   68MOL   H12328397   0.743   1.138   1.799 -0.2245 -0.1208  0.0894
   68MOL   H12428398   0.676   1.285   1.855  1.2303 -0.1026 -1.9009
   68MOL   H12528399   0.617   1.002   1.962 -0.6542 -0.3950  1.3284
   68MOL   H12628400   0.716   1.110   2.043  3.0404  0.9864 -2.6944
   68MOL   H12728401   0.543   1.143   2.038 -1.1445  0.5400 -1.6911
   68MOL   C12828402   0.549   1.277   1.327 -0.8960 -0.5293  0.2090
   68MOL   C12928403   0.613   1.153   1.261  0.6392 -0.0890  0.3432
   68MOL   C13028404   0.738   1.193   1.182  0.4053 -0.2037  0.0993
   68MOL   C13128405   0.838   1.074   1.168  0.2795 -0.1279 -0.0964
   68MOL   C13228406   0.983   1.112   1.127 -0.9351 -0.3751  0.4365
   68MOL   C13328407   1.084   0.994   1.127  0.9676  0.4546  0.6786
   68MOL   C13428408   1.110   0.927   0.995  0.1540 -1.4504  0.3218
   68MOL   H13528409   0.453   1.246   1.367 -1.3801 -0.3926 -0.8255
   68MOL   H13628410   0.533   1.344   1.242 -0.0136  1.1330  1.3401
   68MOL   H13728411   0.647   1.091   1.344  2.4314  0.4097  0.0060
   68MOL   H13828412   0.781   1.281   1.230 -1.4594  1.1399 -0.6420
   68MOL   H13928413   0.706   1.230   1.085 -1.5380  2.6332  1.7530
   68MOL   H14028414   0.807   0.990   1.105  1.8786 -1.3685  0.7304
   68MOL   H14128415   0.844   1.026   1.265  0.9578 -0.5866 -0.3561
   68MOL   H14228416   1.025   1.185   1.197  0.2543 -2.7435  2.2510
   68MOL   H14328417   0.980   1.157   1.028 -1.9560  0.2558  0.7389
   68MOL   H14428418   1.047   0.925   1.202 -2.3106  0.2778 -1.0283
   68MOL   H14528419   1.184   1.031   1.148  0.4097  2.4962 -0.1026
   68MOL   H14628420   1.206   0.875   0.996  1.4132  0.8193  0.5330
   68MOL   H14728421   1.118   0.997   0.912  1.3194 -2.7413 -0.6708
   68MOL   H14828422   1.040   0.849   0.962  0.8230 -1.7278 -0.4612
   68MOL   C14928423   0.522   1.076   1.162 -0.1752 -0.1757 -0.3786
   68MOL   C15028424   0.397   1.003   1.222 -0.4455  0.5512  0.4910
   68MOL   C15128425   0.436   0.864   1.284 -0.6062  0.0746  0.5755
   68MOL   C15228426   0.333   0.804   1.379 -0.0768 -0.0382  0.2233
   68MOL   C15328427   0.374   0.682   1.472 -0.0591  0.0188 -0.0981
   68MOL   C15428428   0.459   0.715   1.598  0.1079 -0.2930  1.0341
   68MOL   C15528429   0.532   0.594   1.662  0.0353 -0.7178  0.0580
   68MOL   H15628430   0.491   1.148   1.085  1.0854 -0.2440 -0.9522
   68MOL   H15728431   0.580   1.002   1.108 -1.3221 -0.2339 -1.5658
   68MOL   H15828432   0.363   1.066   1.304  0.1994  0.6939  0.6550
   68MOL   H15928433   0.476   0.790   1.215 -1.9354 -0.8243  0.7418
   68MOL   H16028434   0.525   0.890   1.341  0.3680 -0.3227 -0.7279
   68MOL   H16128435   0.243   0.770   1.328  0.0800 -0.7305  0.3995
   68MOL   H16228436   0.299   0.882   1.447  2.0176  0.1257  1.1149
   68MOL   H16328437   0.430   0.605   1.419  0.2473  1.0119 -1.2535
   68MOL   H16428438   0.283   0.645   1.518 -0.4274  0.8765 -0.1307
   68MOL   H16528439   0.392   0.775   1.659 -0.4244 -0.2867  0.4503
   68MOL   H16628440   0.539   0.776   1.556 -0.7141 -0.1226 -0.3131
   68MOL   H16728441   0.574   0.532   1.583  1.9773  1.0438 -0.3177
   68MOL   H16828442   0.468   0.531   1.725  1.0981 -0.0007  1.8925
   68MOL   H16928443   0.611   0.630   1.728  0.9802 -1.0273 -0.8874
   68MOL   C17028444   0.286   0.987   1.118 -0.5656  0.2618 -0.7332
   68MOL   C17128445   0.201   1.112   1.086 -0.0468 -0.0802  0.2599
   68MOL   C17228446   0.185   1.120   0.931 -0.4066 -0.5009  0.3021
   68MOL   C17328447   0.161   1.256   0.879  1.1734 -0.3729 -0.0780
   68MOL   C17428448   0.273   1.360   0.898 -0.1623 -0.1002  0.2891
   68MOL   C17528449   0.223   1.499   0.864 -1.0224  0.0859 -0.2696
   68MOL   C17628450   0.340   1.585   0.812  0.2718 -0.7481 -0.2236
   68MOL   H17728451   0.226   0.902   1.151 -2.5190  2.3350  1.2679
   68MOL   H17828452   0.339   0.939   1.036  0.2714 -0.8304  0.4290
   68MOL   H17928453   0.271   1.190   1.117  1.5268 -1.6881  0.8778
   68MOL   H18028454   0.100   1.057   0.904 -0.6597 -0.5475  1.2157
   68MOL   H18128455   0.269   1.080   0.873  0.1404  1.2091 -0.1130
   68MOL   H18228456   0.068   1.297   0.916  1.6741 -0.0273  0.8061
   68MOL   H18328457   0.135   1.254   0.773  2.3595  1.7538 -0.4450
   68MOL   H18428458   0.361   1.335   0.840 -0.2280 -0.3321  0.2897
   68MOL   H18528459   0.306   1.363   1.002  2.3183 -0.5732 -0.4592
   68MOL   H18628460   0.175   1.539   0.954  0.5151  1.3370  0.0124
   68MOL   H18728461   0.135   1.500   0.800 -1.5569 -0.0624  0.4638
   68MOL   H18828462   0.411   1.615   0.890 -0.1548  0.1399 -0.1792
   68MOL   H18928463   0.296   1.681   0.789  3.2957  0.9329  0.7056
   68MOL   H19028464   0.390   1.562   0.719 -0.2603 -1.5970 -0.3068
   68MOL   C19128465   0.063   1.114   1.166  0.0848 -0.0667  0.0649
   68MOL   C19228466   0.069   1.164   1.309 -0.4823 -0.4820  0.2600
   68MOL   C19328467   0.131   1.308   1.326  0.3889 -0.4256 -0.1389
   68MOL   C19428468   0.076   1.425   1.242 -0.1819 -0.0690  0.0767
   68MOL   C19528469   0.137   1.564   1.282  0.2877  0.2625 -1.0912
   68MOL   C19628470   0.286   1.576   1.257  0.3585 -0.1713 -0.3131
   68MOL   C19728471   0.348   1.712   1.286 -0.4692 -0.0342  0.1882
   68MOL   H19828472   0.015   1.018   1.144 -1.6560  0.6683  0.5907
   68MOL   H19928473   7.704   1.178   1.115 -1.3114 -1.1332  0.6540
   68MOL   H20028474   0.148   1.110   1.361  0.2368 -0.4672 -0.8065
   68MOL   H20128475   0.237   1.297   1.304  0.0851  0.2751 -2.0540
   68MOL   H20228476   0.145   1.335   1.430  0.7314  0.4866 -0.4217
   68MOL   H20328477   7.683   1.446   1.255 -0.3750 -0.4838 -0.7810
   68MOL   H20428478   0.089   1.403   1.136  0.8454 -0.3193  0.2552
   68MOL   H20528479   0.084   1.638   1.223 -0.7847 -0.4528 -1.0435
   68MOL   H20628480   0.106   1.593   1.383 -0.6222  1.2195 -1.6366
   68MOL   H20728481   0.316   1.547   1.157 -1.1218  0.3509 -0.9210
   68MOL   H20828482   0.342   1.514   1.327  0.4869  0.2962  0.0044
   68MOL   H20928483   0.451   1.712   1.250 -0.6922  1.8688 -0.5277
   68MOL   H21028484   0.359   1.725   1.393  1.8080  0.6631 -0.1050
   68MOL   H21128485   0.298   1.800   1.244  0.5539 -0.5516 -2.1612
   68MOL   C21228486   7.650   1.155   1.384 -0.2411 -0.1331  0.1460
   68MOL   C21328487   7.601   1.015   1.424 -0.3998  0.7344  0.5813
   68MOL   C21428488   7.698   0.939   1.516  0.3088 -0.8446  0.4264
   68MOL   C21528489   0.033   1.011   1.643 -0.4835  0.6027 -0.5520
   68MOL   C21628490   0.111   0.906   1.735  0.0067 -0.0277  0.8370
   68MOL   C21728491   0.124   0.962   1.881  0.1406 -0.4868 -0.1127
   68MOL   C21828492   0.199   1.091   1.892 -0.3341  0.4460  0.3394
   68MOL   H21928493   7.579   1.221   1.334 -0.5833 -0.1440  0.6060
   68MOL   H22028494   7.661   1.216   1.474 -2.5039 -1.8895  1.6550
   68MOL   H22128495   7.592   0.956   1.332 -1.6918  0.2839  0.9784
   68MOL   H22228496   7.652   0.843   1.540 -0.6856 -0.5780 -0.3953
   68MOL   H22328497   0.073   0.905   1.462 -2.2446 -0.9649 -3.9432
   68MOL   H22428498   7.664   1.044   1.707  0.0688  2.1781 -0.6268
   68MOL   H22528499   0.096   1.098   1.622 -0.6380  0.6991 -0.6166
   68MOL   H22628500   0.057   0.812   1.732  1.0864 -0.6446  0.2799
   68MOL   H22728501   0.208   0.872   1.698 -1.4507 -3.7220  0.1798
   68MOL   H22828502   0.035   0.959   1.943  0.5383  0.2599  0.5078
   68MOL   H22928503   0.178   0.881   1.931 -2.2363 -1.8804  0.2389
   68MOL   H23028504   0.259   1.121   1.807  2.3978 -1.8037  1.3754
   68MOL   H23128505   0.259   1.086   1.983  0.2704 -1.4191 -0.1282
   68MOL   H23228506   0.133   1.177   1.896 -2.4191 -0.9688 -1.7142
   68MOL   C23328507   7.457   1.026   1.488  0.8848  0.1609 -0.3450
   68MOL   C23428508   7.391   0.904   1.546  1.0017  0.4408  0.1189
   68MOL   C23528509   7.255   0.932   1.626  0.8095 -1.0085 -0.1896
   68MOL   C23628510   7.269   0.998   1.765  0.5452 -0.3358 -0.0217
   68MOL   C23728511   7.138   0.987   1.855 -0.1203  0.1890  0.2209
   68MOL   C23828512   7.161   1.017   2.007 -0.0310  0.1536 -0.4098
   68MOL   C23928513   7.257   0.918   2.087  0.4161 -0.4223  0.1430
   68MOL   H24028514   7.386   1.074   1.420 -0.9062  1.4754  2.3608
   68MOL   H24128515   7.458   1.093   1.573 -0.1067  2.1453 -1.8490
   68MOL   H24228516   7.450   0.848   1.619  0.5867 -2.9309 -2.0450
   68MOL   H24328517   7.205   0.836   1.637  0.7008 -0.5767  3.7570
   68MOL   H24428518   7.189   0.996   1.567 -0.7737 -2.0247  0.4554
   68MOL   H24528519   7.302   1.100   1.745 -1.6100  0.2711 -0.6603
   68MOL   H24628520   7.341   0.942   1.824 -0.9701 -1.7251  0.5490
   68MOL   H24728521   7.089   0.889   1.848 -0.0339  0.2631 -1.4094
   68MOL   H24828522   7.070   1.061   1.812  0.7069  0.5409 -0.4685
   68MOL   H24928523   7.204   1.117   2.022 -1.7295  1.0098 -1.1180
   68MOL   H25028524   7.067   1.021   2.062  1.1406  0.2983  1.6292
   68MOL   H25128525   7.245   0.928   2.195  0.4340  0.2272  0.0875
   68MOL   H25228526   7.234   0.813   2.067 -1.5856 -0.3721  1.9010
   68MOL   H25328527   7.361   0.939   2.063  0.0386  0.9459 -0.3262
   68MOL   C25428528   7.356   0.809   1.426 -0.0609 -0.1122 -0.2317
   68MOL   C25528529   7.343   0.656   1.460 -0.3876  0.7464  0.0905
   68MOL   C25628530   7.475   0.578   1.464 -0.6802 -0.0402 -0.3742
   68MOL   C25728531   7.542   0.559   1.323  0.2675 -0.2963  0.1446
   68MOL   C25828532   7.696   0.577   1.326  0.5617  0.2244  0.6170
   68MOL   C25928533   0.051   0.551   1.191  0.4680  0.2699 -0.3531
   68MOL   C26028534   0.035   0.659   1.089 -0.6634  0.3910  0.9424
   68MOL   H26128535   7.424   0.812   1.341 -1.9708 -0.7873 -1.8482
   68MOL   H26228536   7.258   0.830   1.383 -1.1632 -0.2543  2.1292
   68MOL   H26328537   7.306   0.647   1.562 -2.4571 -1.1984 -0.7951
   68MOL   H26428538   7.467   0.483   1.517 -1.3936  0.3751  0.2802
   68MOL   H26528539   7.529   0.640   1.536 -0.6225 -0.0395 -0.4184
   68MOL   H26628540   7.507   0.461   1.291 -0.4728 -0.1209  0.4288
   68MOL   H26728541   7.501   0.635   1.257 -1.5986 -0.7077  0.7999
   68MOL   H26828542   0.031   0.535   1.413 -1.6548 -0.7420  1.4237
   68MOL   H26928543   7.704   0.683   1.352 -1.0839  0.0553  1.9232
   68MOL   H27028544   0.159   0.534   1.196  0.5757  0.9587 -0.2933
   68MOL   H27128545   0.020   0.454   1.151  0.0715 -0.6541  2.1379
   68MOL   H27228546   0.060   0.614   0.993  0.0764  2.6872  0.0219
   68MOL   H27328547   7.650   0.705   1.080  0.0071  1.7789  0.4685
   68MOL   H27428548   0.104   0.741   1.109  1.4826 -0.5126 -2.4160
   68MOL   C27528549   7.221   0.586   1.374 -0.0853  0.3999  0.6255
   68MOL   C27628550   7.209   0.433   1.384 -0.7396  0.6389  0.3982
   68MOL   C27728551   7.111   0.377   1.273 -0.1390 -0.7479 -0.0114
   68MOL   C27828552   6.965   0.409   1.289  0.1477 -1.0932 -0.5131
   68MOL   C27928553   6.883   0.339   1.174  0.0684 -1.0741  0.8465
   68MOL   C28028554   6.728   0.347   1.180  0.3334  0.5490 -0.6026
   68MOL   C28128555   6.662   0.278   1.301  0.2312 -0.3194 -0.0925
   68MOL   H28228556   7.243   0.612   1.270 -0.4937 -1.2773  0.1129
   68MOL   H28328557   7.127   0.624   1.413 -0.6478 -0.9060  0.5673
   68MOL   H28428558   7.311   0.405   1.357 -0.2806  1.9679  0.7072
   68MOL   H28528559   7.134   0.414   1.173  1.0813  0.1623  0.5973
   68MOL   H28628560   7.119   0.271   1.248  2.7895 -0.2721 -1.3297
   68MOL   H28728561   6.956   0.517   1.284  2.9500 -0.6517  2.0443
   68MOL   H28828562   6.920   0.367   1.380 -0.0388  1.1130  0.4261
   68MOL   H28928563   6.911   0.233   1.171  1.1547 -0.7725  0.2950
   68MOL   H29028564   6.905   0.371   1.072  0.4609 -1.4948  0.8003
   68MOL   H29128565   6.705   0.453   1.174  1.0745  0.8018  0.7646
   68MOL   H29228566   6.693   0.298   1.090  2.7370  1.0731 -1.8866
   68MOL   H29328567   6.554   0.274   1.289  0.3292 -0.6766 -0.9348
   68MOL   H29428568   6.690   0.325   1.395 -1.6478  1.1853 -0.2640
   68MOL   H29528569   6.690   0.172   1.307 -1.3738 -0.8242 -1.0850
   68MOL   C29628570   7.184   0.393   1.530 -0.1004 -0.3810 -0.6818
   68MOL   C29728571   7.144   0.248   1.566  0.3859 -0.1193 -0.8017
   68MOL   C29828572   7.051   0.259   1.690  0.0375  0.3241 -0.3578
   68MOL   C29928573   6.908   0.309   1.662 -0.2939 -0.0753  0.1996
   68MOL   C30028574   6.810   0.306   1.782 -0.2264  0.2344  0.2149
   68MOL   C30128575   6.666   0.339   1.742  0.3427 -0.8798  1.1453
   68MOL   C30228576   6.577   0.394   1.853 -0.2614  0.2533 -0.4537
   68MOL   H30328577   7.277   0.408   1.584 -1.1332 -2.8444  1.9157
   68MOL   H30428578   7.115   0.460   1.582 -0.1292 -1.0664  0.1737
   68MOL   H30528579   7.085   0.216   1.480 -0.5910 -0.1787 -0.1204
   68MOL   H30628580   7.044   0.155   1.722 -3.1575 -0.7052 -4.0019
   68MOL   H30728581   7.095   0.316   1.772 -1.3070 -0.7465  1.1354
   68MOL   H30828582   6.865   0.258   1.576 -1.6046 -0.2640  0.9542
   68MOL   H30928583   6.915   0.412   1.627 -0.1641 -0.0242  0.3757
   68MOL   H31028584   6.842   0.380   1.855 -1.3756  1.2167 -0.2629
   68MOL   H31128585   6.821   0.213   1.838 -0.9588  0.8023  1.3191
   68MOL   H31228586   6.666   0.412   1.661  0.5849 -0.1580  1.7936
   68MOL   H31328587   6.617   0.250   1.701 -1.2185 -0.6473  2.4364
   68MOL   H31428588   6.483   0.437   1.819 -1.6061 -3.0518 -1.0928
   68MOL   H31528589   6.541   0.319   1.923 -0.7898 -2.1659 -3.2069
   68MOL   H31628590   6.642   0.455   1.916  1.5028 -1.0585 -0.9756
   68MOL   C31728591   7.256   0.150   1.598  0.5975 -0.2210  0.1266
   68MOL   C31828592   7.360   0.122   1.485  0.3653  0.0991  0.0447
   68MOL   C31928593   7.487   0.061   1.550  0.0388  0.1025 -0.1158
   68MOL   C32028594   7.469   7.627   1.609  0.4141 -0.7081 -0.1980
   68MOL   C32128595   7.606   7.565   1.645  0.4588 -0.3349 -0.9107
   68MOL   C32228596   7.589   7.429   1.724 -0.2821 -0.2173  0.8068
   68MOL   C32328597   0.010   7.361   1.733  0.2208  0.0365 -0.4191
   68MOL   H32428598   7.222   0.052   1.631 -1.2485  1.3929  3.2903
   68MOL   H32528599   7.309   0.190   1.684 -2.1543 -0.6050  2.0639
   68MOL   H32628600   7.394   0.213   1.435  1.6315  0.4314  1.4508
   68MOL   H32728601   7.518   0.120   1.637  0.9517  1.3207 -1.2579
   68MOL   H32828602   7.566   0.073   1.476 -2.1289 -0.7566 -2.6465
   68MOL   H32928603   7.429   7.567   1.527 -1.4271 -0.0405  0.1844
   68MOL   H33028604   7.396   7.610   1.688 -0.5182  0.2235 -0.8398
   68MOL   H33128605   7.663   7.627   1.715 -0.7247  0.0176 -0.2569
   68MOL   H33228606   7.675   7.554   1.561  1.4747 -2.1632  0.1304
   68MOL   H33328607   7.531   7.354   1.672 -0.1554  0.1653  0.0976
   68MOL   H33428608   7.534   7.457   1.813  0.5678 -2.0089  1.9164
   68MOL   H33528609   0.035   7.309   1.640 -1.0105 -0.5484 -0.4282
   68MOL   H33628610   0.002   7.290   1.815  0.6055 -0.9725 -1.2495
   68MOL   H33728611   0.096   7.421   1.764 -0.3486  0.6187  0.0419
   68MOL   C33828612   7.302   0.033   1.372  0.4925  0.7595 -0.0307
   68MOL   C33928613   7.400   7.706   1.263 -0.1171 -0.2258  0.2319
   68MOL   C34028614   7.468   0.102   1.176  0.3322 -0.0351 -0.0109
   68MOL   C34128615   7.384   0.187   1.081  0.0996  0.2711  0.2179
   68MOL   C34228616   7.462   0.284   0.982  0.7157 -0.4782  0.1791
   68MOL   C34328617   7.375   0.400   0.939 -0.8282  0.5803  0.1232
   68MOL   C34428618   7.455   0.504   0.851 -0.4713 -0.6637 -0.8645
   68MOL   H34528619   7.221   0.079   1.315 -0.2477 -1.4969 -0.8421
   68MOL   H34628620   7.251   7.659   1.413 -0.5608  2.3315  2.1295
   68MOL   H34728621   7.485   7.668   1.321 -0.1736  0.6241  0.8911
   68MOL   H34828622   7.524   0.169   1.242  1.5996 -1.5534  0.4936
   68MOL   H34928623   7.556   0.063   1.124  0.2402 -0.7272  0.3461
   68MOL   H35028624   7.312   0.247   1.136 -1.7535  0.3871 -2.2291
   68MOL   H35128625   7.330   0.112   1.022 -0.8755 -0.1229  1.5598
   68MOL   H35228626   7.549   0.333   1.025  0.6941  0.0171 -0.3325
   68MOL   H35328627   7.506   0.228   0.898  0.2314  0.1282 -0.4836
   68MOL   H35428628   7.285   0.373   0.885 -0.3349  0.7330 -0.7786
   68MOL   H35528629   7.341   0.448   1.031 -1.0297  3.2474 -1.3196
   68MOL   H35628630   7.545   0.549   0.892 -0.4125  0.1155 -1.8119
   68MOL   H35728631   7.393   0.590   0.825  0.7719  0.2053 -1.0283
   68MOL   H35828632   7.481   0.465   0.752  1.8247 -1.4391  0.0053
   68MOL   C35928633   7.340   7.593   1.180  0.5515 -0.0100  0.2918
   68MOL   C36028634   7.437   7.493   1.116  0.5993  0.3430 -0.4385
   68MOL   C36128635   7.482   7.383   1.220 -0.6510 -0.6490 -0.0237
   68MOL   C36228636   7.381   7.280   1.268 -0.0454 -0.1467 -0.3222
   68MOL   C36328637   7.381   7.231   1.415  0.3950  0.3626 -0.0890
   68MOL   C36428638   7.272   7.122   1.444 -0.5168 -0.0458 -0.1495
   68MOL   C36528639   7.303   7.041   1.563  0.0534  0.0305 -0.3075
   68MOL   H36628640   7.275   7.637   1.104 -0.3751  0.6787  1.4582
   68MOL   H36728641   7.263   7.535   1.230  0.4057 -0.7415 -0.7658
   68MOL   H36828642   7.522   7.548   1.076  0.5065 -0.2208 -1.4097
   68MOL   H36928643   7.558   7.330   1.163  0.2784  0.7618 -0.1400
   68MOL   H37028644   7.530   7.431   1.306 -0.3786 -0.5061 -0.2556
   68MOL   H37128645   7.286   7.324   1.240  0.7246  1.1619 -0.9709
   68MOL   H37228646   7.404   7.191   1.209  1.5424 -0.4059  0.6640
   68MOL   H37328647   7.479   7.188   1.437  0.0860  0.8613  2.4485
   68MOL   H37428648   7.382   7.314   1.486  3.6163  1.3204 -1.1630
   68MOL   H37528649   7.172   7.166   1.441  0.3019  1.8022 -1.7273
   68MOL   H37628650   7.256   7.052   1.362 -1.9021  0.2487 -0.1457
   68MOL   H37728651   7.320   7.103   1.651  0.0579 -0.2701 -0.0936
   68MOL   H37828652   7.228   6.969   1.596  0.1497  1.1612  2.4619
   68MOL   H37928653   7.390   6.981   1.536  0.6512 -1.4650  4.4961
   68MOL   C38028654   7.373   7.439   0.986 -0.5981 -0.7497  0.4084
   68MOL   C38128655   7.414   7.521   0.863  0.4938  0.1146  0.3902
   68MOL   C38228656   7.548   7.479   0.803  0.0035  0.0053  0.4242
   68MOL   C38328657   7.614   7.582   0.709  0.1831 -0.3771  0.1106
   68MOL   C38428658   0.022   7.519   0.637 -0.0068 -0.4952 -0.3801
   68MOL   C38528659   0.067   7.608   0.520 -0.5185  0.0052 -0.0108
   68MOL   C38628660   0.199   7.567   0.456  0.3408 -0.2086 -0.0846
   68MOL   H38728661   7.405   7.336   0.970  1.8060  0.1149 -0.5438
   68MOL   H38828662   7.264   7.430   0.989 -0.8812  1.4294 -1.9098
   68MOL   H38928663   7.435   7.622   0.900  0.8250  0.9734 -1.9979
   68MOL   H39028664   7.541   7.383   0.753 -1.3531  1.3108 -2.0011
   68MOL   H39128665   7.618   7.461   0.885 -0.0104  0.5623  0.5657
   68MOL   H39228666   7.547   7.617   0.630  0.5218 -0.9243 -0.4259
   68MOL   H39328667   7.638   7.670   0.767 -0.5696 -0.8145  1.1027
   68MOL   H39428668   0.108   7.516   0.705 -1.9136  1.2796  2.1869
   68MOL   H39528669   7.709   7.421   0.598  0.5202 -1.6257  2.0312
   68MOL   H39628670   0.082   7.710   0.557  0.4321  0.5962 -1.9622
   68MOL   H39728671   7.703   7.620   0.445  0.1526 -0.3752 -0.7699
   68MOL   H39828672   0.287   7.608   0.506  0.6388 -1.5439  0.5302
   68MOL   H39928673   0.195   7.607   0.355  1.3519 -0.1686 -0.1150
   68MOL   H40028674   0.224   7.461   0.462  0.1276 -0.3162 -1.0960
   68MOL   C40128675   7.292   7.523   0.763  0.3731  0.2070  0.1947
   68MOL   C40228676   7.170   7.593   0.814 -0.3777  0.5213  0.0058
   68MOL   C40328677   7.056   7.610   0.710 -0.7400  0.6022 -0.3041
   68MOL   C40428678   7.004   7.472   0.661  0.2434 -0.1691  0.1330
   68MOL   C40528679   6.891   7.472   0.553 -0.0764 -0.2858  0.4653
   68MOL   C40628680   6.906   7.567   0.433  0.3784 -0.5330  0.0424
   68MOL   C40728681   6.832   7.516   0.306 -0.1182  0.2283  0.1567
   68MOL   H40828682   7.267   7.426   0.721  3.2830  0.0226 -1.2596
   68MOL   H40928683   7.316   7.584   0.676 -0.0129 -2.9079 -2.1786
   68MOL   H41028684   7.196   7.685   0.867  2.0084 -0.8597  1.3134
   68MOL   H41128685   7.092   7.656   0.618  1.4176  1.5163  0.9322
   68MOL   H41228686   6.967   7.664   0.742  0.5593  3.4285 -1.2236
   68MOL   H41328687   6.957   7.414   0.740  0.9477  1.6449  1.9288
   68MOL   H41428688   7.080   7.398   0.634  1.7660  1.0483  1.0151
   68MOL   H41528689   6.890   7.367   0.523 -2.4260 -0.4224  0.9095
   68MOL   H41628690   6.792   7.487   0.596 -0.4383  0.1618 -0.5103
   68MOL   H41728691   6.860   7.664   0.449  1.0447  0.0583 -1.5151
   68MOL   H41828692   7.011   7.587   0.410  0.6541  0.7780  2.3423
   68MOL   H41928693   6.742   7.462   0.336  1.2755 -1.6455  1.0633
   68MOL   H42028694   6.896   7.444   0.255 -0.6076 -0.8855  1.1066
   68MOL   H42128695   6.802   7.598   0.240 -2.4652 -0.6763  0.0381
   68MOL   H42228696   7.126   7.527   0.890 -0.2651  0.0874 -0.3070
   69MOL     C128697   1.161   1.227   2.216  0.0509 -0.2515 -0.1229
   69MOL     C228698   1.267   1.298   2.129  0.1011 -0.3658 -0.0346
   69MOL     C328699   1.253   1.456   2.147 -0.0285  0.2482  0.0037
   69MOL     C428700   1.340   1.510   2.258  0.1875  0.8561  0.4830
   69MOL     C528701   1.304   1.642   2.313  0.7108  0.3123  0.6138
   69MOL     C628702   1.381   1.692   2.434 -0.3959  0.2342  0.0750
   69MOL     C728703   1.393   1.597   2.556 -0.5128  0.2756  0.7969
   69MOL     H828704   1.161   1.264   2.319  0.1798  1.2662 -0.6438
   69MOL     H928705   1.182   1.121   2.212 -0.4857 -0.4039  0.8543
   69MOL    H1028706   1.370   1.280   2.162 -0.0212 -0.9617  0.0391
   69MOL    H1128707   1.281   1.510   2.056  2.1801  0.4567  0.7588
   69MOL    H1228708   1.148   1.479   2.160 -0.4616 -1.9317  0.5428
   69MOL    H1328709   1.354   1.431   2.332 -0.1998  0.2210 -0.1167
   69MOL    H1428710   1.441   1.526   2.219  0.5324  1.4909  1.6435
   69MOL    H1528711   1.198   1.644   2.335  0.1091  0.1209 -2.0966
   69MOL    H1628712   1.310   1.713   2.230  0.0572 -3.3262 -2.6701
   69MOL    H1728713   1.340   1.785   2.472 -1.4247 -0.9328  1.8925
   69MOL    H1828714   1.485   1.719   2.414  0.3748 -0.2904  3.1489
   69MOL    H1928715   1.403   1.659   2.646 -0.1993  1.8235 -0.2769
   69MOL    H2028716   1.480   1.535   2.536  0.1024  0.9441  1.3250
   69MOL    H2128717   1.305   1.534   2.557 -0.8023  0.4533 -3.6044
   69MOL    H2228718   1.056   1.248   2.196 -0.4884 -4.5393 -2.2675
   69MOL    C2328719   1.254   1.263   1.979  0.0228  0.2855 -0.1707
   69MOL    C2428720   1.307   1.123   1.946 -0.3923 -0.1702 -0.1388
   69MOL    C2528721   1.452   1.136   1.905  0.0252 -1.2407  0.8816
   69MOL    C2628722   1.524   1.003   1.875 -0.5713  0.3196 -0.4365
   69MOL    C2728723   1.684   1.021   1.869 -0.0770  0.0141 -1.0109
   69MOL    C2828724   1.753   0.883   1.875 -0.6602  0.0196 -0.3251
   69MOL    C2928725   1.805   0.828   1.746  0.2013  0.0389  0.2957
   69MOL    H3028726   1.146   1.254   1.962  0.3783 -1.3660 -1.6939
   69MOL    H3128727   1.295   1.334   1.907  2.9272  2.1767  3.2034
   69MOL    H3228728   1.311   1.077   2.045  0.1755  0.5204  0.1633
   69MOL    H3328729   1.508   1.189   1.981 -0.1603  0.1761  0.0398
   69MOL    H3428730   1.456   1.192   1.812  2.0817  1.1542  2.3641
   69MOL    H3528731   1.487   0.949   1.788 -0.5939 -0.6418  0.1704
   69MOL    H3628732   1.496   0.944   1.962  0.8148  1.7794  1.0345
   69MOL    H3728733   1.718   1.084   1.952  1.2146  0.6403 -2.0034
   69MOL    H3828734   1.719   1.073   1.780 -0.2527 -0.1862 -1.1978
   69MOL    H3928735   1.679   0.813   1.914  0.3056 -1.2544 -0.7572
   69MOL    H4028736   1.831   0.882   1.950 -1.8727 -1.4276  0.9430
   69MOL    H4128737   1.839   0.726   1.759  0.7145  0.4285  2.2924
   69MOL    H4228738   1.722   0.815   1.676 -0.9734 -0.5477  1.7713
   69MOL    H4328739   1.886   0.884   1.699 -0.5300  0.3536 -0.5998
   69MOL    C4428740   1.219   1.043   1.851 -0.3705  0.1155  0.3408
   69MOL    C4528741   1.103   0.976   1.919 -0.2099  0.3440 -0.3762
   69MOL    C4628742   0.992   0.938   1.825  0.0150 -0.3669 -0.1362
   69MOL    C4728743   1.031   0.858   1.694 -0.0411  0.3545  0.0130
   69MOL    C4828744   0.909   0.828   1.608 -0.4482  0.4575 -0.1622
   69MOL    C4928745   0.937   0.753   1.476 -0.0621  0.9256  0.0204
   69MOL    C5028746   0.812   0.748   1.385 -0.8461  0.9895 -0.6811
   69MOL    H5128747   1.272   0.969   1.790  0.8395  0.5871  0.8026
   69MOL    H5228748   1.175   1.112   1.780 -1.3828  1.1409  1.9438
   69MOL    H5328749   1.061   1.052   1.985 -1.0306 -0.3156 -0.1350
   69MOL    H5428750   0.944   1.028   1.787  0.6175 -0.3277 -0.8270
   69MOL    H5528751   0.911   0.891   1.880  0.3920 -0.2544  0.5144
   69MOL    H5628752   1.107   0.919   1.644 -0.3342 -0.1027 -0.9821
   69MOL    H5728753   1.082   0.770   1.734 -0.5242 -0.4127 -1.0476
   69MOL    H5828754   0.855   0.921   1.588  1.6377  1.3661 -1.7416
   69MOL    H5928755   0.833   0.779   1.669 -0.4364  0.1380 -0.3996
   69MOL    H6028756   0.963   0.648   1.491 -3.0043 -0.0199 -1.2075
   69MOL    H6128757   1.024   0.803   1.433  0.3964  1.4258  1.4939
   69MOL    H6228758   0.746   0.834   1.378 -1.4005  0.5315 -1.1750
   69MOL    H6328759   0.741   0.670   1.413 -0.0456  1.1279  1.8433
   69MOL    H6428760   0.827   0.723   1.280 -0.6174 -0.2995 -0.3498
   69MOL    C6528761   1.151   0.857   1.999 -0.0430  0.5237  0.2608
   69MOL    C6628762   1.036   0.803   2.097 -0.0961 -0.0620 -0.3642
   69MOL    C6728763   1.098   0.784   2.238  0.3932  0.0926  0.0537
   69MOL    C6828764   1.206   0.670   2.267 -0.1938 -0.6172 -0.4097
   69MOL    C6928765   1.262   0.663   2.408 -0.0314  0.0710 -0.0260
   69MOL    C7028766   1.164   0.630   2.516 -0.5589  0.1050  1.0538
   69MOL    C7128767   1.155   0.736   2.626  0.8391  0.1166  0.0584
   69MOL    H7228768   1.191   0.772   1.943  0.0143 -0.6464  2.0395
   69MOL    H7328769   1.234   0.895   2.058 -0.4878  2.8824 -0.5709
   69MOL    H7428770   0.965   0.886   2.104 -0.1935 -0.2463  1.0084
   69MOL    H7528771   1.134   0.870   2.295  1.4455 -1.4808  1.8395
   69MOL    H7628772   1.027   0.747   2.313  0.6250  0.0862  0.2713
   69MOL    H7728773   1.177   0.572   2.227 -0.2871 -0.7373 -0.0470
   69MOL    H7828774   1.293   0.698   2.207  0.9541 -0.2355  1.4038
   69MOL    H7928775   1.329   0.578   2.396  0.1959  0.3101 -0.4170
   69MOL    H8028776   1.327   0.747   2.434  2.9300 -2.4408  1.0898
   69MOL    H8128777   1.201   0.538   2.563  2.2116 -0.9142 -2.8625
   69MOL    H8228778   1.070   0.601   2.468  0.7203 -1.4738 -0.6034
   69MOL    H8328779   1.097   0.824   2.599  2.1367  0.9734  0.0118
   69MOL    H8428780   1.096   0.698   2.709  0.0734  0.6233 -0.2551
   69MOL    H8528781   1.255   0.773   2.649  0.0896  1.3447  1.4218
   69MOL    C8628782   0.984   0.675   2.038 -0.3603 -0.2556 -0.3998
   69MOL    C8728783   0.850   0.623   2.100  0.1394  0.6511  0.0327
   69MOL    C8828784   0.735   0.726   2.070  0.2937 -0.4197 -0.1479
   69MOL    C8928785   0.594   0.681   2.120 -0.1093 -0.2376 -0.4123
   69MOL    C9028786   0.481   0.786   2.113 -0.2093  0.0704  0.1248
   69MOL    C9128787   0.359   0.750   2.183 -0.2913  0.7298 -0.2693
   69MOL    C9228788   0.281   0.629   2.137 -0.1895  0.2038 -0.0793
   69MOL    H9328789   0.971   0.694   1.932  1.4588  0.6702 -0.4755
   69MOL    H9428790   1.067   0.604   2.045 -0.8023 -0.6500  1.2141
   69MOL    H9528791   0.860   0.636   2.208 -4.5789 -0.2901  0.6880
   69MOL    H9628792   0.758   0.820   2.120  0.3177  0.6077 -2.0548
   69MOL    H9728793   0.738   0.753   1.964 -2.8345 -1.0373 -0.4418
   69MOL    H9828794   0.559   0.591   2.071  2.7072 -0.7168 -1.6805
   69MOL    H9928795   0.609   0.648   2.222 -0.4127 -1.4023 -0.7395
   69MOL   H10028796   0.452   0.812   2.011  0.5064 -1.5172 -0.5027
   69MOL   H10128797   0.525   0.880   2.146 -0.0498 -0.1138  0.4368
   69MOL   H10228798   0.395   0.734   2.285  0.7159  0.0373 -0.7368
   69MOL   H10328799   0.293   0.836   2.197 -0.8167  0.5066 -1.3515
   69MOL   H10428800   0.203   0.600   2.207  0.8415 -0.6353  0.7286
   69MOL   H10528801   0.343   0.541   2.125 -0.9358 -0.3822  0.3100
   69MOL   H10628802   0.236   0.649   2.039  0.7615  3.4985  0.0985
   69MOL   C10728803   0.813   0.478   2.079 -0.2630  0.6675  0.0384
   69MOL   C10828804   0.921   0.364   2.111  0.5552 -0.3912 -0.5688
   69MOL   C10928805   0.854   0.270   2.221  0.7743  0.4012 -0.8219
   69MOL   C11028806   0.723   0.189   2.173  0.9698  0.5877  0.3184
   69MOL   C11128807   0.649   0.140   2.307 -0.2057  0.3208 -0.7027
   69MOL   C11228808   0.566   0.251   2.379 -0.4396  0.4996  0.2145
   69MOL   C11328809   0.411   0.250   2.341  0.0125  0.2030  0.3014
   69MOL   H11428810   0.781   0.458   1.976  3.6803  1.4910 -1.4612
   69MOL   H11528811   0.726   0.458   2.141  1.5571  0.0499  2.4585
   69MOL   H11628812   1.004   0.417   2.157  0.4165 -1.5174  1.0154
   69MOL   H11728813   0.846   0.331   2.311 -2.4712  0.6422 -1.2018
   69MOL   H11828814   0.928   0.196   2.251  1.2647  1.1746 -0.0782
   69MOL   H11928815   0.648   0.249   2.122  0.2540 -0.2474  0.3639
   69MOL   H12028816   0.743   0.114   2.096 -2.8264  1.1195 -1.3146
   69MOL   H12128817   0.724   0.096   2.373  0.7646  1.8024 -0.8036
   69MOL   H12228818   0.576   0.066   2.274  0.3542 -0.8671  0.6582
   69MOL   H12328819   0.577   0.237   2.487 -2.0780  0.9562  0.4474
   69MOL   H12428820   0.607   0.351   2.364  0.6034 -0.1235 -1.1955
   69MOL   H12528821   0.362   0.156   2.364 -0.3786  0.2765 -0.2148
   69MOL   H12628822   0.359   0.333   2.390 -0.6668  0.2602 -0.5007
   69MOL   H12728823   0.404   0.265   2.233  1.5902  3.6558  0.5858
   69MOL   C12828824   0.969   0.303   1.980 -0.1434 -0.5904  0.3395
   69MOL   C12928825   1.111   0.245   1.991  0.0783 -0.2668  0.4275
   69MOL   C13028826   1.217   0.353   1.974 -0.0964  0.9819 -0.3960
   69MOL   C13128827   1.236   0.394   1.826 -0.1522  0.0601  0.0402
   69MOL   C13228828   1.339   0.508   1.811  0.0071  0.3118 -0.6979
   69MOL   C13328829   1.382   0.535   1.670 -0.6944 -0.1625 -0.5949
   69MOL   C13428830   1.483   0.653   1.657 -0.3093  0.1860 -0.3713
   69MOL   H13528831   0.894   0.227   1.959  1.5227 -1.8461 -1.1681
   69MOL   H13628832   0.972   0.374   1.898  1.8574 -3.2820 -2.0003
   69MOL   H13728833   1.122   0.207   2.092  0.0628 -3.2115 -0.6174
   69MOL   H13828834   1.310   0.312   2.012 -0.6488  0.0949  0.0127
   69MOL   H13928835   1.195   0.446   2.027  1.0426  0.8309  0.3527
   69MOL   H14028836   1.145   0.417   1.771 -0.1325 -0.1152 -0.0642
   69MOL   H14128837   1.286   0.311   1.776  0.8660  0.7568 -0.1315
   69MOL   H14228838   1.424   0.498   1.879 -0.5467 -0.6523 -0.1354
   69MOL   H14328839   1.296   0.602   1.845  0.1758  0.3226 -0.5123
   69MOL   H14428840   1.291   0.546   1.611 -1.2300 -0.6233  0.1348
   69MOL   H14528841   1.427   0.445   1.627 -1.9523 -0.5640 -1.0934
   69MOL   H14628842   1.519   0.670   1.556  2.3687 -1.5053  0.2445
   69MOL   H14728843   1.568   0.622   1.718 -0.6627 -1.5354 -0.7138
   69MOL   H14828844   1.432   0.743   1.692 -0.4105 -1.0306  2.8409
   69MOL   C14928845   1.126   0.126   1.891  0.2828 -0.4972 -0.5099
   69MOL   C15028846   1.048   7.707   1.904 -0.2598 -0.3653 -0.0125
   69MOL   C15128847   1.056   7.635   2.043 -1.2480 -0.3931  0.4806
   69MOL   C15228848   1.202   7.605   2.074 -0.1744  0.4892 -0.4288
   69MOL   C15328849   1.233   7.529   2.201  0.0035 -0.6386 -0.3230
   69MOL   C15428850   1.378   7.523   2.254  0.3965 -0.5357 -0.4940
   69MOL   C15528851   1.393   7.483   2.397  0.4150  0.0822 -0.3390
   69MOL   H15628852   1.090   0.157   1.793  0.0638  1.6170  0.2201
   69MOL   H15728853   1.230   0.095   1.882  0.6322  0.9625 -1.7155
   69MOL   H15828854   0.941   0.013   1.894  0.1906  1.4322 -1.6963
   69MOL   H15928855   1.020   7.694   2.127  0.4980 -0.1646  1.0904
   69MOL   H16028856   0.998   7.543   2.035 -0.6826 -1.0304  3.3737
   69MOL   H16128857   1.270   7.690   2.079  0.2956  0.0769  0.3529
   69MOL   H16228858   1.247   7.544   1.996 -0.6716 -0.6248  0.1415
   69MOL   H16328859   1.201   7.425   2.193 -0.2149 -0.5626 -0.4264
   69MOL   H16428860   1.179   7.578   2.283  1.1887 -2.1213  1.3921
   69MOL   H16528861   1.421   7.623   2.242 -0.9301  0.1977  0.7390
   69MOL   H16628862   1.444   7.468   2.187  2.6214  3.5398 -1.8461
   69MOL   H16728863   1.469   7.545   2.444  1.0390 -0.6379 -0.3888
   69MOL   H16828864   1.426   7.379   2.398 -2.6167 -0.9257  1.4122
   69MOL   H16928865   1.304   7.477   2.459  0.6395 -3.4555 -0.2654
   69MOL   C17028866   1.085   7.620   1.773 -0.3174 -0.6640  0.0129
   69MOL   C17128867   0.977   7.508   1.738 -0.9167  0.1431  0.5459
   69MOL   C17228868   0.829   7.567   1.711 -0.5289  0.0144  0.2385
   69MOL   C17328869   0.814   7.673   1.601 -0.2443 -0.0518 -0.4619
   69MOL   C17428870   0.668   7.698   1.565  0.2161 -0.9473 -0.0938
   69MOL   C17528871   0.590   0.060   1.674  0.2903 -0.1120 -0.2907
   69MOL   C17628872   0.646   0.200   1.708 -0.2592  0.3239  0.4620
   69MOL   H17728873   1.176   7.562   1.788 -0.8152 -0.8208  2.8340
   69MOL   H17828874   1.106   7.683   1.687 -0.3290 -1.4560 -0.5775
   69MOL   H17928875   0.973   7.440   1.823 -2.6214  2.2071  2.1899
   69MOL   H18028876   0.797   7.615   1.803 -0.2352  0.0309  0.3332
   69MOL   H18128877   0.764   7.482   1.690 -2.1099  1.4764 -0.9485
   69MOL   H18228878   0.865   7.652   1.507  1.9724 -0.3989  0.7783
   69MOL   H18328879   0.863   0.052   1.632 -1.0440  0.8081 -1.7214
   69MOL   H18428880   0.620   7.600   1.554  0.3815 -0.7936 -2.5416
   69MOL   H18528881   0.662   0.033   1.467  0.0698 -1.4343 -0.3322
   69MOL   H18628882   0.581   7.710   1.762 -1.9786 -0.1678 -0.5440
   69MOL   H18728883   0.488   0.063   1.637 -0.0033 -1.4308  0.3691
   69MOL   H18828884   0.657   0.254   1.614  0.8438  0.5344  0.6993
   69MOL   H18928885   0.734   0.202   1.772 -0.8206 -0.7807  1.2762
   69MOL   H19028886   0.576   0.252   1.773 -0.5495 -0.6806  0.9655
   69MOL   C19128887   1.023   7.425   1.620  0.4728  0.2408 -0.7582
   69MOL   C19228888   1.150   7.334   1.641 -0.2716  0.4697  0.0895
   69MOL   C19328889   1.130   7.226   1.745  0.6108 -0.3998 -0.3808
   69MOL   C19428890   1.011   7.137   1.712 -0.4800  0.2906  0.1220
   69MOL   C19528891   0.984   7.036   1.829 -0.3598  0.4131  0.1698
   69MOL   C19628892   0.861   6.951   1.792  0.9268  0.4093 -0.7268
   69MOL   C19728893   0.820   6.846   1.895 -0.1414 -0.9600 -0.2419
   69MOL   H19828894   1.047   7.496   1.541  1.8197  0.2667 -0.3436
   69MOL   H19928895   0.935   7.370   1.588  1.6029 -2.0130 -0.1414
   69MOL   H20028896   1.229   7.400   1.677 -1.7941  2.4411 -0.1001
   69MOL   H20128897   1.111   7.265   1.845  3.7092 -1.9582  0.8766
   69MOL   H20228898   1.217   7.162   1.759 -0.0714 -1.4994 -1.0592
   69MOL   H20328899   1.021   7.080   1.619 -2.3705  0.4394 -0.2011
   69MOL   H20428900   0.924   7.197   1.686 -0.0340  1.5085  1.3536
   69MOL   H20528901   1.064   6.963   1.835 -0.8084  0.0565  2.7489
   69MOL   H20628902   0.957   7.083   1.924 -2.9233 -0.7701  0.0721
   69MOL   H20728903   0.879   6.888   1.704  2.0568  1.3760 -1.1970
   69MOL   H20828904   0.779   7.017   1.762 -0.9322 -1.2001  0.6645
   69MOL   H20928905   0.716   6.815   1.884  0.0029 -1.7218  0.4677
   69MOL   H21028906   0.843   6.881   1.995  0.6214 -0.7518 -0.4853
   69MOL   H21128907   0.881   6.758   1.873 -1.9566 -2.0942 -0.7902
   69MOL   C21228908   1.199   7.269   1.513 -0.5186  0.2377  0.4718
   69MOL   C21328909   1.283   7.364   1.414  0.6692  0.1747 -0.3631
   69MOL   C21428910   1.417   7.411   1.482  0.1328 -0.3216  0.4991
   69MOL   C21528911   1.513   7.304   1.525  0.6276  0.2927 -0.1629
   69MOL   C21628912   1.641   7.375   1.587  0.1651  0.6095  0.1615
   69MOL   C21728913   1.747   7.274   1.633  0.1303 -0.3487  0.1246
   69MOL   C21828914   1.888   7.321   1.652  0.3640 -0.7437  0.2470
   69MOL   H21928915   1.111   7.226   1.465 -0.5826  0.0521  0.7557
   69MOL   H22028916   1.275   7.196   1.539 -0.9247 -1.0181 -1.7230
   69MOL   H22128917   1.227   7.456   1.398  1.1040  0.9268  2.3271
   69MOL   H22228918   1.462   7.470   1.402 -0.6599  1.7988  1.5607
   69MOL   H22328919   1.406   7.486   1.560  2.1335 -0.7380  1.2047
   69MOL   H22428920   1.537   7.247   1.435 -2.6317 -0.7689 -0.4257
   69MOL   H22528921   1.466   7.241   1.600 -1.8083  0.7566 -1.2444
   69MOL   H22628922   1.684   7.439   1.510 -0.2749  0.9631  0.2105
   69MOL   H22728923   1.628   7.438   1.674  0.3609 -1.2624  1.5862
   69MOL   H22828924   1.715   7.231   1.728 -1.1851  0.6237  0.1535
   69MOL   H22928925   1.756   7.196   1.558  1.6723  0.3001 -0.3826
   69MOL   H23028926   1.879   7.396   1.730  0.6880 -0.0993 -0.3350
   69MOL   H23128927   1.943   7.364   1.568  0.2103  2.6165  1.7972
   69MOL   H23228928   1.956   7.246   1.694  0.8382 -1.5990 -1.9538
   69MOL   C23328929   1.303   7.301   1.275  0.0892 -0.1076  0.2975
   69MOL   C23428930   1.346   7.390   1.158  0.3827  0.3098  0.0564
   69MOL   C23528931   1.365   7.317   1.023 -0.2535 -0.9458 -0.2566
   69MOL   C23628932   1.475   7.214   1.013  0.5689  0.1896  0.2389
   69MOL   C23728933   1.544   7.196   0.874 -0.1395 -0.6567 -0.5111
   69MOL   C23828934   1.650   7.085   0.883  0.3407 -0.1267  0.1943
   69MOL   C23928935   1.757   7.088   0.991  0.4208 -0.3409 -1.0965
   69MOL   H24028936   1.216   7.247   1.237  0.9736 -0.1063 -1.8287
   69MOL   H24128937   1.375   7.220   1.282 -0.3488 -0.5275 -0.0166
   69MOL   H24228938   1.452   7.415   1.170  0.4251 -1.1940  3.3877
   69MOL   H24328939   1.382   7.387   0.941 -2.6049  1.4146  1.2003
   69MOL   H24428940   1.271   7.266   1.001  0.0130 -0.7358 -1.9704
   69MOL   H24528941   1.448   7.126   1.070  0.5833  0.2688  0.3695
   69MOL   H24628942   1.562   7.243   1.073  1.6581  0.2755 -1.3571
   69MOL   H24728943   1.585   7.295   0.854  0.4728 -1.0687 -1.3545
   69MOL   H24828944   1.467   7.180   0.798  0.7911 -0.6644 -1.4691
   69MOL   H24928945   1.602   6.988   0.893  1.5418 -0.8061 -0.5059
   69MOL   H25028946   1.697   7.082   0.785  0.1953 -1.6132  0.1592
   69MOL   H25128947   1.710   7.098   1.089  0.2178  4.2715 -1.5144
   69MOL   H25228948   1.823   7.003   1.007 -1.5215 -1.4541  1.2463
   69MOL   H25328949   1.812   7.182   0.983 -1.3837  0.7224 -1.1494
   69MOL   C25428950   1.253   7.516   1.140  0.1090  1.0494  0.1707
   69MOL   C25528951   1.298   7.652   1.211 -0.4963 -0.2262  0.0256
   69MOL   C25628952   1.177   0.006   1.276  0.3630  0.2461 -0.3606
   69MOL   C25728953   1.213   0.101   1.392  0.5891  1.1636 -0.1460
   69MOL   C25828954   1.101   0.172   1.468  0.5705  0.2393 -0.2060
   69MOL   C25928955   1.038   0.280   1.376 -0.0936 -0.1073  0.3327
   69MOL   C26028956   0.917   0.356   1.440 -0.5986  0.4851  0.4509
   69MOL   H26128957   1.150   7.491   1.167 -0.4440  1.1219 -1.7752
   69MOL   H26228958   1.238   7.524   1.033  0.5812 -2.5256 -0.2420
   69MOL   H26328959   1.363   7.620   1.293  0.2003 -0.9719 -0.7975
   69MOL   H26428960   1.111   7.640   1.311  0.3920  0.2690 -0.2527
   69MOL   H26528961   1.124   0.057   1.196  0.9638  1.6024  0.0883
   69MOL   H26628962   1.290   0.056   1.454 -0.8328 -0.4275  0.5073
   69MOL   H26728963   1.270   0.180   1.343 -0.2881  1.3351 -0.9083
   69MOL   H26828964   1.130   0.200   1.569 -1.8071 -0.4298  0.6928
   69MOL   H26928965   1.035   0.086   1.477  1.1883 -0.3610 -1.2394
   69MOL   H27028966   1.109   0.359   1.351 -1.8199  2.3728  2.9198
   69MOL   H27128967   1.006   0.242   1.279  1.2771 -0.1888 -0.1113
   69MOL   H27228968   0.890   0.452   1.395 -1.5134 -0.0879 -0.2293
   69MOL   H27328969   0.836   0.285   1.455 -0.0944 -0.1257  0.2946
   69MOL   H27428970   0.933   0.370   1.547 -3.5787 -3.1581  1.4744
   69MOL   C27528971   1.378   0.037   1.126  0.6855  0.2947 -0.5647
   69MOL   C27628972   1.531   0.033   1.143 -0.4595  0.1689 -0.4146
   69MOL   C27728973   1.589   0.114   1.262  0.3551  0.7466 -0.7623
   69MOL   C27828974   1.578   0.265   1.239 -0.6407  0.0750  0.4567
   69MOL   C27928975   1.537   0.349   1.359 -0.6552 -0.0838  0.5874
   69MOL   C28028976   1.559   0.499   1.334 -0.2551  1.1457 -0.3523
   69MOL   C28128977   1.704   0.540   1.362  0.4400  0.5805  0.3594
   69MOL   H28228978   1.336   0.137   1.136  0.3405  0.2590 -1.5917
   69MOL   H28328979   1.345   0.008   1.026 -2.1397  1.4762 -0.0253
   69MOL   H28428980   1.551   7.641   1.166  1.3283  0.9614  1.8031
   69MOL   H28528981   1.523   0.083   1.343  1.1339  1.6207  0.2156
   69MOL   H28628982   1.688   0.084   1.293  0.0897  1.1927  0.5355
   69MOL   H28728983   1.498   0.288   1.168 -0.0692  0.5126 -0.0427
   69MOL   H28828984   1.664   0.289   1.177 -1.1476  0.2890 -0.1646
   69MOL   H28928985   1.587   0.313   1.449  0.9292 -1.6287 -0.8898
   69MOL   H29028986   1.432   0.332   1.383  0.1444 -1.5369  3.2186
   69MOL   H29128987   1.522   0.532   1.238  0.5089 -0.6858 -1.2969
   69MOL   H29228988   1.492   0.562   1.393 -0.3124  1.0554 -0.3203
   69MOL   H29328989   1.718   0.530   1.469  0.7435  0.3449  0.3016
   69MOL   H29428990   1.718   0.643   1.331 -1.1913  1.0383  1.1184
   69MOL   H29528991   1.777   0.477   1.310 -2.6067 -2.5224 -0.3378
   69MOL   C29628992   1.589   0.074   1.006  0.5793  0.3690 -0.1383
   69MOL   C29728993   1.608   7.677   0.905  0.6271  0.5572 -0.0596
   69MOL   C29828994   1.748   7.605   0.911 -0.2589  0.1140  0.5859
   69MOL   C29928995   1.822   7.591   1.046 -0.3311  0.5370 -0.7635
   69MOL   C30028996   1.780   7.462   1.120 -0.4034  0.1576  0.5630
   69MOL   C30128997   1.849   7.429   1.241 -0.1472  0.0104  0.2312
   69MOL   C30228998   1.831   7.273   1.274 -0.2641  0.5728 -0.0155
   69MOL   H30328999   1.525   0.150   0.961 -0.0664  0.7936  1.4355
   69MOL   H30429000   1.678   0.135   1.019  1.6866 -1.4162  0.9681
   69MOL   H30529001   1.532   7.599   0.910 -0.5159  1.7240  1.1186
   69MOL   H30629002   1.730   7.506   0.868 -0.2265 -0.6448  2.2754
   69MOL   H30729003   1.819   7.650   0.842  0.4362 -1.6224  0.1296
   69MOL   H30829004   1.792   7.666   1.119 -2.4323 -1.3526  0.4188
   69MOL   H30929005   1.929   7.587   1.029 -0.1484 -2.1097  0.6659
   69MOL   H31029006   1.806   7.377   1.058 -0.9363 -1.1388  2.0971
   69MOL   H31129007   1.675   7.450   1.147 -0.5823 -1.5155 -0.8091
   69MOL   H31229008   1.954   7.457   1.231 -0.4040  0.4661 -1.2920
   69MOL   H31329009   1.806   7.499   1.313 -0.6241 -0.4081  0.3560
   69MOL   H31429010   1.726   7.248   1.290  0.1766 -1.1061  0.3181
   69MOL   H31529011   1.890   7.204   1.214  0.5521  0.3663  1.0138
   69MOL   H31629012   1.875   7.259   1.372 -2.4094  3.0710  1.3536
   69MOL   C31729013   1.587   0.019   0.759  0.0805 -0.1082  0.9547
   69MOL   C31829014   1.577   7.629   0.643  1.3088  0.2053 -0.4960
   69MOL   C31929015   1.425   7.592   0.608  0.2916  0.2230 -0.4263
   69MOL   C32029016   1.402   7.483   0.497 -0.3084 -0.3981 -0.5468
   69MOL   C32129017   1.255   7.444   0.473 -0.2309  0.5297  0.1513
   69MOL   C32229018   1.244   7.328   0.376  0.5939  0.5860 -0.9996
   69MOL   C32329019   1.102   7.293   0.351  0.1813 -0.2220  0.3991
   69MOL   H32429020   1.660   0.098   0.740 -1.5232  1.0443 -0.5329
   69MOL   H32529021   1.494   0.074   0.747 -0.1460 -1.0370 -1.8494
   69MOL   H32629022   1.624   7.539   0.682 -0.1322  0.3202  1.6221
   69MOL   H32729023   1.370   7.674   0.562 -2.5176 -1.9176 -1.0232
   69MOL   H32829024   1.378   7.545   0.694 -1.4497  0.5269 -1.1721
   69MOL   H32929025   1.454   7.389   0.514  0.4514  0.2208  0.6659
   69MOL   H33029026   1.442   7.520   0.403  1.4571 -0.1132  0.2801
   69MOL   H33129027   1.211   7.535   0.432 -0.8556  0.1796  0.0425
   69MOL   H33229028   1.209   7.426   0.570 -1.3527  1.7504 -0.1381
   69MOL   H33329029   1.286   7.237   0.418 -0.7063 -0.1343 -1.2428
   69MOL   H33429030   1.301   7.343   0.284  2.1806  0.2576 -0.0811
   69MOL   H33529031   1.045   7.378   0.314  2.2979  1.9418  1.9278
   69MOL   H33629032   1.049   7.262   0.441  1.1130  2.1440  1.8179
   69MOL   H33729033   1.086   7.217   0.274  2.7797  1.4663 -1.9326
   69MOL   C33829034   1.655   7.685   0.523  0.1111 -0.4573 -0.3498
   69MOL   C33929035   1.809   7.699   0.537 -0.0322  0.7849  0.0889
   69MOL   C34029036   1.869   0.089   0.433 -0.5425 -0.0685  0.7699
   69MOL   C34129037   1.823   0.236   0.433 -0.1763  0.0596 -0.3144
   69MOL   C34229038   1.881   0.313   0.316 -0.8868  0.5845 -0.2582
   69MOL   C34329039   1.841   0.460   0.319 -0.5539 -0.0012 -0.0797
   69MOL   C34429040   1.889   0.538   0.196  0.4457 -0.2263  0.3929
   69MOL   H34529041   1.623   0.075   0.513 -0.6472 -0.6110  0.3620
   69MOL   H34629042   1.628   7.624   0.437 -1.1798 -1.2381  0.5870
   69MOL   H34729043   1.826   0.037   0.632  0.9199 -0.1807  0.4434
   69MOL   H34829044   1.977   0.081   0.441 -0.5839  0.4839  2.0117
   69MOL   H34929045   1.837   0.049   0.337  1.4598 -1.5026  0.6669
   69MOL   H35029046   1.853   0.280   0.528  0.8140 -2.1701  0.4392
   69MOL   H35129047   1.715   0.245   0.435 -0.4023 -2.5087  1.3898
   69MOL   H35229048   1.988   0.302   0.333 -0.8725 -0.4804 -0.9986
   69MOL   H35329049   1.852   0.274   0.218 -2.4217  0.8242  0.0854
   69MOL   H35429050   1.732   0.464   0.320 -0.5247  0.8921  0.4163
   69MOL   H35529051   1.886   0.501   0.410 -0.3028  0.2444 -0.3140
   69MOL   H35629052   1.996   0.533   0.177  0.7753  2.3912  1.3940
   69MOL   H35729053   1.862   0.644   0.194 -4.1036 -1.3134 -1.4759
   69MOL   H35829054   1.843   0.505   0.103 -1.0877 -1.2973  1.4921
   69MOL   C35929055   1.882   7.565   0.543 -0.6171 -0.1935  0.6164
   69MOL   C36029056   2.016   7.558   0.628 -0.0314 -0.1227  0.2091
   69MOL   C36129057   2.060   7.410   0.626 -0.4622 -0.8580 -0.4330
   69MOL   C36229058   1.963   7.317   0.698 -0.3240  0.0011 -0.2659
   69MOL   C36329059   2.027   7.179   0.751  0.0262  0.3559 -0.4032
   69MOL   C36429060   2.120   7.199   0.881 -0.5447 -0.2351  0.1083
   69MOL   C36529061   2.178   7.058   0.935  0.0640  0.1770 -0.1412
   69MOL   H36629062   1.897   7.531   0.440  1.9676  0.3273  0.7864
   69MOL   H36729063   1.811   7.491   0.580 -0.3249 -2.4657 -3.0556
   69MOL   H36829064   1.983   7.584   0.729 -1.0521 -2.5539  0.5419
   69MOL   H36929065   2.082   7.375   0.525 -1.3280 -0.1770 -0.8627
   69MOL   H37029066   2.156   7.404   0.678 -0.8877 -1.3429  0.3188
   69MOL   H37129067   1.912   7.369   0.780 -0.8034  1.6398 -1.5847
   69MOL   H37229068   1.885   7.292   0.626  0.9029 -1.8915 -0.9548
   69MOL   H37329069   1.935   7.123   0.765 -0.3126  0.7261 -1.1310
   69MOL   H37429070   2.091   7.132   0.676 -0.0132 -1.7178  0.8213
   69MOL   H37529071   2.205   7.260   0.852 -0.0077 -0.4089  1.2853
   69MOL   H37629072   2.075   7.256   0.963 -0.8393 -1.0164  0.4982
   69MOL   H37729073   2.236   7.017   0.852  0.0120  2.4664 -1.3464
   69MOL   H37829074   2.236   7.073   1.026 -0.2065 -0.6895  0.1815
   69MOL   H37929075   2.093   6.991   0.951  0.9134 -0.9960 -0.4396
   69MOL   C38029076   2.138   7.654   0.595 -0.0361  0.8697 -0.6385
   69MOL   C38129077   2.249   7.661   0.697  0.4248 -0.3683  0.1814
   69MOL   C38229078   2.373   7.702   0.619  0.5681 -1.0893 -0.5963
   69MOL   C38329079   2.503   7.690   0.708 -0.6187 -0.0200  0.0892
   69MOL   C38429080   2.625   7.713   0.623 -0.4871  0.4516 -0.0264
   69MOL   C38529081   2.760   0.017   0.709  0.8782 -0.3082  0.0496
   69MOL   C38629082   2.884   0.060   0.631  0.1532  0.6721  0.3012
   69MOL   H38729083   2.175   7.622   0.498  0.4476  0.6920 -0.3981
   69MOL   H38829084   2.110   0.045   0.578 -0.5596  0.7317 -0.6443
   69MOL   H38929085   2.261   7.567   0.751 -2.9070 -1.1993 -0.4330
   69MOL   H39029086   2.362   0.089   0.581  3.1761  0.1704  1.7359
   69MOL   H39129087   2.389   7.625   0.544 -1.2180 -2.4880  0.4230
   69MOL   H39229088   2.487   0.053   0.784  1.9863 -0.0131  0.6738
   69MOL   H39329089   2.492   7.599   0.766 -3.5667 -0.0646 -0.4552
   69MOL   H39429090   2.637   7.623   0.562  3.8070  0.4389  0.6808
   69MOL   H39529091   2.625   0.090   0.562  2.9158  0.9106  0.5538
   69MOL   H39629092   2.777   7.634   0.756  2.5064 -0.2322 -0.3324
   69MOL   H39729093   2.744   0.086   0.792  1.1944  0.8945 -0.8651
   69MOL   H39829094   2.962   0.116   0.684 -0.9474  2.4477  0.0973
   69MOL   H39929095   2.865   0.140   0.559 -0.2839  0.5647  0.2971
   69MOL   H40029096   2.928   7.695   0.570 -1.4183  0.5686 -0.7447
   69MOL   C40129097   2.213   0.049   0.810 -0.7606  0.7062 -0.1092
   69MOL   C40229098   2.234   7.688   0.944 -0.2779 -0.7426  0.3267
   69MOL   C40329099   2.204   0.070   1.051  0.0886 -0.4197  0.6108
   69MOL   C40429100   2.264   0.029   1.188 -0.0723  0.1315 -0.3998
   69MOL   C40529101   2.198   7.622   1.264 -0.2789  0.2380  1.3673
   69MOL   C40629102   2.271   7.582   1.395  0.2732 -0.0630  0.6127
   69MOL   C40729103   2.228   7.447   1.460  0.2912 -0.6469 -0.5964
   69MOL   H40829104   2.107   0.074   0.801 -1.0278 -1.0339 -2.3635
   69MOL   H40929105   2.272   0.140   0.799  0.6116 -0.4553 -2.8782
   69MOL   H41029106   2.338   7.660   0.958 -1.1058 -3.3414  1.7934
   69MOL   H41129107   2.096   0.063   1.065 -0.2052 -1.0341 -1.7642
   69MOL   H41229108   2.222   0.173   1.022  2.0825  0.0328  3.2086
   69MOL   H41329109   2.258   0.116   1.253  3.2471 -1.2085  1.8527
   69MOL   H41429110   2.372   0.018   1.183  0.1728  2.1511 -0.0839
   69MOL   H41529111   2.094   7.644   1.289 -0.0759  2.9251  0.0135
   69MOL   H41629112   2.204   7.541   1.191  0.1457 -0.1500  1.8306
   69MOL   H41729113   2.378   7.596   1.382 -0.2343  1.4843 -2.5804
   69MOL   H41829114   2.249   7.665   1.462 -0.6738  0.3873 -0.2393
   69MOL   H41929115   2.121   7.429   1.465 -0.0373  1.4515  0.1545
   69MOL   H42029116   2.270   7.444   1.561  0.7423 -1.9528 -0.8125
   69MOL   H42129117   2.272   7.367   1.400  2.7102 -0.0282  0.2955
   69MOL   H42229118   2.165   7.605   0.959 -0.7542 -1.0516 -3.1734
   70MOL     C129119   7.626   2.511   4.382  0.0605 -0.4189  0.0060
   70MOL     C229120   7.662   2.391   4.306  0.5028 -0.1497  1.4203
   70MOL     C329121   7.574   2.271   4.356  0.2365 -0.6632  0.1790
   70MOL     C429122   7.574   2.157   4.247 -0.0709 -0.1197 -0.2973
   70MOL     C529123   7.481   2.043   4.273  0.2020 -0.6788  0.0781
   70MOL     C629124   7.457   1.957   4.148  0.5311  0.4727  0.0540
   70MOL     C729125   7.380   1.830   4.173 -0.3434  0.2494 -1.1154
   70MOL     H829126   7.651   2.505   4.488 -1.5189  0.8450  0.4674
   70MOL     H929127   7.519   2.532   4.378  0.1612  0.3978  1.3039
   70MOL    H1029128   7.635   2.407   4.202  2.4422 -1.3597  0.7031
   70MOL    H1129129   7.616   2.230   4.448  0.7724 -3.1274 -1.1199
   70MOL    H1229130   7.470   2.302   4.367  0.4966 -0.1433  1.1555
   70MOL    H1329131   7.541   2.202   4.154  0.8473  0.8824 -0.1476
   70MOL    H1429132   7.671   2.108   4.237 -0.6260 -1.0615 -1.1326
   70MOL    H1529133   7.385   2.080   4.308 -0.5457 -1.1891 -1.4101
   70MOL    H1629134   7.515   1.992   4.364  1.9111  1.6438  0.8098
   70MOL    H1729135   7.553   1.943   4.098  1.4599  1.3126  1.5299
   70MOL    H1829136   7.390   2.013   4.083  0.7755  1.0611  0.3046
   70MOL    H1929137   7.372   1.748   4.102  1.1667  1.9130 -3.2873
   70MOL    H2029138   7.282   1.861   4.208  0.4339  2.5435 -0.8993
   70MOL    H2129139   7.428   1.775   4.254  0.4973  2.0009 -0.3949
   70MOL    H2229140   7.683   2.596   4.344  0.5147  0.1318  1.8457
   70MOL    C2329141   0.105   2.355   4.304  0.4276  0.3029  0.4658
   70MOL    C2429142   0.186   2.457   4.215  0.5669 -0.3260  0.0494
   70MOL    C2529143   0.121   2.500   4.077  0.1656  0.0202  0.5385
   70MOL    C2629144   0.182   2.629   4.026  0.3268  0.0582  0.3103
   70MOL    C2729145   0.194   2.637   3.877 -0.7522 -0.0074  0.2386
   70MOL    C2829146   0.058   2.667   3.808  0.6606  0.1147  0.2281
   70MOL    C2929147   0.054   2.653   3.651 -0.6652 -0.0505  0.3399
   70MOL    H3029148   0.139   2.382   4.404 -0.8360  0.4532  0.8588
   70MOL    H3129149   0.137   2.253   4.280  2.3760  0.8781  0.5193
   70MOL    H3229150   0.201   2.551   4.270 -0.9139 -1.1973  2.0051
   70MOL    H3329151   0.013   2.510   4.071 -0.0141 -2.7043 -2.0901
   70MOL    H3429152   0.149   2.423   4.005  1.1569 -0.7239  1.7079
   70MOL    H3529153   0.278   2.643   4.076  1.4432  0.3042 -1.8652
   70MOL    H3629154   0.116   2.712   4.050 -0.4934  0.0521 -1.8132
   70MOL    H3729155   0.234   2.539   3.851  1.7300  0.9612  0.2478
   70MOL    H3829156   0.268   2.714   3.857  0.5148 -0.5563  2.6199
   70MOL    H3929157   0.016   2.764   3.838  0.5165 -0.2428  1.1844
   70MOL    H4029158   7.713   2.584   3.846 -0.8581  0.0032 -2.2053
   70MOL    H4129159   0.034   2.551   3.619 -1.4556  0.1534  0.1829
   70MOL    H4229160   7.674   2.694   3.614 -0.7776  1.5655  2.3500
   70MOL    H4329161   0.145   2.684   3.598 -0.7370 -1.0959 -0.3998
   70MOL    C4429162   0.336   2.424   4.194  0.1358 -0.4770 -0.6421
   70MOL    C4529163   0.419   2.383   4.322  0.2636 -0.2025  0.5672
   70MOL    C4629164   0.415   2.489   4.431  0.0315  0.0279  0.2141
   70MOL    C4729165   0.480   2.627   4.389 -0.2244 -0.8087 -0.4523
   70MOL    C4829166   0.453   2.748   4.486 -0.4712 -0.5766 -0.0034
   70MOL    C4929167   0.542   2.874   4.455  0.0911  0.1407  0.1939
   70MOL    C5029168   0.501   3.001   4.531 -0.1078 -0.0646  0.5814
   70MOL    H5129169   0.387   2.502   4.138  0.0710  1.2257  1.5895
   70MOL    H5229170   0.338   2.346   4.118  0.1437 -1.1550  0.0474
   70MOL    H5329171   0.523   2.369   4.292 -0.5050 -1.4190 -1.5851
   70MOL    H5429172   0.472   2.467   4.522 -1.0210  1.3707  1.2203
   70MOL    H5529173   0.313   2.510   4.463  0.2011  1.0786  0.0820
   70MOL    H5629174   0.585   2.623   4.359 -0.1080  1.3781 -0.4764
   70MOL    H5729175   0.429   2.647   4.295  0.3281  0.2454 -0.5420
   70MOL    H5829176   0.476   2.730   4.591 -0.5234 -0.0239  0.1048
   70MOL    H5929177   0.347   2.766   4.470 -0.2195  0.0638 -1.0085
   70MOL    H6029178   0.527   2.897   4.350  1.1321  1.0231  0.2260
   70MOL    H6129179   0.648   2.855   4.467  0.7126  0.8854 -3.7094
   70MOL    H6229180   0.585   3.069   4.518 -0.0685 -0.3734 -0.8883
   70MOL    H6329181   0.474   2.971   4.632  2.0385 -0.0501  1.1768
   70MOL    H6429182   0.415   3.032   4.471 -0.6300  1.1599  1.9215
   70MOL    C6529183   0.403   2.235   4.383 -0.2433  0.0118  0.4556
   70MOL    C6629184   0.483   2.188   4.508  0.1235 -0.0075  0.1537
   70MOL    C6729185   0.638   2.184   4.490 -0.1355  0.3336  0.4381
   70MOL    C6829186   0.686   2.139   4.352  0.6247 -0.1919  0.6116
   70MOL    C6929187   0.834   2.105   4.355 -0.3095 -0.4695 -0.9883
   70MOL    C7029188   0.887   1.985   4.443  0.2502 -0.0547  0.1965
   70MOL    C7129189   1.038   1.969   4.418 -0.2108  0.3883  0.1818
   70MOL    H7229190   0.296   2.232   4.404 -0.1144 -2.1165  0.9824
   70MOL    H7329191   0.416   2.157   4.308  0.5198 -0.9019  1.5149
   70MOL    H7429192   0.474   2.260   4.589 -0.7359  0.3319 -0.2376
   70MOL    H7529193   0.668   2.288   4.502 -2.1374  0.8074  1.5038
   70MOL    H7629194   0.682   2.130   4.573  2.8094  1.0360 -0.5994
   70MOL    H7729195   0.630   2.051   4.318 -0.6085  1.9368 -3.2085
   70MOL    H7829196   0.660   2.210   4.273 -0.7420  1.8359  2.8287
   70MOL    H7929197   0.858   2.087   4.250 -1.4098 -2.1327 -0.9750
   70MOL    H8029198   0.901   2.190   4.369  0.2777 -0.3932 -3.8667
   70MOL    H8129199   0.829   1.896   4.421  1.0313 -0.3611 -0.6660
   70MOL    H8229200   0.868   1.983   4.550 -1.0327 -0.5341 -0.0400
   70MOL    H8329201   1.051   1.974   4.310  2.2505 -0.9063  0.3701
   70MOL    H8429202   1.088   2.054   4.465  1.1121  0.3181 -1.0541
   70MOL    H8529203   1.086   1.875   4.445 -1.6094 -0.2969  0.3390
   70MOL    C8629204   0.432   2.056   4.577  0.2467 -0.4300  0.1067
   70MOL    C8729205   0.284   2.055   4.622 -0.4666  1.0544 -0.1633
   70MOL    C8829206   0.214   1.931   4.563  0.4550 -0.2001  0.2597
   70MOL    C8929207   0.191   1.926   4.406 -0.1896 -0.0562 -0.3571
   70MOL    C9029208   0.123   1.798   4.360 -0.5639  0.3685 -0.4821
   70MOL    C9129209   0.128   1.789   4.210 -0.6536 -0.7679 -0.6194
   70MOL    C9229210   0.046   1.677   4.159  0.9684 -0.3943  0.2236
   70MOL    H9329211   0.450   1.971   4.511  3.3527 -0.5534  1.0116
   70MOL    H9429212   0.500   2.017   4.652  0.8090  1.5156  0.6350
   70MOL    H9529213   0.240   2.144   4.577  0.4031  1.4145 -0.3135
   70MOL    H9629214   0.274   1.846   4.596 -0.3846 -1.9726 -2.6292
   70MOL    H9729215   0.118   1.928   4.615  0.8449 -2.0741  0.9128
   70MOL    H9829216   0.132   2.014   4.378 -0.5657 -0.5550 -1.1298
   70MOL    H9929217   0.287   1.929   4.356  0.0458 -0.8464  0.0348
   70MOL   H10029218   0.019   1.795   4.394 -0.8005 -0.5149 -1.2692
   70MOL   H10129219   0.167   1.704   4.393  0.0526 -0.9102 -4.6733
   70MOL   H10229220   0.089   1.882   4.169 -0.1220 -0.3093 -0.1118
   70MOL   H10329221   0.232   1.778   4.180 -1.2699 -1.1054 -2.6456
   70MOL   H10429222   0.076   1.579   4.196  4.1425  0.5875  0.3629
   70MOL   H10529223   0.047   1.664   4.051 -1.0457  0.1676  0.1069
   70MOL   H10629224   7.656   1.693   4.190  0.7173  2.1008 -1.6769
   70MOL   C10729225   0.264   2.052   4.777  0.7624  0.3913 -1.5155
   70MOL   C10829226   0.321   2.173   4.854  0.1709 -0.8144  0.0122
   70MOL   C10929227   0.212   2.280   4.886 -0.7561 -0.0335 -1.0205
   70MOL   C11029228   0.226   2.408   4.809 -0.5432 -0.8061 -0.6987
   70MOL   C11129229   0.113   2.509   4.820  0.1940  0.0404  0.2656
   70MOL   C11229230   0.111   2.609   4.706 -0.0229 -0.5308 -0.1070
   70MOL   C11329231   7.689   2.682   4.702 -0.1140  0.0477  0.0980
   70MOL   H11429232   0.307   1.958   4.812 -1.3971 -0.4001 -0.9263
   70MOL   H11529233   0.158   2.050   4.799  1.1162 -1.2430  0.1679
   70MOL   H11629234   0.400   2.209   4.789 -0.5301  0.6421 -0.0487
   70MOL   H11729235   0.210   2.304   4.992 -1.4954  0.3785 -1.1228
   70MOL   H11829236   0.114   2.238   4.863 -0.3863 -1.1189 -0.6147
   70MOL   H11929237   0.322   2.451   4.837 -1.2147  0.5832 -0.5260
   70MOL   H12029238   0.231   2.380   4.703 -1.1064  0.8722 -1.1781
   70MOL   H12129239   0.116   2.561   4.916  0.6187  0.0945  0.2232
   70MOL   H12229240   0.015   2.462   4.808  1.5297 -2.1028 -2.7975
   70MOL   H12329241   0.194   2.679   4.714 -0.5877  0.1711 -0.3438
   70MOL   H12429242   0.118   2.554   4.612 -2.1466  1.5773 -1.5322
   70MOL   H12529243   7.685   2.752   4.785  3.4119  2.1207 -1.3805
   70MOL   H12629244   7.679   2.733   4.606  0.9860 -0.8067 -0.4737
   70MOL   H12729245   7.610   2.607   4.703 -0.5647  0.5111  3.8231
   70MOL   C12829246   0.388   2.117   4.982 -0.9691  0.4631 -0.7767
   70MOL   C12929247   0.475   2.228   5.051 -0.0266  0.0422  0.2591
   70MOL   C13029248   0.599   2.285   4.978  0.6802 -0.5511 -0.3797
   70MOL   C13129249   0.700   2.175   4.935  0.0469  0.6782 -0.4699
   70MOL   C13229250   0.828   2.232   4.877  0.1997 -0.5605 -0.6443
   70MOL   C13329251   0.935   2.140   4.815  0.1890 -0.8474  0.2930
   70MOL   C13429252   1.022   2.069   4.918 -0.6008 -0.7967  0.1121
   70MOL   H13529253   0.300   2.094   5.043 -1.5101  2.0600 -0.9294
   70MOL   H13629254   0.447   2.029   4.955 -0.0286  0.6050  0.7743
   70MOL   H13729255   0.410   2.315   5.064  0.7628  0.6332  0.3105
   70MOL   H13829256   0.637   2.366   5.039 -0.4468 -1.2007  1.2009
   70MOL   H13929257   0.566   2.342   4.891  2.2949  2.2061  0.7495
   70MOL   H14029258   0.658   2.108   4.860 -2.3215 -0.3989  1.7357
   70MOL   H14129259   0.727   2.107   5.015  0.3030  1.5963  0.2288
   70MOL   H14229260   0.874   2.283   4.961  3.0297 -0.1184 -2.3874
   70MOL   H14329261   0.798   2.305   4.801  0.3480 -1.1887 -1.3054
   70MOL   H14429262   0.994   2.193   4.740 -1.6033  0.0401 -0.5081
   70MOL   H14529263   0.877   2.060   4.769 -0.7670  1.0274 -1.8150
   70MOL   H14629264   1.090   1.999   4.869  0.0880 -0.2755  0.3137
   70MOL   H14729265   0.969   2.017   4.998  0.2082  1.0116  1.8801
   70MOL   H14829266   1.084   2.141   4.972 -0.5369 -1.2917  0.7008
   70MOL   C14929267   0.509   2.188   5.199 -0.2750 -0.1657 -0.0715
   70MOL   C15029268   0.536   2.307   5.296  0.2099  0.1212 -0.4534
   70MOL   C15129269   0.643   2.284   5.409 -0.6946  0.6504  0.1257
   70MOL   C15229270   0.782   2.240   5.366 -0.4609 -0.6928  0.7704
   70MOL   C15329271   0.856   2.354   5.281 -0.4729  0.3536 -0.3896
   70MOL   C15429272   0.857   2.489   5.357 -0.1517  0.4801 -0.0117
   70MOL   C15529273   0.971   2.588   5.314 -0.1320  0.3425 -0.2837
   70MOL   H15629274   0.430   2.121   5.233 -0.6919  0.0966 -0.5128
   70MOL   H15729275   0.597   2.126   5.190  1.2479  2.1514 -1.9012
   70MOL   H15829276   0.568   2.391   5.235 -1.7967  0.1706 -1.4791
   70MOL   H15929277   0.652   2.370   5.475  0.2275 -1.7871  3.3202
   70MOL   H16029278   0.597   2.206   5.470  3.6686 -0.9572  1.6052
   70MOL   H16129279   0.784   2.146   5.311  2.0163 -1.3427  1.9384
   70MOL   H16229280   0.845   2.218   5.453  0.1506 -0.9909  0.2534
   70MOL   H16329281   0.814   2.368   5.181 -3.0038 -0.7430  0.4906
   70MOL   H16429282   0.960   2.329   5.261 -0.6221 -2.0646  1.6690
   70MOL   H16529283   0.860   2.472   5.465  1.4488  1.3233  0.0885
   70MOL   H16629284   0.762   2.541   5.352  0.0824  1.3944  3.8073
   70MOL   H16729285   0.953   2.682   5.365  1.1987  0.0556  0.7687
   70MOL   H16829286   0.961   2.606   5.208  1.3520 -1.3287 -0.7421
   70MOL   H16929287   1.072   2.550   5.330 -0.8961 -0.8934  1.8333
   70MOL   C17029288   0.412   2.357   5.368  0.5800  0.4509  0.2018
   70MOL   C17129289   0.395   2.515   5.375 -0.3414 -0.2252  0.0610
   70MOL   C17229290   0.358   2.577   5.242  0.0256  0.9157  0.0052
   70MOL   C17329291   0.422   2.718   5.235  0.5143  0.3545 -0.2743
   70MOL   C17429292   0.400   2.772   5.092  0.4864 -0.1608 -0.0571
   70MOL   C17529293   0.442   2.920   5.079  0.4978  0.7666 -0.2319
   70MOL   C17629294   0.437   2.973   4.938  0.6052  0.5672 -1.0655
   70MOL   H17729295   0.415   2.322   5.472  0.0935  1.9792  0.7509
   70MOL   H17829296   0.324   2.311   5.323 -0.0240  2.8842 -1.1650
   70MOL   H17929297   0.494   2.549   5.404 -0.1163 -1.6931  1.0634
   70MOL   H18029298   0.251   2.569   5.224  0.2678 -0.4538 -0.8175
   70MOL   H18129299   0.395   2.517   5.159 -1.8983  0.3153 -0.4437
   70MOL   H18229300   0.530   2.711   5.247  0.2641 -0.7682  1.4046
   70MOL   H18329301   0.374   2.785   5.306  0.3911 -1.7021  1.6154
   70MOL   H18429302   0.295   2.755   5.068 -0.0816  1.9425  0.8536
   70MOL   H18529303   0.462   2.720   5.019 -0.8213 -1.1312 -0.4987
   70MOL   H18629304   0.539   2.944   5.123  1.2424 -0.4183 -1.2145
   70MOL   H18729305   0.373   2.970   5.148  2.5435  1.7567  1.1663
   70MOL   H18829306   0.501   2.918   4.869  0.5674 -1.3937  0.4386
   70MOL   H18929307   0.481   3.072   4.952  0.1269  0.3968  1.9966
   70MOL   H19029308   0.335   2.976   4.900 -0.6884 -0.3073  2.1659
   70MOL   C19129309   0.292   2.562   5.481 -0.7801 -0.2375 -0.7252
   70MOL   C19229310   0.325   2.534   5.628 -0.0652  0.3701 -0.0835
   70MOL   C19329311   0.472   2.572   5.678  0.2781 -0.6685  0.7755
   70MOL   C19429312   0.511   2.721   5.649 -0.1748  0.3547  0.0391
   70MOL   C19529313   0.650   2.756   5.688 -0.0665  0.3460 -0.5525
   70MOL   C19629314   0.673   2.908   5.682 -0.2681  0.1452  0.2448
   70MOL   C19729315   0.827   2.946   5.699 -0.1115  0.0258 -0.2055
   70MOL   H19829316   0.194   2.518   5.467 -1.0002 -0.2676  0.8490
   70MOL   H19929317   0.276   2.670   5.475  0.6373  0.1162  1.3290
   70MOL   H20029318   0.318   2.426   5.637  1.2804  0.3554  1.0039
   70MOL   H20129319   0.550   2.519   5.623 -0.8644 -0.6451 -0.9156
   70MOL   H20229320   0.482   2.549   5.784  2.4265 -2.1535  0.2966
   70MOL   H20329321   0.436   2.769   5.713 -0.6987 -0.9172  0.4112
   70MOL   H20429322   0.506   2.753   5.545 -0.3119 -0.2175 -0.1340
   70MOL   H20529323   0.669   2.725   5.791  1.3994  0.7922 -0.6695
   70MOL   H20629324   0.725   2.707   5.625 -0.0958  0.5761 -0.7660
   70MOL   H20729325   0.620   2.965   5.759 -0.5865  1.4384 -0.9161
   70MOL   H20829326   0.649   2.946   5.582  2.1348  0.6138 -0.1903
   70MOL   H20929327   0.867   2.922   5.798  1.1078  0.1114 -0.6727
   70MOL   H21029328   0.829   3.055   5.700 -3.0229  0.2074 -4.2430
   70MOL   H21129329   0.887   2.911   5.615 -0.9191  0.2096 -0.8662
   70MOL   C21229330   0.214   2.594   5.717 -1.0382  0.1488  0.5993
   70MOL   C21329331   0.137   2.491   5.809  0.1073 -0.7638  0.3482
   70MOL   C21429332   0.235   2.435   5.905  0.2524 -0.3605 -0.6279
   70MOL   C21529333   0.196   2.296   5.970  0.2055  0.6052  0.2523
   70MOL   C21629334   0.261   2.281   6.110  0.3125 -0.9953 -0.3445
   70MOL   C21729335   0.281   2.132   6.164  0.5957  0.1181 -0.3665
   70MOL   C21829336   0.401   2.060   6.109 -0.1070  0.3266 -0.9243
   70MOL   H21929337   0.144   2.641   5.648 -0.6307  1.7297  1.2596
   70MOL   H22029338   0.253   2.676   5.778  0.1862  1.2563 -1.6164
   70MOL   H22129339   0.100   2.414   5.742 -1.5675 -0.1801  0.5633
   70MOL   H22229340   0.337   2.420   5.871  1.4084 -0.0844  2.5361
   70MOL   H22329341   0.250   2.520   5.972  0.8550 -1.1558  0.2564
   70MOL   H22429342   0.236   2.220   5.902  0.6878 -0.1340  1.3364
   70MOL   H22529343   0.089   2.283   5.983 -0.5831  3.7422 -2.4787
   70MOL   H22629344   0.347   2.348   6.119  0.9413 -2.2604  3.9112
   70MOL   H22729345   0.202   2.346   6.174  2.1826 -1.4561  1.8976
   70MOL   H22829346   0.296   2.133   6.272  1.1601 -1.5188 -0.4074
   70MOL   H22929347   0.189   2.076   6.151  0.6592  0.0200 -0.3970
   70MOL   H23029348   0.401   2.085   6.003 -0.9682 -3.5633 -1.9278
   70MOL   H23129349   0.410   1.951   6.112  2.5301  0.5431  2.5694
   70MOL   H23229350   0.494   2.094   6.154 -0.6767  2.3197 -1.1875
   70MOL   C23329351   0.018   2.559   5.885  0.0564 -0.2236 -0.4651
   70MOL   C23429352   7.603   2.581   5.804  0.0577  0.2964  0.5333
   70MOL   C23529353   7.522   2.449   5.778 -0.3820 -0.1338  0.1565
   70MOL   C23629354   7.444   2.395   5.900 -0.3481 -0.0709  0.5469
   70MOL   C23729355   7.397   2.255   5.871 -0.4983  0.1885  0.0831
   70MOL   C23829356   7.332   2.179   5.983 -0.4464  0.3233  0.1832
   70MOL   C23929357   7.414   2.161   6.119 -0.1873  0.2366 -0.2904
   70MOL   H24029358   0.059   2.650   5.931  3.1300 -2.1790  0.8634
   70MOL   H24129359   7.708   2.513   5.981  1.2616  1.1473  0.5189
   70MOL   H24229360   7.628   2.612   5.703 -1.6775 -0.4334 -0.1385
   70MOL   H24329361   7.589   2.369   5.747 -0.6051  0.2121 -1.2458
   70MOL   H24429362   7.453   2.483   5.701 -0.4132  2.3714  1.2608
   70MOL   H24529363   7.353   2.455   5.914  0.2697  1.4648 -1.6358
   70MOL   H24629364   7.508   2.389   5.988  2.0206  2.1338 -0.9421
   70MOL   H24729365   7.478   2.198   5.826 -0.7879 -1.3965  1.5242
   70MOL   H24829366   7.325   2.262   5.789  1.1287  0.2949 -1.3679
   70MOL   H24929367   7.242   2.233   6.013 -1.1128 -1.1831  0.9543
   70MOL   H25029368   7.296   2.085   5.942  0.6507  0.8135 -2.0377
   70MOL   H25129369   7.455   2.253   6.160 -0.7713 -0.6751  2.4634
   70MOL   H25229370   7.365   2.104   6.199 -1.2792  0.6622 -0.6378
   70MOL   H25329371   7.504   2.104   6.099  0.6558  1.4132  0.0772
   70MOL   C25429372   7.516   2.694   5.872  0.2034  0.3021  0.1503
   70MOL   C25529373   7.401   2.746   5.788  0.0013  0.0313 -0.2214
   70MOL   C25629374   7.449   2.788   5.646 -0.2026  0.3012 -0.1964
   70MOL   C25729375   7.559   2.887   5.631 -0.3586 -0.8736 -0.2409
   70MOL   C25829376   7.598   2.913   5.483  0.2236 -0.1978 -0.2806
   70MOL   C25929377   7.666   2.791   5.422 -0.4757 -0.1162  0.1480
   70MOL   C26029378   0.027   2.802   5.288  0.5385  0.2516  0.4606
   70MOL   H26129379   7.577   2.775   5.911  0.0097  1.1639 -1.3013
   70MOL   H26229380   7.467   2.640   5.953  1.2086 -1.4524 -0.3737
   70MOL   H26329381   7.332   2.662   5.779  0.2450 -0.0787 -1.0749
   70MOL   H26429382   7.365   2.837   5.598 -2.2517  0.2091  3.1515
   70MOL   H26529383   7.478   2.700   5.588 -1.0789  0.9738 -1.6653
   70MOL   H26629384   7.530   2.982   5.674  0.4045 -0.1170 -1.3387
   70MOL   H26729385   7.654   2.859   5.676 -0.4303  1.9317  1.7724
   70MOL   H26829386   7.671   2.993   5.474 -1.1167  0.9929 -0.7299
   70MOL   H26929387   7.509   2.953   5.436  1.0976  1.5490 -0.4658
   70MOL   H27029388   0.018   2.751   5.500 -0.1619 -2.3370 -1.1873
   70MOL   H27129389   7.591   2.713   5.409 -1.3460  0.6003  0.8438
   70MOL   H27229390   0.057   2.701   5.259 -1.2177  0.2142 -1.3536
   70MOL   H27329391   7.671   2.842   5.214  1.5868  1.7442  0.2781
   70MOL   H27429392   0.116   2.865   5.292 -0.5307  2.0634 -2.3802
   70MOL   C27529393   7.328   2.872   5.857 -0.3624  0.0964 -0.1538
   70MOL   C27629394   7.301   2.864   6.010  0.3653 -0.3027 -0.4729
   70MOL   C27729395   7.210   2.740   6.041  0.0131 -0.6398  0.0311
   70MOL   C27829396   7.220   2.693   6.189 -0.8784  0.0979  0.3615
   70MOL   C27929397   7.171   2.553   6.213 -0.0280 -0.4412 -0.3082
   70MOL   C28029398   7.187   2.491   6.355 -0.3151 -0.1786  0.0649
   70MOL   C28129399   7.142   2.348   6.351 -0.8142 -0.6082 -0.3226
   70MOL   H28229400   7.239   2.904   5.802 -0.1436 -0.0164 -0.5810
   70MOL   H28329401   7.402   2.952   5.842  0.0802 -0.1963  0.4411
   70MOL   H28429402   7.393   2.831   6.058 -0.9481 -2.7509  0.4683
   70MOL   H28529403   7.104   2.751   6.019 -0.6995 -0.7285  3.1969
   70MOL   H28629404   7.245   2.652   5.987 -0.4255 -0.7311 -0.0994
   70MOL   H28729405   7.160   2.755   6.256 -0.7884 -0.3978  0.9027
   70MOL   H28829406   7.321   2.700   6.231 -0.6110  2.4212 -0.5612
   70MOL   H28929407   7.230   2.489   6.147 -0.0282 -0.9018  0.1373
   70MOL   H29029408   7.067   2.535   6.188  0.3220 -0.4392 -1.8168
   70MOL   H29129409   7.292   2.498   6.385  0.4158  1.6476 -2.7840
   70MOL   H29229410   7.133   2.536   6.439  0.2560  0.8799 -0.1341
   70MOL   H29329411   7.151   2.288   6.441  1.5291 -0.9307 -0.7407
   70MOL   H29429412   7.166   2.297   6.258 -1.4485  1.4536 -1.6767
   70MOL   H29529413   7.034   2.355   6.337 -0.7688  0.1999 -0.3374
   70MOL   C29629414   7.250   2.996   6.069 -0.0654  0.4191  0.0093
   70MOL   C29729415   7.333   3.045   6.188  0.5043  0.3156 -0.2399
   70MOL   C29829416   7.252   3.156   6.259  0.4968  0.2758 -0.0846
   70MOL   C29929417   7.206   3.279   6.182 -0.7549  0.2900 -0.1237
   70MOL   C30029418   7.179   3.389   6.286 -0.1546  0.0166 -1.1079
   70MOL   C30129419   7.110   3.514   6.221 -0.1745 -0.1953  0.0781
   70MOL   C30229420   7.020   3.589   6.308  0.0815 -0.2426 -0.2314
   70MOL   H30329421   7.246   3.067   5.987  3.1861  1.5598  0.7636
   70MOL   H30429422   7.144   2.990   6.094 -0.0087 -0.5335  0.0547
   70MOL   H30529423   7.331   2.956   6.251  1.4446 -0.9201 -1.9114
   70MOL   H30629424   7.162   3.106   6.295  0.0695  0.3136 -1.0787
   70MOL   H30729425   7.304   3.199   6.344 -0.8463  2.0149 -0.1132
   70MOL   H30829426   7.123   3.254   6.117 -0.8718  3.2660 -1.1590
   70MOL   H30929427   7.286   3.305   6.113 -1.6818  0.3246 -1.1830
   70MOL   H31029428   7.272   3.414   6.337  0.2774 -3.0916 -0.2642
   70MOL   H31129429   7.113   3.359   6.368 -0.0383 -1.7209 -1.6323
   70MOL   H31229430   7.191   3.573   6.179  0.4269 -1.9623 -1.3354
   70MOL   H31329431   7.052   3.476   6.136 -1.1773 -1.6503  1.3835
   70MOL   H31429432   7.084   3.621   6.390 -2.9675  3.4402  0.8687
   70MOL   H31529433   6.994   3.676   6.247  4.2182  1.4590  0.2393
   70MOL   H31629434   6.933   3.533   6.341  0.5677 -0.9298 -0.1089
   70MOL   C31729435   7.481   3.085   6.153  0.4357 -0.3437  0.2724
   70MOL   C31829436   7.588   3.096   6.265  0.2435  0.6441 -0.0056
   70MOL   C31929437   7.677   2.969   6.276  0.0525  0.0864  0.9592
   70MOL   C32029438   7.596   2.830   6.294 -0.1429  0.6273  0.4175
   70MOL   C32129439   7.679   2.700   6.283 -0.2435  0.1976 -0.6130
   70MOL   C32229440   7.587   2.579   6.293  0.3095  0.4917  0.7908
   70MOL   C32329441   7.668   2.454   6.287 -0.7998  0.1011 -0.3301
   70MOL   H32429442   7.465   3.183   6.109 -1.4011 -0.9595 -0.4949
   70MOL   H32529443   7.510   3.019   6.071 -0.5065 -1.6876  0.9954
   70MOL   H32629444   7.551   3.106   6.367  1.4196 -1.1717  0.6372
   70MOL   H32729445   0.016   2.976   6.371  1.6830  0.8289  0.0288
   70MOL   H32829446   0.039   2.962   6.198  0.0067 -0.4858  0.9672
   70MOL   H32929447   7.511   2.821   6.226  0.8069 -0.6255 -0.6264
   70MOL   H33029448   7.544   2.840   6.389 -0.9389  3.8197 -0.3023
   70MOL   H33129449   0.039   2.702   6.363 -0.2212  2.0524 -0.6584
   70MOL   H33229450   0.018   2.689   6.188  0.4010  1.9725 -0.4730
   70MOL   H33329451   7.519   2.581   6.207 -0.3784 -0.3989  1.2992
   70MOL   H33429452   7.521   2.590   6.379  0.3040 -0.2617  0.8820
   70MOL   H33529453   0.028   2.441   6.366  1.9417 -0.7043 -2.9160
   70MOL   H33629454   7.711   2.450   6.187 -0.0946  0.5350 -0.0462
   70MOL   H33729455   7.591   2.377   6.290 -2.8102  2.0182 -1.0599
   70MOL   C33829456   7.677   3.226   6.239  0.5424 -0.3200  0.5364
   70MOL   C33929457   0.105   3.242   6.298  0.2102  0.3406  0.3279
   70MOL   C34029458   0.092   3.280   6.451 -0.8193  0.0118 -0.1409
   70MOL   C34129459   0.208   3.236   6.542 -0.3835  0.6942  0.0180
   70MOL   C34229460   0.201   3.287   6.686 -0.3444  0.2019 -0.7451
   70MOL   C34329461   0.303   3.250   6.796  0.1837 -0.1009  0.4505
   70MOL   C34429462   0.284   3.324   6.934  0.1342 -0.0892  1.1105
   70MOL   H34529463   7.610   3.308   6.264  0.6399  0.3993 -1.4713
   70MOL   H34629464   7.687   3.237   6.131  1.7203 -0.6146  0.6112
   70MOL   H34729465   0.156   3.146   6.288 -0.2520  0.0457  0.7730
   70MOL   H34829466   0.075   3.387   6.466 -0.1292  0.1737 -0.4869
   70MOL   H34929467   7.709   3.242   6.483 -0.5070 -1.5364 -0.9746
   70MOL   H35029468   0.300   3.278   6.502 -0.7859  0.4430 -1.1746
   70MOL   H35129469   0.212   3.127   6.542  2.4254  0.7602  1.0630
   70MOL   H35229470   0.204   3.395   6.669 -0.3456  0.2621 -0.3761
   70MOL   H35329471   0.100   3.264   6.721  0.4632 -0.2752  1.3368
   70MOL   H35429472   0.296   3.142   6.811  0.7739  0.1573  2.9227
   70MOL   H35529473   0.398   3.266   6.745  0.5343 -0.1659  1.0713
   70MOL   H35629474   0.206   3.308   7.009  1.3070  0.1101  2.3918
   70MOL   H35729475   0.275   3.432   6.923  3.0235  0.0520 -0.1395
   70MOL   H35829476   0.373   3.309   6.995 -0.2299 -1.0659  1.4290
   70MOL   C35929477   0.170   3.366   6.224  0.0087 -0.1835  0.3072
   70MOL   C36029478   0.267   3.325   6.110 -0.5546 -0.3161  0.0021
   70MOL   C36129479   0.284   3.448   6.015 -0.0361 -0.2588 -0.4174
   70MOL   C36229480   0.330   3.579   6.083 -0.4522  0.6105  0.3287
   70MOL   C36329481   0.362   3.698   5.990  0.0807 -0.3396 -0.1172
   70MOL   C36429482   0.494   3.690   5.918 -0.0512 -0.5213 -0.6695
   70MOL   C36529483   0.512   3.797   5.816 -0.2927 -0.8088 -0.1381
   70MOL   H36629484   0.211   3.432   6.300  0.4842 -1.0089  0.7810
   70MOL   H36729485   0.090   3.421   6.175 -0.1555  1.6253  2.5556
   70MOL   H36829486   0.221   3.252   6.044 -0.2944 -0.8140  0.3663
   70MOL   H36929487   0.356   3.426   5.936  0.1888 -2.4157  0.3596
   70MOL   H37029488   0.192   3.475   5.964 -1.1329 -0.4594  1.4277
   70MOL   H37129489   0.261   3.620   6.157 -1.5862  1.0380 -0.9459
   70MOL   H37229490   0.419   3.558   6.142 -1.9616 -2.2306  1.7096
   70MOL   H37329491   0.276   3.727   5.930 -0.0330  1.3729  0.8635
   70MOL   H37429492   0.368   3.783   6.058  0.1977 -1.4574  1.2866
   70MOL   H37529493   0.577   3.684   5.988  0.7383 -2.3855 -1.6977
   70MOL   H37629494   0.494   3.597   5.860  0.7208  0.9303 -3.0542
   70MOL   H37729495   0.434   3.816   5.742 -1.5276 -2.3482  0.7514
   70MOL   H37829496   0.531   3.896   5.858 -0.2828  0.4637 -3.0280
   70MOL   H37929497   0.597   3.774   5.753 -0.3599 -1.8617  0.1509
   70MOL   C38029498   0.400   3.264   6.174  0.1394 -0.4549 -0.1854
   70MOL   C38129499   0.506   3.217   6.071 -0.3393  0.3611 -0.2283
   70MOL   C38229500   0.637   3.290   6.098  0.4415 -0.1989  0.3161
   70MOL   C38329501   0.747   3.269   5.999 -1.0736  0.8360  0.7833
   70MOL   C38429502   0.708   3.355   5.871  0.7415 -0.3549 -0.2479
   70MOL   C38529503   0.828   3.400   5.792 -0.9512  0.0059 -0.0537
   70MOL   C38629504   0.944   3.465   5.875 -0.2793 -0.4451 -0.6212
   70MOL   H38729505   0.443   3.347   6.230 -0.9716 -0.4399  0.6719
   70MOL   H38829506   0.370   3.178   6.233 -0.9245  0.9895  1.4424
   70MOL   H38929507   0.464   3.242   5.973  0.7262  0.0888 -0.7639
   70MOL   H39029508   0.666   3.264   6.200 -2.5311  0.4280  1.3568
   70MOL   H39129509   0.620   3.396   6.113  0.5080 -0.1736  0.2205
   70MOL   H39229510   0.840   3.305   6.043 -0.7332  1.1880 -0.1960
   70MOL   H39329511   0.757   3.165   5.969 -0.5649  1.0395  0.2333
   70MOL   H39429512   0.649   3.293   5.803  0.1397  0.4740 -0.4872
   70MOL   H39529513   0.649   3.444   5.890  0.6117 -0.2583 -1.0776
   70MOL   H39629514   0.787   3.479   5.729  1.5477  0.5754 -1.0183
   70MOL   H39729515   0.875   3.317   5.739  1.0670  0.7217  0.5685
   70MOL   H39829516   0.986   3.399   5.952 -0.1128 -0.3336 -0.6161
   70MOL   H39929517   0.931   3.559   5.929  0.0322 -0.0410 -1.2433
   70MOL   H40029518   1.024   3.479   5.803  0.4617  0.5794  0.3984
   70MOL   C40129519   0.532   3.065   6.088 -0.1217  0.6868  0.1872
   70MOL   C40229520   0.423   2.979   6.021 -0.5113  0.5142 -0.4965
   70MOL   C40329521   0.436   2.830   6.051 -0.0179  0.7843  0.0299
   70MOL   C40429522   0.366   2.774   6.181 -0.4724  0.1989 -0.1157
   70MOL   C40529523   0.418   2.639   6.222  0.5710 -0.0315 -0.3797
   70MOL   C40629524   0.361   2.563   6.349 -0.0167  0.2201  0.4897
   70MOL   C40729525   0.447   2.440   6.390 -0.1576  0.5112  0.0457
   70MOL   H40829526   0.546   3.042   6.193 -0.1585  0.2476  0.0956
   70MOL   H40929527   0.627   3.034   6.045 -0.1210  0.9817 -0.0263
   70MOL   H41029528   0.426   2.994   5.913 -0.0675  3.4645 -0.1035
   70MOL   H41129529   0.539   2.799   6.066 -0.7972 -0.8526  2.3405
   70MOL   H41229530   0.393   2.772   5.969  0.0516  1.8438 -0.7637
   70MOL   H41329531   0.257   2.777   6.175 -0.5228  2.2696  1.2329
   70MOL   H41429532   0.379   2.846   6.262  2.7768  0.6460 -0.9900
   70MOL   H41529533   0.427   2.572   6.137  0.9699 -0.3804 -0.0590
   70MOL   H41629534   0.523   2.657   6.244  0.5704  0.0089 -0.4093
   70MOL   H41729535   0.351   2.630   6.434  2.0383  1.5945 -0.3229
   70MOL   H41829536   0.261   2.521   6.331  0.7500 -0.7286 -1.7368
   70MOL   H41929537   0.449   2.366   6.310 -0.4584  1.2867 -0.6903
   70MOL   H42029538   0.418   2.397   6.485  0.7803 -0.2195  0.0074
   70MOL   H42129539   0.550   2.461   6.420 -0.6831  0.0138  2.2413
   70MOL   H42229540   0.322   3.015   6.044  0.1140  2.2069 -0.3819
   71MOL     C129541   2.845   2.641   4.262  0.4325  0.0557 -0.9340
   71MOL     C229542   2.892   2.514   4.188  0.3933  0.1565  0.4007
   71MOL     C329543   2.774   2.455   4.110  0.5164  0.5716 -0.1803
   71MOL     C429544   2.718   2.545   3.997  0.0995 -0.4528 -0.1110
   71MOL     C529545   2.635   2.468   3.894  0.1929  0.7641  0.0729
   71MOL     C629546   2.546   2.556   3.805  0.8303  1.0019 -0.1108
   71MOL     C729547   2.603   2.672   3.726  0.0660  0.9397 -0.2570
   71MOL     H829548   2.832   2.724   4.193  0.4924 -0.3505 -1.4381
   71MOL     H929549   2.918   2.670   4.337 -2.1615  0.6934  1.4054
   71MOL    H1029550   2.961   2.555   4.114 -1.4401  0.4213 -1.2047
   71MOL    H1129551   2.808   2.363   4.064 -0.4481 -0.8057  1.7872
   71MOL    H1229552   2.695   2.433   4.182  0.7438 -2.0982 -0.7057
   71MOL    H1329553   2.660   2.625   4.043 -0.9173 -0.3257 -1.5958
   71MOL    H1429554   2.795   2.592   3.936 -0.3023 -0.3697 -0.5579
   71MOL    H1529555   2.567   2.395   3.938  3.3775 -1.7187  1.0419
   71MOL    H1629556   2.710   2.407   3.844 -0.1900 -0.8940  1.4615
   71MOL    H1729557   2.465   2.592   3.868  0.4010  0.3086 -0.2682
   71MOL    H1829558   2.483   2.492   3.744  0.4559  2.1749 -0.9712
   71MOL    H1929559   2.634   2.757   3.787 -0.4077  0.9817 -0.0772
   71MOL    H2029560   2.526   2.708   3.659 -0.5749 -3.2174 -1.8907
   71MOL    H2129561   2.686   2.643   3.662 -1.9360 -3.6087 -0.9610
   71MOL    H2229562   2.752   2.624   4.315 -0.3158 -0.7708 -2.4651
   71MOL    C2329563   2.965   2.411   4.275  0.6790 -0.1927 -0.1685
   71MOL    C2429564   3.050   2.314   4.189 -0.4504 -0.9407 -0.4623
   71MOL    C2529565   3.028   2.167   4.242  0.4171  0.7879 -0.2752
   71MOL    C2629566   3.058   2.057   4.138 -0.2648  0.1351 -0.0802
   71MOL    C2729567   3.049   1.915   4.197  0.0384 -0.1446  0.0313
   71MOL    C2829568   3.036   1.800   4.087  0.4666 -0.8894  0.5310
   71MOL    C2929569   3.012   1.671   4.164 -0.1916  0.6558  0.6243
   71MOL    H3029570   3.032   2.471   4.338  1.1753 -1.0116  0.0830
   71MOL    H3129571   2.895   2.370   4.348 -0.8110  2.7234  0.1140
   71MOL    H3229572   3.015   2.314   4.086 -0.9412  0.1750 -0.2976
   71MOL    H3329573   2.921   2.153   4.259  0.7772 -2.3541 -0.2195
   71MOL    H3429574   3.074   2.151   4.339 -0.8419  3.2000  0.7619
   71MOL    H3529575   3.154   2.086   4.096 -0.9730  2.1648 -0.3304
   71MOL    H3629576   2.988   2.069   4.055 -0.2992 -1.0445 -0.2386
   71MOL    H3729577   2.965   1.911   4.266  0.1530  0.4324  0.2008
   71MOL    H3829578   3.131   1.905   4.269  0.5690  0.1047 -0.5381
   71MOL    H3929579   3.124   1.800   4.023  0.9963 -0.9690  1.2482
   71MOL    H4029580   2.948   1.815   4.024  0.8381  1.1994  0.4791
   71MOL    H4129581   3.083   1.639   4.240  0.3427 -0.7132 -0.4209
   71MOL    H4229582   2.918   1.684   4.217 -0.7850 -2.4684  0.4421
   71MOL    H4329583   2.999   1.582   4.102  1.2857  0.5709  0.4194
   71MOL    C4429584   3.203   2.355   4.198 -0.6132 -0.5898 -0.0272
   71MOL    C4529585   3.246   2.499   4.153 -0.3242  0.1307  0.2201
   71MOL    C4629586   3.383   2.532   4.216 -0.0011 -0.9161 -0.4462
   71MOL    C4729587   3.375   2.559   4.368  0.6385  0.1745  0.5914
   71MOL    C4829588   3.458   2.676   4.417 -0.9915  0.0906 -0.5172
   71MOL    C4929589   3.426   2.724   4.564  0.4673 -0.4301  0.2080
   71MOL    C5029590   3.542   2.830   4.605 -0.3521 -0.1374 -0.3792
   71MOL    H5129591   3.266   2.283   4.145 -1.9817 -0.6767 -1.5718
   71MOL    H5229592   3.240   2.345   4.300  0.0344 -3.3906 -0.5060
   71MOL    H5329593   3.183   2.573   4.202  1.7743  2.2496 -0.1854
   71MOL    H5429594   3.434   2.617   4.168 -0.2119 -1.5087 -1.7404
   71MOL    H5529595   3.442   2.442   4.199  2.3113  0.3258  0.7366
   71MOL    H5629596   3.270   2.567   4.398  0.4821 -0.1401  0.1302
   71MOL    H5729597   3.413   2.471   4.420  0.9090  0.1022  0.2685
   71MOL    H5829598   3.425   2.757   4.351 -0.3996  0.2911 -0.5704
   71MOL    H5929599   3.566   2.666   4.406 -0.9106  1.4119 -1.0183
   71MOL    H6029600   3.422   2.650   4.644 -2.4295  0.8272  1.2997
   71MOL    H6129601   3.324   2.761   4.571  0.3316 -0.8143  0.2245
   71MOL    H6229602   3.540   2.844   4.713 -1.7764 -1.3373 -0.2254
   71MOL    H6329603   3.525   2.927   4.558 -0.4756  1.0586  2.0374
   71MOL    H6429604   3.637   2.791   4.569 -1.0293 -1.5664 -0.6492
   71MOL    C6529605   3.250   2.510   3.998  0.6276  0.1961  1.6714
   71MOL    C6629606   3.269   2.650   3.940  0.1988 -0.6933 -0.3724
   71MOL    C6729607   3.148   2.748   3.971 -0.6393 -0.5828  0.0991
   71MOL    C6829608   3.178   2.902   3.977 -0.0192 -0.4853  0.5342
   71MOL    C6929609   3.057   2.989   4.008  0.0252  0.1771 -0.5019
   71MOL    C7029610   3.064   3.138   3.956 -0.7389 -0.0672  0.0074
   71MOL    C7129611   2.950   3.226   4.022 -0.0368  0.3473  0.3531
   71MOL    H7229612   3.315   2.436   3.952 -1.0235 -0.0837 -0.3348
   71MOL    H7329613   3.157   2.458   3.972  1.4476 -0.4815  0.0328
   71MOL    H7429614   3.358   2.701   3.974 -0.6290  1.0854 -0.8187
   71MOL    H7529615   3.070   2.728   3.897  1.2690 -0.6555 -1.9458
   71MOL    H7629616   3.100   2.731   4.068 -0.4531  2.4423  0.7746
   71MOL    H7729617   3.239   2.905   4.068 -1.0594 -0.0914  1.2228
   71MOL    H7829618   3.231   2.940   3.890  2.0477 -1.3339  1.3864
   71MOL    H7929619   2.957   2.955   3.982  0.4883 -1.3769 -0.3010
   71MOL    H8029620   3.067   2.995   4.117  0.0035  0.3411 -0.5097
   71MOL    H8129621   3.040   3.129   3.850 -0.9267 -1.4415  0.1459
   71MOL    H8229622   3.165   3.179   3.952 -0.5807 -0.4688 -0.1454
   71MOL    H8329623   2.977   3.324   3.982 -0.4555  0.2959 -0.0631
   71MOL    H8429624   2.852   3.189   3.989  0.0398  0.7575 -0.3366
   71MOL    H8529625   2.954   3.234   4.131 -0.0786  0.3134  0.3576
   71MOL    C8629626   3.280   2.638   3.783 -0.4208  0.2071 -0.3759
   71MOL    C8729627   3.411   2.573   3.728  0.2467  0.0446 -0.0172
   71MOL    C8829628   3.375   2.536   3.579 -0.3784  0.2570  0.3043
   71MOL    C8929629   3.303   2.396   3.569 -0.6479 -0.4362 -0.1969
   71MOL    C9029630   3.376   2.271   3.639 -0.1885  0.2060  0.4245
   71MOL    C9129631   3.513   2.235   3.586 -0.1550  0.2950 -0.2863
   71MOL    C9229632   3.560   2.090   3.625 -0.3057  0.5476  0.2728
   71MOL    H9329633   3.193   2.585   3.745 -1.0105  0.5730  0.4555
   71MOL    H9429634   3.278   2.737   3.738  0.7372  0.9945  1.2547
   71MOL    H9529635   3.428   2.482   3.786  1.5298 -1.8493 -3.2242
   71MOL    H9629636   3.306   2.604   3.528 -1.2673 -1.7644 -1.2396
   71MOL    H9729637   3.462   2.537   3.514 -0.4711 -0.1223  0.1726
   71MOL    H9829638   3.206   2.397   3.618 -1.2071 -0.8092 -1.2680
   71MOL    H9929639   3.273   2.380   3.465  1.6260  0.7435 -1.0795
   71MOL   H10029640   3.309   2.185   3.647 -0.7877  0.5497 -0.8175
   71MOL   H10129641   3.391   2.277   3.747 -2.3161 -0.1933  0.7570
   71MOL   H10229642   3.498   2.241   3.478 -0.9856 -2.0423 -0.3520
   71MOL   H10329643   3.593   2.306   3.605  0.7279 -0.8485  0.3547
   71MOL   H10429644   3.664   2.092   3.595 -0.1643  1.3275  0.7824
   71MOL   H10529645   3.510   2.029   3.549 -2.9006  1.0409  1.5051
   71MOL   H10629646   3.529   2.059   3.725 -0.7032  1.1316  0.3333
   71MOL   C10729647   3.535   2.666   3.739  0.2272 -0.5925 -0.8299
   71MOL   C10829648   3.658   2.586   3.781 -0.3682  0.2443  0.0324
   71MOL   C10929649   3.785   2.651   3.730 -0.2056 -0.5788  0.1226
   71MOL   C11029650   3.820   2.627   3.579  0.0955 -0.0972  0.7274
   71MOL   C11129651   3.892   2.491   3.545  0.3724 -0.2132  0.1077
   71MOL   C11229652   4.023   2.470   3.619 -0.4019  0.0664  0.0762
   71MOL   C11329653   4.110   2.356   3.559 -0.4991 -0.1554  0.4560
   71MOL   H11429654   3.513   2.742   3.815 -1.7389 -1.2980 -0.6479
   71MOL   H11529655   3.564   2.709   3.644 -1.7580 -0.9035 -1.6004
   71MOL   H11629656   3.651   2.484   3.742  1.7240 -0.7753  2.1801
   71MOL   H11729657   3.873   2.624   3.789  1.1985 -0.1115 -1.6798
   71MOL   H11829658   3.778   2.755   3.761 -4.0765 -0.6325 -0.3634
   71MOL   H11929659   3.727   2.635   3.522  1.1383 -1.2530 -1.1684
   71MOL   H12029660   3.882   2.709   3.544 -0.3972  0.3873  0.9751
   71MOL   H12129661   3.915   2.480   3.439  1.6252 -1.4556  0.4905
   71MOL   H12229662   3.829   2.404   3.566  2.4287 -1.3541  1.7617
   71MOL   H12329663   4.079   2.562   3.605  0.4856 -0.3370  0.9131
   71MOL   H12429664   4.019   2.461   3.727  1.3207 -0.9319  0.0778
   71MOL   H12529665   4.133   2.371   3.454 -3.2279 -0.6892 -0.2662
   71MOL   H12629666   4.203   2.346   3.615 -0.9798 -2.4382  0.9126
   71MOL   H12729667   4.070   2.255   3.560 -0.1148 -0.3145 -0.2208
   71MOL   C12829668   3.669   2.582   3.935  0.2084 -0.2943 -0.0133
   71MOL   C12929669   3.747   2.458   3.998 -0.3489  0.3596  0.6368
   71MOL   C13029670   3.661   2.330   4.003 -0.3176  0.2775 -0.6101
   71MOL   C13129671   3.737   2.195   4.003 -0.5779  0.1602  0.3644
   71MOL   C13229672   3.660   2.077   4.053  0.2045 -0.3800 -0.2202
   71MOL   C13329673   3.636   2.075   4.211  0.4171  0.4142  0.3903
   71MOL   C13429674   3.756   2.064   4.301  0.1281  0.2133 -0.3782
   71MOL   H13529675   3.683   2.681   3.978 -0.6542  0.2994 -1.0557
   71MOL   H13629676   3.569   2.561   3.973  1.3001 -1.1924  2.4567
   71MOL   H13729677   3.832   2.443   3.932 -0.4479  2.7628 -0.1059
   71MOL   H13829678   3.580   2.342   3.931 -0.6134  0.9329 -0.1726
   71MOL   H13929679   3.616   2.343   4.101  1.5400 -1.4903  0.5226
   71MOL   H14029680   3.835   2.202   4.050 -0.2665  1.3789 -0.4278
   71MOL   H14129681   3.756   2.183   3.896  3.3479 -0.1649  1.0062
   71MOL   H14229682   3.711   1.986   4.020 -1.2137 -1.7783  1.3141
   71MOL   H14329683   3.567   2.066   3.996 -0.6168 -0.1392  1.0514
   71MOL   H14429684   3.564   2.003   4.250 -0.2755  1.0766  0.3463
   71MOL   H14529685   3.574   2.163   4.225  0.9161  1.1047 -1.5879
   71MOL   H14629686   3.715   2.097   4.397  0.9774  0.5158 -0.1134
   71MOL   H14729687   3.841   2.126   4.271 -0.9230  0.2780 -3.3116
   71MOL   H14829688   3.775   1.957   4.309 -0.8588  0.1463  1.2593
   71MOL   C14929689   3.816   2.493   4.129 -0.0668 -0.1150  0.0600
   71MOL   C15029690   3.935   2.589   4.133  0.1560 -0.1240  0.4980
   71MOL   C15129691   4.061   2.528   4.066  0.1104  0.0735 -0.5858
   71MOL   C15229692   4.167   2.625   4.005 -0.0281  0.0367 -0.6790
   71MOL   C15329693   4.289   2.559   3.931  0.1400  0.1111  0.3363
   71MOL   C15429694   4.376   2.662   3.864 -0.6103 -0.3214  0.2813
   71MOL   C15529695   4.475   2.601   3.765  0.0679  0.7132  0.7534
   71MOL   H15629696   3.740   2.531   4.198  1.1141 -0.3696  1.5198
   71MOL   H15729697   3.856   2.397   4.160  0.9587  0.6803  1.2297
   71MOL   H15829698   3.905   2.665   4.062  0.8798 -1.3758 -1.1928
   71MOL   H15929699   4.105   2.457   4.135  1.4552 -0.7341 -2.2242
   71MOL   H16029700   4.028   2.470   3.979 -0.1909 -1.8929  0.8207
   71MOL   H16129701   4.215   2.689   4.079 -1.6980  0.0502  0.4239
   71MOL   H16229702   4.113   2.688   3.935  0.7049 -0.7460 -1.9621
   71MOL   H16329703   4.259   2.487   3.855  0.6073  0.4763 -0.2012
   71MOL   H16429704   4.343   2.499   4.003 -1.7132  0.3201  1.9359
   71MOL   H16529705   4.430   2.713   3.944 -1.3529 -1.2504  1.3864
   71MOL   H16629706   4.308   2.725   3.808 -0.3889  0.0836  0.4642
   71MOL   H16729707   4.549   2.678   3.745 -1.2662  2.0789  1.0149
   71MOL   H16829708   4.440   2.576   3.665 -0.7757  0.2253  1.1621
   71MOL   H16929709   4.530   2.513   3.798  2.2476  0.6370 -2.8222
   71MOL   C17029710   3.962   2.661   4.268  0.2285  0.8325 -0.6170
   71MOL   C17129711   3.992   2.816   4.277  0.1319 -0.5660 -0.4046
   71MOL   C17229712   3.857   2.882   4.310  0.6713 -0.2124 -0.0300
   71MOL   C17329713   3.742   2.874   4.201  0.6481 -0.1458  0.1030
   71MOL   C17429714   3.627   2.975   4.234 -0.1747  0.6203  0.4264
   71MOL   C17529715   3.535   2.987   4.114 -0.7797 -0.5109  0.0062
   71MOL   C17629716   3.427   3.082   4.145  0.4161  0.0882 -0.4678
   71MOL   H17729717   4.038   2.602   4.321  0.5185  0.6664 -1.2115
   71MOL   H17829718   3.877   2.647   4.335 -1.4795  0.6896 -2.7629
   71MOL   H17929719   4.035   2.849   4.182  1.6325 -1.5900 -0.0988
   71MOL   H18029720   3.874   2.988   4.333 -2.6419  0.3295  0.1256
   71MOL   H18129721   3.811   2.838   4.399 -2.1689  1.4392 -0.6311
   71MOL   H18229722   3.705   2.772   4.191 -2.3093  0.6908  1.5746
   71MOL   H18329723   3.782   2.895   4.102 -1.2718  1.4881 -0.3794
   71MOL   H18429724   3.669   3.075   4.240 -2.3358  1.5816  0.2602
   71MOL   H18529725   3.583   2.952   4.331  2.6593 -0.3001  1.5216
   71MOL   H18629726   3.502   2.886   4.091 -0.5998 -1.3647  3.2661
   71MOL   H18729727   3.590   3.024   4.027  0.3253  1.6888  1.5767
   71MOL   H18829728   3.379   3.099   4.049 -3.9286  1.4508  1.8171
   71MOL   H18929729   3.464   3.180   4.175 -2.0937  1.3250 -1.2679
   71MOL   H19029730   3.362   3.022   4.208 -0.8365  1.3837 -0.5024
   71MOL   C19129731   4.101   2.837   4.382 -0.5290 -0.6762 -0.0933
   71MOL   C19229732   4.143   2.980   4.426 -0.2501  0.0714  0.0924
   71MOL   C19329733   4.135   2.996   4.573  0.4747  0.5123 -0.3535
   71MOL   C19429734   3.985   2.998   4.629  0.5219 -0.4165 -0.1015
   71MOL   C19529735   3.975   3.041   4.771 -1.2028 -0.4540  0.6038
   71MOL   C19629736   3.838   3.092   4.808  0.1552 -0.1946 -0.7898
   71MOL   C19729737   3.840   3.141   4.955 -0.1676  0.3573  0.1455
   71MOL   H19829738   4.189   2.786   4.345  0.9548  1.7368 -0.0268
   71MOL   H19929739   4.074   2.782   4.471  0.3796 -0.8453  0.0792
   71MOL   H20029740   4.074   3.058   4.395  0.0272  0.1916 -0.2312
   71MOL   H20129741   4.177   3.093   4.598 -1.6513  1.1707  0.7579
   71MOL   H20229742   4.203   2.916   4.605  0.4615  0.3015 -0.8558
   71MOL   H20329743   3.953   2.894   4.632  2.2900 -0.9396  1.9107
   71MOL   H20429744   3.919   3.063   4.573  0.8984  2.2960  2.5207
   71MOL   H20529745   4.010   2.957   4.831 -0.2748  0.7919  1.8607
   71MOL   H20629746   4.043   3.124   4.792 -1.7056  0.3796 -0.9761
   71MOL   H20729747   3.757   3.019   4.804  1.2439 -1.4204 -0.7383
   71MOL   H20829748   3.821   3.174   4.738 -0.1089  2.0030  1.7608
   71MOL   H20929749   3.850   3.057   5.025 -0.9181  1.2071  1.2979
   71MOL   H21029750   3.740   3.183   4.972 -1.4748 -2.5714  0.0844
   71MOL   H21129751   3.922   3.211   4.968 -1.7266  2.4814 -1.1438
   71MOL   C21229752   4.279   3.020   4.377 -0.0913  0.5482 -0.4024
   71MOL   C21329753   4.317   3.008   4.218  0.4476  0.6177 -0.6977
   71MOL   C21429754   4.213   3.090   4.135 -0.0314  0.3681 -0.8239
   71MOL   C21529755   4.200   3.041   3.991  0.9295 -0.0025 -0.3978
   71MOL   C21629756   4.076   3.108   3.929  0.0867  0.2566  0.3138
   71MOL   C21729757   4.054   3.093   3.782 -0.4268  0.4740 -0.2801
   71MOL   C21829758   4.005   2.955   3.724  0.4725 -0.0482 -0.6362
   71MOL   H21929759   4.357   2.959   4.421 -1.5208 -1.3921 -0.4613
   71MOL   H22029760   4.297   3.123   4.406  0.8198 -0.1186  1.4611
   71MOL   H22129761   4.302   2.905   4.187  1.1430  0.6881 -1.2851
   71MOL   H22229762   4.117   3.097   4.187  1.7793  3.7544  2.3830
   71MOL   H22329763   4.238   3.196   4.136  0.2101  0.3110 -0.6596
   71MOL   H22429764   4.173   2.936   3.999 -0.1219  0.0955 -2.3085
   71MOL   H22529765   4.295   3.036   3.937  1.4469  0.5773  0.4412
   71MOL   H22629766   3.990   3.066   3.981  1.0740 -1.1567  0.8234
   71MOL   H22729767   4.079   3.214   3.955 -1.0947  0.1566  0.8754
   71MOL   H22829768   3.976   3.157   3.740  1.6018  1.1921 -3.0420
   71MOL   H22929769   4.145   3.125   3.732  0.0412  1.9268  1.4637
   71MOL   H23029770   3.981   2.965   3.618 -0.3080  1.4231 -0.3359
   71MOL   H23129771   3.904   2.927   3.756 -0.1947  1.2092 -1.5933
   71MOL   H23229772   4.080   2.878   3.739  1.5881  1.5288  2.1602
   71MOL   C23329773   4.466   3.045   4.186  0.0809  0.3972  0.1241
   71MOL   C23429774   4.586   2.975   4.247  0.0030  0.1457 -0.1279
   71MOL   C23529775   4.582   2.818   4.218 -0.5763 -0.9974 -0.0901
   71MOL   C23629776   4.678   2.737   4.300 -0.5578 -0.3791 -0.1956
   71MOL   C23729777   4.635   2.722   4.447  0.5517  0.1831 -1.0389
   71MOL   C23829778   4.742   2.674   4.545 -0.5840  1.0296  0.4967
   71MOL   C23929779   4.670   2.586   4.643 -0.6393  0.0226 -0.4343
   71MOL   H24029780   4.472   3.150   4.217 -1.7239  0.3189  0.8433
   71MOL   H24129781   4.468   3.050   4.077  1.5276 -1.6514  0.0458
   71MOL   H24229782   4.574   2.991   4.354 -0.3141  0.2515 -0.1789
   71MOL   H24329783   4.608   2.804   4.113 -1.8410  2.8318 -0.9923
   71MOL   H24429784   4.477   2.790   4.214 -1.1191  1.1483 -2.3756
   71MOL   H24529785   4.774   2.786   4.285 -2.1050  2.1676 -2.1580
   71MOL   H24629786   4.717   2.644   4.257  0.3362 -1.1658  2.2097
   71MOL   H24729787   4.551   2.653   4.443  0.9924 -0.4424  0.2211
   71MOL   H24829788   4.592   2.812   4.492 -1.2720 -2.7085  3.3955
   71MOL   H24929789   4.818   2.622   4.487 -2.0768  0.5158 -1.0391
   71MOL   H25029790   4.789   2.761   4.590  2.3412 -0.2076 -0.0816
   71MOL   H25129791   4.614   2.656   4.705 -0.4156  0.4492 -0.7057
   71MOL   H25229792   4.601   2.516   4.597  0.3358 -1.0867 -0.2448
   71MOL   H25329793   4.743   2.531   4.703 -1.7237 -1.0468 -0.0806
   71MOL   C25429794   4.721   3.049   4.204 -0.0938 -0.1961  0.1102
   71MOL   C25529795   4.779   3.024   4.064 -0.1015 -0.1910  0.4241
   71MOL   C25629796   4.910   3.103   4.045  0.0970  0.2864  0.4849
   71MOL   C25729797   4.899   3.253   4.047 -1.1801 -0.3102  0.7207
   71MOL   C25829798   5.022   3.321   3.975 -0.3438  0.2414 -0.3573
   71MOL   C25929799   5.061   3.466   4.016  0.7458 -0.3291  0.3075
   71MOL   C26029800   5.170   3.527   3.926 -0.4606 -0.6630 -0.4228
   71MOL   H26129801   4.798   3.024   4.276 -0.2806  0.7177  0.6371
   71MOL   H26229802   4.716   3.156   4.224  2.9474 -0.2076  1.2017
   71MOL   H26329803   4.821   2.923   4.052  0.7851  0.2198 -0.0238
   71MOL   H26429804   4.956   3.071   3.951 -2.0943  0.1343 -0.5815
   71MOL   H26529805   4.980   3.067   4.120  1.0614 -1.7002 -1.3319
   71MOL   H26629806   4.813   3.283   3.987  1.1920 -0.0596 -2.7447
   71MOL   H26729807   4.877   3.299   4.143  1.8359  2.0375  0.3937
   71MOL   H26829808   5.012   3.300   3.868  0.6706 -0.5280 -0.3043
   71MOL   H26929809   5.104   3.252   3.993 -1.6129 -1.5777 -1.3041
   71MOL   H27029810   4.969   3.523   4.003  0.8557  0.0467  1.1826
   71MOL   H27129811   5.089   3.474   4.121  0.3540  0.0524  0.3842
   71MOL   H27229812   5.137   3.532   3.822  1.4594 -4.4557 -1.3131
   71MOL   H27329813   5.207   3.621   3.967 -0.1922 -0.9922  0.0902
   71MOL   H27429814   5.253   3.457   3.932  0.2750  0.1440 -1.0087
   71MOL   C27529815   4.686   3.060   3.943 -0.1265  0.2500 -0.1589
   71MOL   C27629816   4.736   3.079   3.798 -0.4435 -0.6913 -0.0045
   71MOL   C27729817   4.627   3.131   3.701 -0.7597 -0.1655  0.1782
   71MOL   C27829818   4.593   3.277   3.715  0.2827  0.4827  0.6098
   71MOL   C27929819   4.702   3.380   3.686 -0.1763  0.0236 -0.4801
   71MOL   C28029820   4.675   3.521   3.736  0.2264 -0.0511  0.1326
   71MOL   C28129821   4.799   3.608   3.703  0.0614 -0.0880 -0.6562
   71MOL   H28229822   4.627   3.143   3.982 -2.1359 -2.1783  2.1782
   71MOL   H28329823   4.622   2.972   3.949  0.2938  0.0952  3.5564
   71MOL   H28429824   4.820   3.148   3.795 -1.0791  0.2455  2.1707
   71MOL   H28529825   4.663   3.110   3.601 -0.7242  2.1172 -0.3136
   71MOL   H28629826   4.540   3.070   3.725 -1.1705 -0.3891 -1.8367
   71MOL   H28729827   4.544   3.295   3.811 -0.0736  0.7157  0.3844
   71MOL   H28829828   4.508   3.296   3.650  0.8954  1.7500  0.1692
   71MOL   H28929829   4.718   3.382   3.578  0.2308  0.5733 -0.4103
   71MOL   H29029830   4.796   3.347   3.731 -0.3199  0.7431  0.3502
   71MOL   H29129831   4.578   3.558   3.704 -0.5864 -1.3731  1.0000
   71MOL   H29229832   4.685   3.522   3.844  1.0395 -0.8150  0.0816
   71MOL   H29329833   4.813   3.704   3.753 -0.9135  0.3233 -1.1720
   71MOL   H29429834   4.812   3.619   3.596 -1.8401 -0.0120 -0.8953
   71MOL   H29529835   4.893   3.557   3.724  0.0637 -0.0616 -0.6032
   71MOL   C29629836   4.788   2.940   3.745  0.2511  0.0136  0.2361
   71MOL   C29729837   4.870   2.935   3.610  0.1039  0.2257 -0.4696
   71MOL   C29829838   4.824   2.821   3.518 -0.9985 -0.1599  0.5645
   71MOL   C29929839   4.693   2.853   3.449  0.1523 -0.0066  0.2503
   71MOL   C30029840   4.615   2.726   3.409  0.0542 -0.8933  0.5421
   71MOL   C30129841   4.480   2.757   3.339 -0.6199 -0.0411  0.1834
   71MOL   C30229842   4.382   2.841   3.426  0.5040 -0.2178  0.5854
   71MOL   H30329843   4.851   2.892   3.820  1.9001  0.2575 -0.9655
   71MOL   H30429844   4.698   2.881   3.729  1.5739 -1.8583 -0.5238
   71MOL   H30529845   4.852   3.030   3.559 -0.3032  1.5673  2.0761
   71MOL   H30629846   4.899   2.814   3.439 -1.0527  4.8487 -0.0756
   71MOL   H30729847   4.822   2.734   3.584  0.9517 -0.5730  0.0974
   71MOL   H30829848   4.698   2.918   3.362 -0.3454 -3.9085 -2.8487
   71MOL   H30929849   4.621   2.899   3.518 -0.0925 -0.0824  0.0459
   71MOL   H31029850   4.589   2.658   3.490  0.4169  1.3534  2.6364
   71MOL   H31129851   4.657   2.674   3.324  0.4911  1.5316 -0.7850
   71MOL   H31229852   4.494   2.815   3.248 -2.3204 -1.4610 -1.0183
   71MOL   H31329853   4.438   2.658   3.320  1.7215 -1.0119 -0.2263
   71MOL   H31429854   4.423   2.941   3.441 -3.3404  1.4309  0.7741
   71MOL   H31529855   4.294   2.868   3.367  0.6540  2.3798  1.4498
   71MOL   H31629856   4.358   2.803   3.525 -0.8173 -0.1825  0.2867
   71MOL   C31729857   5.025   2.918   3.627  0.2075  0.4432 -0.2543
   71MOL   C31829858   5.106   2.965   3.497 -0.1843  0.2985 -0.1315
   71MOL   C31929859   5.113   3.117   3.495  0.7085 -0.5555  0.1696
   71MOL   C32029860   5.193   3.197   3.599  0.5524 -0.9150 -0.1644
   71MOL   C32129861   5.220   3.334   3.552  0.0004 -0.3123 -0.6270
   71MOL   C32229862   5.099   3.419   3.536 -0.0903  1.0701 -0.8285
   71MOL   C32329863   5.121   3.565   3.521 -0.4789  0.2759 -0.3718
   71MOL   H32429864   5.054   2.822   3.671 -0.4311  0.0652 -0.6471
   71MOL   H32529865   5.044   2.989   3.707 -1.0487 -0.9665  1.3507
   71MOL   H32629866   5.045   2.942   3.409 -0.8997 -1.4923  0.8121
   71MOL   H32729867   5.018   3.171   3.485  0.5600 -0.8059  0.2132
   71MOL   H32829868   5.154   3.148   3.399 -0.7535 -0.7608 -0.5452
   71MOL   H32929869   5.283   3.140   3.618 -0.2733 -1.6879  1.5572
   71MOL   H33029870   5.127   3.196   3.685 -0.6519 -1.2479 -1.0692
   71MOL   H33129871   5.291   3.344   3.470  1.2410  3.4872  0.8054
   71MOL   H33229872   5.288   3.380   3.623 -2.8940  1.6572  0.9840
   71MOL   H33329873   5.038   3.407   3.625  1.7987  2.2278  0.6575
   71MOL   H33429874   5.043   3.381   3.450  0.1980  0.5358 -0.7824
   71MOL   H33529875   5.179   3.607   3.603 -0.5165  1.4692 -0.9575
   71MOL   H33629876   5.026   3.616   3.507 -1.0180 -0.4672  0.4634
   71MOL   H33729877   5.178   3.584   3.430 -1.6066 -0.1944 -1.1871
   71MOL   C33829878   5.250   2.901   3.483  0.6380  0.2730 -0.0308
   71MOL   C33929879   5.257   2.753   3.433  0.2658 -1.0164 -1.0937
   71MOL   C34029880   5.402   2.706   3.430  0.3162  1.1595 -0.8464
   71MOL   C34129881   5.479   2.755   3.313  0.8142 -0.0058 -0.0720
   71MOL   C34229882   5.603   2.673   3.295 -0.7474  0.3516 -0.8028
   71MOL   C34329883   5.668   2.706   3.158  0.4206 -0.0531 -0.2572
   71MOL   C34429884   5.794   2.619   3.122  0.3487 -0.1244 -0.2237
   71MOL   H34529885   5.295   2.910   3.582 -0.1898 -0.6261  0.4398
   71MOL   H34629886   5.302   2.963   3.410  0.1952 -0.4728 -0.9915
   71MOL   H34729887   5.207   2.716   3.523  0.8906  1.3271  0.2690
   71MOL   H34829888   5.454   2.744   3.518  2.3500 -1.1464 -1.0052
   71MOL   H34929889   5.403   2.598   3.445 -0.3846  0.8177 -3.1787
   71MOL   H35029890   5.501   2.862   3.320 -1.8348  0.5720  0.2292
   71MOL   H35129891   5.417   2.742   3.224 -0.8687  0.3960  1.0088
   71MOL   H35229892   5.664   2.717   3.373 -1.9601 -1.2956  1.1433
   71MOL   H35329893   5.587   2.566   3.307  0.4551  0.1668 -0.8771
   71MOL   H35429894   5.593   2.697   3.079 -0.7695 -0.4746  0.8897
   71MOL   H35529895   5.701   2.810   3.154 -3.2494  1.1786 -0.3185
   71MOL   H35629896   5.877   2.652   3.183  1.2137 -0.8329 -0.9875
   71MOL   H35729897   5.820   2.623   3.016 -0.9349 -0.3426 -0.5547
   71MOL   H35829898   5.788   2.516   3.157  1.7860 -0.0722  0.1823
   71MOL   C35929899   5.173   2.713   3.315  0.5119 -0.5521  0.5848
   71MOL   C36029900   5.171   2.555   3.293 -0.6399 -0.2908  0.4070
   71MOL   C36129901   5.129   2.473   3.402 -0.0744 -0.5610  0.3654
   71MOL   C36229902   4.995   2.482   3.467 -0.1939 -0.1687  0.5181
   71MOL   C36329903   4.978   2.360   3.564 -0.8193  0.1789 -0.2199
   71MOL   C36429904   4.850   2.373   3.651  0.5819 -0.0821  0.3665
   71MOL   C36529905   4.816   2.242   3.729 -0.3966  0.6952 -0.9343
   71MOL   H36629906   5.215   2.753   3.223  1.0924 -3.6800 -0.5847
   71MOL   H36729907   5.072   2.749   3.332  0.5343 -0.3398  0.2664
   71MOL   H36829908   5.275   2.524   3.288 -1.2043 -2.1379 -0.3464
   71MOL   H36929909   5.141   2.368   3.373 -0.3392 -0.4566 -0.1101
   71MOL   H37029910   5.204   2.484   3.480  0.3153  0.6853 -0.1789
   71MOL   H37129911   4.970   2.583   3.499  0.2135  0.3975 -0.9341
   71MOL   H37229912   4.921   2.466   3.389 -1.0243  0.7264  1.1023
   71MOL   H37329913   4.967   2.268   3.507  1.8439  0.0398 -0.5327
   71MOL   H37429914   5.063   2.345   3.630 -1.7941  1.8866  1.5040
   71MOL   H37529915   4.865   2.459   3.716  0.2983 -0.9323  1.5609
   71MOL   H37629916   4.774   2.404   3.579 -0.0687  1.0698  1.5284
   71MOL   H37729917   4.812   2.149   3.672 -1.2356 -0.2202  0.6117
   71MOL   H37829918   4.867   2.227   3.824 -2.8577 -1.6013  0.0716
   71MOL   H37929919   4.714   2.261   3.760 -0.0903  0.5253  0.1767
   71MOL   C38029920   5.110   2.507   3.162 -0.3703  0.2990  0.2069
   71MOL   C38129921   5.178   2.552   3.032 -1.0451 -0.1293  0.0846
   71MOL   C38229922   5.324   2.494   3.019  0.1822  0.2170  0.3159
   71MOL   C38329923   5.343   2.340   3.013  0.1526 -0.7665  1.2705
   71MOL   C38429924   5.489   2.280   3.015 -0.6846  0.7046  0.0989
   71MOL   C38529925   5.501   2.132   3.047 -0.8481 -0.6139 -0.2300
   71MOL   C38629926   5.642   2.068   3.030  0.4272 -0.3433  0.8912
   71MOL   H38729927   5.116   2.398   3.164 -0.0365  0.3028 -0.7658
   71MOL   H38829928   5.002   2.523   3.159 -0.6832 -1.6618  0.1664
   71MOL   H38929929   5.199   2.659   3.032 -2.8945  0.2966  4.0259
   71MOL   H39029930   5.376   2.532   3.106 -0.5504 -0.5423  1.0984
   71MOL   H39129931   5.366   2.532   2.926 -0.0462  0.2458  0.2231
   71MOL   H39229932   5.280   2.294   3.090 -0.9664  0.0979  0.8773
   71MOL   H39329933   5.298   2.298   2.923 -1.0377 -0.0027  1.5032
   71MOL   H39429934   5.535   2.297   2.918  0.6417 -0.0315  0.5820
   71MOL   H39529935   5.542   2.348   3.082 -1.0326  0.4972  0.5869
   71MOL   H39629936   5.447   2.075   2.971 -0.4173  0.6264 -1.4889
   71MOL   H39729937   5.460   2.108   3.145 -1.9129 -1.7994 -0.9488
   71MOL   H39829938   5.644   1.962   3.057 -0.3008 -1.1263 -2.0102
   71MOL   H39929939   5.717   2.122   3.088  1.7459 -0.8178 -0.3222
   71MOL   H40029940   5.683   2.069   2.929  0.0445  1.4041  0.7516
   71MOL   C40129941   5.090   2.506   2.909  0.3897  0.0504  0.2794
   71MOL   C40229942   5.137   2.564   2.776 -0.0934 -0.3640  0.7202
   71MOL   C40329943   5.025   2.549   2.669 -0.1354 -0.0912 -0.3131
   71MOL   C40429944   5.061   2.589   2.524  0.6554  0.4107 -0.4881
   71MOL   C40529945   4.941   2.603   2.436 -0.2763  0.5928 -0.0689
   71MOL   C40629946   4.882   2.469   2.382  0.2785 -0.1900 -0.5311
   71MOL   C40729947   4.731   2.476   2.378  0.7502  0.0015  0.8150
   71MOL   H40829948   4.995   2.557   2.927  0.5313  0.4496 -0.1111
   71MOL   H40929949   5.070   2.399   2.915  0.0653  0.0403 -0.8843
   71MOL   H41029950   5.225   2.508   2.745 -0.4602 -0.9586  0.7525
   71MOL   H41129951   4.937   2.609   2.694  0.0610 -0.1351  0.4902
   71MOL   H41229952   4.992   2.445   2.670 -1.4027  0.2510 -2.1928
   71MOL   H41329953   5.140   2.522   2.488  0.6321  0.9021 -1.4638
   71MOL   H41429954   5.112   2.684   2.510 -1.1007  1.1264 -2.2611
   71MOL   H41529955   4.860   2.659   2.483 -1.1386  1.7172 -2.7499
   71MOL   H41629956   4.976   2.654   2.346 -0.4757  1.4418  0.3315
   71MOL   H41729957   4.929   2.442   2.287 -2.1533 -0.2692 -1.7437
   71MOL   H41829958   4.901   2.391   2.456  1.2889  0.6486  0.1063
   71MOL   H41929959   4.705   2.371   2.389  0.9070 -0.1913 -0.5142
   71MOL   H42029960   4.681   2.512   2.288 -0.3822 -0.0798  1.3972
   71MOL   H42129961   4.695   2.526   2.468  1.6459  1.4887  0.3629
   71MOL   H42229962   5.173   2.667   2.781 -1.0527  0.0424 -0.4211
   72MOL     C129963   6.940   0.512   6.041 -0.5553 -0.4860 -0.6596
   72MOL     C229964   6.834   0.538   5.939 -0.6552  0.3841 -0.0179
   72MOL     C329965   6.834   0.675   5.876 -0.0070 -0.1487 -0.7186
   72MOL     C429966   6.955   0.689   5.780 -0.2873 -0.6279  0.2769
   72MOL     C529967   6.982   0.833   5.730  0.3030 -0.4200 -0.5384
   72MOL     C629968   7.028   0.941   5.829 -0.5661 -0.4842 -0.0481
   72MOL     C729969   7.175   0.915   5.882 -1.0521 -0.3244  0.1818
   72MOL     H829970   7.045   0.524   6.013 -0.6698  1.4392 -0.3337
   72MOL     H929971   6.945   0.412   6.082 -0.6159  0.6809  2.3282
   72MOL    H1029972   6.861   0.480   5.851  1.3375  0.6549  0.3870
   72MOL    H1129973   6.747   0.699   5.814 -0.2118 -0.6843 -0.6405
   72MOL    H1229974   6.832   0.743   5.962 -3.0896 -1.4786  0.3522
   72MOL    H1329975   7.041   0.670   5.844 -0.5135  0.9539  1.0798
   72MOL    H1429976   6.949   0.618   5.698 -0.3682 -0.8161  0.4449
   72MOL    H1529977   6.891   0.862   5.677 -0.9395  1.2165  2.3696
   72MOL    H1629978   7.057   0.827   5.652  0.3751  0.5087 -0.5468
   72MOL    H1729979   6.952   0.947   5.907 -1.6619  0.3400 -1.1465
   72MOL    H1829980   7.031   1.042   5.790  2.1903  0.0734  1.5055
   72MOL    H1929981   7.254   0.958   5.820 -1.0804  0.8147  0.9294
   72MOL    H2029982   7.187   0.808   5.903  0.3521  0.0537  1.4136
   72MOL    H2129983   7.195   0.965   5.976  0.2730  0.6650 -0.5995
   72MOL    H2229984   6.901   0.562   6.129  3.7135  1.2830  0.3695
   72MOL    C2329985   6.690   0.505   5.991 -0.2481 -0.1101 -0.1993
   72MOL    C2429986   6.665   0.361   6.054  0.3460  0.5422  0.5111
   72MOL    C2529987   6.724   0.247   5.963  0.4542 -0.1080  0.0685
   72MOL    C2629988   6.648   0.229   5.828  0.4533 -0.3318  0.5919
   72MOL    C2729989   6.735   0.155   5.720 -0.1011 -0.5671 -0.0558
   72MOL    C2829990   6.654   0.101   5.603  0.0439 -0.1176  0.1300
   72MOL    C2929991   6.752   0.035   5.494 -0.7865 -0.4365  0.1133
   72MOL    H3029992   6.666   0.573   6.073 -0.9352 -2.2489  1.4484
   72MOL    H3129993   6.617   0.523   5.913  2.2558  2.0023 -2.1652
   72MOL    H3229994   6.715   0.359   6.151  1.9005 -1.4632 -0.2945
   72MOL    H3329995   6.699   0.157   6.019 -2.5707  1.1056  0.8058
   72MOL    H3429996   6.831   0.253   5.945  0.7099 -0.1201  1.5451
   72MOL    H3529997   6.644   0.329   5.785  0.4203 -0.2523  0.7790
   72MOL    H3629998   6.551   0.182   5.841  0.3760  0.0295  1.3876
   72MOL    H3729999   6.804   0.083   5.762 -1.6027  0.5357  4.6615
   72MOL    H3830000   6.802   0.229   5.676  0.4202  0.1438  1.8728
   72MOL    H3930001   6.595   0.186   5.570  0.6296 -0.2906 -1.4170
   72MOL    H4030002   6.581   0.026   5.635 -1.1224  2.2973  3.4148
   72MOL    H4130003   6.703   7.710   5.404  1.3104 -5.6408  0.9862
   72MOL    H4230004   6.834   0.096   5.455  1.3723 -1.2970  3.1091
   72MOL    H4330005   6.789   7.655   5.536 -0.3726 -0.1066  0.4843
   72MOL    C4430006   6.513   0.341   6.077 -0.0051  0.3025 -0.7153
   72MOL    C4530007   6.450   0.420   6.198  0.1905 -0.6163  0.4425
   72MOL    C4630008   6.295   0.411   6.181  1.0130  1.0673  0.2479
   72MOL    C4730009   6.232   0.277   6.209  0.8118 -0.7979 -0.2685
   72MOL    C4830010   6.080   0.271   6.162 -0.0972  0.3745  0.0850
   72MOL    C4930011   5.979   0.337   6.260 -1.1365  0.1259  0.3354
   72MOL    C5030012   5.838   0.323   6.191 -0.7613 -0.1167 -0.0558
   72MOL    H5130013   6.483   0.238   6.096 -0.1389  0.4526 -0.1044
   72MOL    H5230014   6.459   0.370   5.988 -1.5936 -0.0633  0.1137
   72MOL    H5330015   6.472   0.525   6.181  0.2925 -1.0217 -2.1238
   72MOL    H5430016   6.278   0.441   6.078  1.2754 -0.0999 -0.1447
   72MOL    H5530017   6.237   0.493   6.223  2.5026  0.4462  3.7847
   72MOL    H5630018   6.292   0.196   6.166 -0.1851 -0.5686 -2.1416
   72MOL    H5730019   6.230   0.264   6.318 -0.7143 -2.6102 -0.4798
   72MOL    H5830020   6.050   0.170   6.131  1.2567  0.3412 -1.1828
   72MOL    H5930021   6.081   0.337   6.076 -3.1837 -0.4357 -0.6301
   72MOL    H6030022   6.000   0.443   6.272 -0.1709 -0.2448  2.1239
   72MOL    H6130023   5.974   0.293   6.360  2.1145  0.6901  0.7935
   72MOL    H6230024   5.820   0.405   6.120 -2.5336  0.0307  0.5429
   72MOL    H6330025   5.760   0.328   6.266  0.7867  2.3810  1.4900
   72MOL    H6430026   5.811   0.234   6.135 -0.1780  1.2002 -2.5249
   72MOL    C6530027   6.501   0.371   6.339  0.6488 -0.7538 -0.1559
   72MOL    C6630028   6.442   0.451   6.462 -0.3013 -0.2810 -0.0455
   72MOL    C6730029   6.479   0.597   6.473 -0.6705 -0.4433  0.1591
   72MOL    C6830030   6.627   0.625   6.483  0.3041 -0.1190 -0.3993
   72MOL    C6930031   6.674   0.768   6.479  0.7968 -0.1464 -0.3294
   72MOL    C7030032   6.819   0.791   6.443  0.3870 -0.0686 -0.5053
   72MOL    C7130033   6.857   0.940   6.433  0.2976 -0.0128  0.2566
   72MOL    H7230034   6.487   0.265   6.359  1.6656 -0.8357  0.1639
   72MOL    H7330035   6.609   0.383   6.352  0.7313 -2.6209  1.0837
   72MOL    H7430036   6.333   0.452   6.464 -0.2874 -0.5038  2.4424
   72MOL    H7530037   6.437   0.640   6.382 -0.0720  0.2904  0.2269
   72MOL    H7630038   6.421   0.641   6.554 -1.7046  1.1842 -1.4405
   72MOL    H7730039   6.663   0.579   6.575 -1.1803 -4.2325 -1.7392
   72MOL    H7830040   6.682   0.570   6.407  1.6333 -0.2828  0.6587
   72MOL    H7930041   6.599   0.822   6.421 -1.2457  0.0808  2.4124
   72MOL    H8030042   6.659   0.809   6.578 -1.2334  0.0782 -0.7016
   72MOL    H8130043   6.837   0.751   6.343  2.0786 -0.7372  0.0372
   72MOL    H8230044   6.894   0.754   6.514  1.4429 -0.2128 -1.6726
   72MOL    H8330045   6.851   0.992   6.529  0.6100  0.1208  0.2056
   72MOL    H8430046   6.966   0.941   6.420  0.2815 -0.9542  0.0249
   72MOL    H8530047   6.821   0.994   6.346  0.1885 -0.8081 -0.1918
   72MOL    C8630048   6.487   0.383   6.596 -0.0973  0.2766 -0.2628
   72MOL    C8730049   6.425   0.248   6.616  0.1972  1.0922  0.2730
   72MOL    C8830050   6.515   0.162   6.712  0.3154 -0.0858 -0.2466
   72MOL    C8930051   6.515   0.208   6.856  0.1637 -0.2282  0.2439
   72MOL    C9030052   6.583   0.107   6.951  0.3524  0.0433  0.1470
   72MOL    C9130053   6.487   7.709   6.988 -0.2349 -0.3510 -0.6100
   72MOL    C9230054   6.554   7.596   7.076 -0.1254  0.3955  0.1913
   72MOL    H9330055   6.594   0.360   6.592 -0.2459 -0.3448 -0.7799
   72MOL    H9430056   6.466   0.447   6.681 -0.6716 -0.3863  0.1013
   72MOL    H9530057   6.418   0.188   6.525  2.1128  0.8201  0.2866
   72MOL    H9630058   6.479   0.059   6.707 -0.3679  0.2054 -1.8375
   72MOL    H9730059   6.612   0.152   6.663 -0.7971  0.6114 -2.7185
   72MOL    H9830060   6.576   0.299   6.858  2.5551 -1.8090  0.8776
   72MOL    H9930061   6.416   0.234   6.895 -1.1691 -2.1110 -1.8046
   72MOL   H10030062   6.611   0.153   7.046  0.7228  1.2881 -0.5561
   72MOL   H10130063   6.667   0.052   6.909  0.1887  0.1408 -0.3157
   72MOL   H10230064   6.392   0.034   7.024  0.3327  0.7879 -0.3111
   72MOL   H10330065   6.460   7.653   6.898 -0.2476 -2.1095  0.4688
   72MOL   H10430066   6.645   7.559   7.029 -0.9664  0.9965 -1.9340
   72MOL   H10530067   6.491   7.512   7.104 -2.4893  1.9512 -0.3658
   72MOL   H10630068   6.592   7.634   7.171  0.0940 -0.0991  0.3038
   72MOL   C10730069   6.276   0.256   6.651  0.0463  0.0522 -0.4258
   72MOL   C10830070   6.192   0.128   6.671  0.0335  0.5516 -0.1362
   72MOL   C10930071   6.053   0.157   6.727 -0.1014 -0.1912 -0.7638
   72MOL   C11030072   6.048   0.217   6.873  0.8179 -0.2654  0.5353
   72MOL   C11130073   5.902   0.215   6.912  0.6020  0.6853 -0.0700
   72MOL   C11230074   5.891   0.254   7.062 -0.1524  0.2250  0.0053
   72MOL   C11330075   5.744   0.237   7.107 -0.3163 -0.5830  0.7916
   72MOL   H11430076   6.213   0.315   6.584  0.0326 -0.4212 -0.8401
   72MOL   H11530077   6.269   0.314   6.743 -0.5684 -2.2752  1.0441
   72MOL   H11630078   6.245   0.061   6.738  0.0927 -2.0344 -2.6767
   72MOL   H11730079   6.001   0.064   6.747 -0.9756  0.2120 -1.1586
   72MOL   H11830080   5.996   0.204   6.647  0.0883  4.9990  1.9295
   72MOL   H11930081   6.106   0.160   6.945  0.7703  2.4435  2.7810
   72MOL   H12030082   6.082   0.320   6.882  0.7991 -0.1975 -0.1074
   72MOL   H12130083   5.856   0.117   6.895  1.6016 -0.3432  2.7859
   72MOL   H12230084   5.848   0.279   6.843  0.3639 -0.1127 -0.6281
   72MOL   H12330085   5.959   0.186   7.114  1.2383  0.1660 -1.8018
   72MOL   H12430086   5.922   0.358   7.072  2.4337 -0.2746 -2.0506
   72MOL   H12530087   5.715   0.136   7.137 -0.7774  0.0066  2.4186
   72MOL   H12630088   5.730   0.297   7.197 -0.2293 -0.8507  0.9823
   72MOL   H12730089   5.669   0.268   7.034  2.0570 -0.8676 -1.8231
   72MOL   C12830090   6.184   0.040   6.548  0.1750  0.4891 -0.4836
   72MOL   C12930091   6.113   7.616   6.574 -0.0599  0.4840  1.2694
   72MOL   C13030092   6.170   7.514   6.679 -0.4387 -1.0854 -0.1652
   72MOL   C13130093   6.317   7.481   6.660  0.0821 -0.1457  0.0870
   72MOL   C13230094   6.380   7.397   6.768  0.3676  0.4051 -0.2750
   72MOL   C13330095   6.536   7.371   6.759  0.1005 -0.2193 -0.2895
   72MOL   C13430096   6.575   7.272   6.864  0.2995 -0.4225  0.4506
   72MOL   H13530097   6.125   0.096   6.476  0.5826  2.9930  1.0348
   72MOL   H13630098   6.283   0.022   6.507 -0.5124 -2.4572 -0.9144
   72MOL   H13730099   6.011   7.646   6.599  0.0225  2.9382 -1.1032
   72MOL   H13830100   6.108   7.425   6.664  1.7663 -2.8493  0.9950
   72MOL   H13930101   6.151   7.557   6.777 -1.1976 -2.1995  0.1879
   72MOL   H14030102   6.379   7.571   6.664  1.0742 -0.8200 -0.0088
   72MOL   H14130103   6.331   7.442   6.560 -1.6469 -0.3318 -0.1035
   72MOL   H14230104   6.325   7.309   6.799  0.1780  1.1888  1.6471
   72MOL   H14330105   6.375   7.452   6.862 -0.4501 -0.5315  0.2434
   72MOL   H14430106   6.599   7.460   6.762  0.3062 -0.1568 -3.8882
   72MOL   H14530107   6.551   7.325   6.661  2.2052  2.3338 -1.2230
   72MOL   H14630108   6.571   7.314   6.965 -0.5041 -1.3894  0.8220
   72MOL   H14730109   6.682   7.260   6.849  0.4956  1.7066 -0.0810
   72MOL   H14830110   6.515   7.182   6.856 -1.1399  0.6661 -1.3195
   72MOL   C14930111   6.094   7.538   6.435  0.7657 -0.8159  0.2982
   72MOL   C15030112   6.007   7.610   6.328 -0.4506  0.2170  0.2365
   72MOL   C15130113   5.877   7.685   6.369 -0.5600  0.2262 -0.0596
   72MOL   C15230114   5.784   7.612   6.463 -0.5594  0.2479 -0.0969
   72MOL   C15330115   5.698   7.693   6.566  0.3391 -0.1547  0.6667
   72MOL   C15430116   5.697   7.616   6.699  0.1601 -0.4387 -0.2289
   72MOL   C15530117   5.598   7.680   6.799  0.0633  0.4542 -0.0756
   72MOL   H15630118   6.195   7.524   6.397  0.4283  0.9382 -1.3032
   72MOL   H15730119   6.051   7.439   6.451 -2.5258  0.7463  1.6040
   72MOL   H15830120   6.075   7.682   6.282  0.7344 -0.7297  0.4712
   72MOL   H15930121   5.904   0.065   6.419  0.4214  0.7287 -1.4983
   72MOL   H16030122   5.823   0.002   6.279 -1.8064  0.2309  0.6747
   72MOL   H16130123   5.841   7.535   6.515 -1.8922  1.1084  2.7088
   72MOL   H16230124   5.721   7.546   6.403 -1.9717  1.6201 -0.1688
   72MOL   H16330125   5.597   7.711   6.530  0.7960  0.6097 -0.2433
   72MOL   H16430126   5.738   0.080   6.581  0.9888 -0.2719 -0.2153
   72MOL   H16530127   5.800   7.608   6.736  0.3780  1.3056 -0.4342
   72MOL   H16630128   5.656   7.515   6.695 -3.1394  0.9183 -1.4266
   72MOL   H16730129   5.630   0.067   6.829 -0.4946  0.0118  2.0784
   72MOL   H16830130   5.588   7.620   6.889 -2.8302  0.5419 -0.2856
   72MOL   H16930131   5.500   7.674   6.750 -0.5676 -0.2897  1.2610
   72MOL   C17030132   5.972   7.507   6.222  0.1341  0.2333  0.3608
   72MOL   C17130133   6.088   7.473   6.128  0.4749 -0.1556  0.0897
   72MOL   C17230134   6.094   7.323   6.102  0.5272  0.0061  0.4195
   72MOL   C17330135   5.968   7.261   6.048 -0.4544 -0.8212  0.7294
   72MOL   C17430136   5.984   7.109   6.060  0.2158  0.4194  0.3769
   72MOL   C17530137   5.872   7.043   5.980  0.5366  0.2403 -0.0806
   72MOL   C17630138   5.728   7.066   6.021  0.8101 -0.4074  0.0865
   72MOL   H17730139   5.887   7.535   6.160  0.1409  0.3169  0.3878
   72MOL   H17830140   5.935   7.418   6.273  0.0474 -0.0090 -0.1266
   72MOL   H17930141   6.177   7.497   6.186 -0.9586  0.8870  1.9370
   72MOL   H18030142   6.119   7.282   6.200 -0.1314  1.1963  1.0935
   72MOL   H18130143   6.175   7.297   6.033  0.4271  1.7528 -0.3801
   72MOL   H18230144   5.955   7.293   5.945  1.4895  1.9292  1.2779
   72MOL   H18330145   5.878   7.298   6.096  1.7052  1.4176  3.2101
   72MOL   H18430146   5.981   7.075   6.164  0.3087 -0.4151  0.1047
   72MOL   H18530147   6.077   7.071   6.019  0.0246  0.1233  0.2216
   72MOL   H18630148   5.890   6.936   5.975  0.4750  0.2096  0.3361
   72MOL   H18730149   5.888   7.067   5.874  0.0232 -0.6824 -0.3668
   72MOL   H18830150   5.714   7.033   6.123  0.6652  0.4569  0.3514
   72MOL   H18930151   5.661   7.025   5.945 -0.4440  0.5650  0.6564
   72MOL   H19030152   5.691   7.169   6.023  2.9101  0.3674  1.0244
   72MOL   C19130153   6.097   7.565   5.998 -0.3569  0.3288 -0.0326
   72MOL   C19230154   6.238   7.576   5.941 -0.1590 -0.5314  0.4594
   72MOL   C19330155   6.234   7.641   5.804 -0.3576  0.2866  0.3306
   72MOL   C19430156   6.203   7.543   5.699  0.9030 -0.0910  0.2551
   72MOL   C19530157   6.181   7.591   5.558  0.4727 -0.1629 -0.4843
   72MOL   C19630158   6.270   7.517   5.455 -0.3960  0.2999 -0.1554
   72MOL   C19730159   6.428   7.530   5.470 -0.2039  0.1119  1.5189
   72MOL   H19830160   6.060   7.664   6.025 -0.9588  0.6953 -2.1547
   72MOL   H19930161   6.030   7.517   5.928 -0.2255  0.3789 -0.1916
   72MOL   H20030162   6.274   7.475   5.923  2.3868  0.3845  0.1355
   72MOL   H20130163   6.332   7.687   5.787 -1.1167  0.9919 -2.5692
   72MOL   H20230164   6.153   0.001   5.804  1.0807  1.9611 -2.0158
   72MOL   H20330165   6.104   7.509   5.729  1.5072 -2.1809  0.0015
   72MOL   H20430166   6.279   7.465   5.692  1.7527  0.5311  2.2932
   72MOL   H20530167   6.076   7.569   5.537  0.8953 -1.4826 -1.2310
   72MOL   H20630168   6.199   7.698   5.549 -2.8681  0.4202 -0.8616
   72MOL   H20730169   6.245   7.552   5.355  0.0520  2.3248  0.4147
   72MOL   H20830170   6.244   7.411   5.459  0.3230  0.0999 -0.5590
   72MOL   H20930171   6.477   7.508   5.375 -0.3640  1.7951  1.0351
   72MOL   H21030172   6.484   7.485   5.552  0.5091  1.7430  1.9526
   72MOL   H21130173   6.449   7.637   5.472 -1.7493  0.5722 -2.2451
   72MOL   C21230174   6.337   7.651   6.039 -0.2547  0.7343 -0.5041
   72MOL   C21330175   6.462   7.574   6.089 -0.0998  0.1961 -0.8062
   72MOL   C21430176   6.559   7.548   5.977 -0.5082  0.1092 -0.5089
   72MOL   C21530177   6.550   7.423   5.891  0.5672  0.6914  0.0404
   72MOL   C21630178   6.680   7.399   5.809 -0.4152 -0.1207 -0.1131
   72MOL   C21730179   6.666   7.282   5.714  0.0251 -0.8187  0.6277
   72MOL   C21830180   6.764   7.295   5.601 -0.4315 -0.3991  0.8430
   72MOL   H21930181   6.271   7.677   6.122  0.5767  2.7431 -0.4601
   72MOL   H22030182   6.366   0.038   6.010  1.0573  0.2406 -0.9023
   72MOL   H22130183   6.423   7.477   6.120  1.2666 -0.8242 -2.2142
   72MOL   H22230184   6.580   7.633   5.913  1.1188  1.6751  2.0533
   72MOL   H22330185   6.656   7.530   6.023 -1.8876 -0.3652  2.3273
   72MOL   H22430186   6.460   7.436   5.831 -0.6569 -1.4752  1.3571
   72MOL   H22530187   6.526   7.341   5.958 -0.5283  1.3975  0.5324
   72MOL   H22630188   6.704   7.487   5.750  1.0468  0.3816  1.1954
   72MOL   H22730189   6.758   7.377   5.883  0.8971  1.5190 -0.9800
   72MOL   H22830190   6.662   7.185   5.764  0.2112 -1.0410  0.2070
   72MOL   H22930191   6.574   7.295   5.657  0.1076  1.7410  1.0418
   72MOL   H23030192   6.759   7.215   5.526  0.5492 -0.6311  1.0219
   72MOL   H23130193   6.866   7.293   5.637  0.8980  2.4556 -2.4442
   72MOL   H23230194   6.750   7.387   5.544 -0.8723 -0.6336  0.5706
   72MOL   C23330195   6.534   7.654   6.206  0.4009 -0.3680  0.2009
   72MOL   C23430196   6.643   7.584   6.285 -0.5876  0.4446 -0.3418
   72MOL   C23530197   6.709   7.663   6.404  0.4944 -0.0993 -0.0428
   72MOL   C23630198   6.817   0.044   6.349  0.1446 -0.0122 -0.2498
   72MOL   C23730199   6.851   0.151   6.453  0.0922 -0.6928  0.4853
   72MOL   C23830200   6.958   0.253   6.403 -0.4315  0.6964 -0.3774
   72MOL   C23930201   6.968   0.388   6.476 -0.5318 -0.4338 -0.8517
   72MOL   H24030202   6.462   7.673   6.286  0.6952  0.2862  0.3100
   72MOL   H24130203   6.563   0.040   6.169 -2.0638  0.5202  0.5520
   72MOL   H24230204   6.725   7.562   6.217  0.7405  0.7229  1.1386
   72MOL   H24330205   6.746   7.603   6.487 -0.7874 -0.0335  0.5853
   72MOL   H24430206   6.630   0.010   6.450  1.2417 -0.4120  1.6822
   72MOL   H24530207   6.791   0.095   6.256  1.3118 -1.9394 -1.6955
   72MOL   H24630208   6.908   7.704   6.319  1.9496  1.8937  1.6347
   72MOL   H24730209   6.878   0.106   6.548  1.0777 -1.5189 -0.1698
   72MOL   H24830210   6.759   0.206   6.473 -1.8354 -2.9337 -1.8962
   72MOL   H24930211   7.050   0.196   6.415 -1.0047 -0.3085 -0.7320
   72MOL   H25030212   6.950   0.277   6.297  2.1995  0.6380 -0.6348
   72MOL   H25130213   6.973   0.366   6.583 -1.1303 -0.5833 -0.8569
   72MOL   H25230214   7.060   0.439   6.448 -1.0678  0.2595 -1.3406
   72MOL   H25330215   6.885   0.456   6.463 -0.9957 -0.8883 -0.2812
   72MOL   C25430216   6.584   7.451   6.347  0.1504  0.8952  0.7432
   72MOL   C25530217   6.636   7.323   6.282 -0.2278 -0.0914  0.2275
   72MOL   C25630218   6.556   7.194   6.320 -0.3733  0.0557 -1.0336
   72MOL   C25730219   6.404   7.197   6.273 -0.0281  0.3248 -0.4075
   72MOL   C25830220   6.360   7.050   6.240 -0.2899  0.0628 -0.0877
   72MOL   C25930221   6.394   7.004   6.100 -0.6121 -0.4632 -0.1733
   72MOL   C26030222   6.323   6.874   6.073  0.2650 -0.0201 -0.2031
   72MOL   H26130223   6.476   7.442   6.346  0.3099 -1.5356 -1.5964
   72MOL   H26230224   6.594   7.439   6.454  1.8205  0.6249  0.5720
   72MOL   H26330225   6.615   7.347   6.178  1.8170 -0.6532 -0.3280
   72MOL   H26430226   6.571   7.166   6.424 -2.6537  0.3531 -0.5895
   72MOL   H26530227   6.602   7.108   6.272  1.6119 -1.5098  3.3618
   72MOL   H26630228   6.349   7.238   6.358  2.2955  0.9375  0.8649
   72MOL   H26730229   6.395   7.263   6.186  3.2370  0.2430 -0.9016
   72MOL   H26830230   6.254   7.034   6.259 -0.0489  1.8655  3.2804
   72MOL   H26930231   6.402   6.979   6.311  0.4778 -0.2857 -0.8828
   72MOL   H27030232   6.374   7.074   6.018  2.5029  0.6636 -0.0376
   72MOL   H27130233   6.499   6.975   6.104  0.3640  2.8845  0.5403
   72MOL   H27230234   6.216   6.887   6.090  0.0194  0.1595 -1.8303
   72MOL   H27330235   6.342   6.833   5.975  1.4223 -0.0704  0.0372
   72MOL   H27430236   6.345   6.794   6.144 -0.7667  0.8949  1.2020
   72MOL   C27530237   6.789   7.306   6.304  0.3062  0.4994  0.2461
   72MOL   C27630238   6.871   7.305   6.174 -1.1640  1.1145  0.1936
   72MOL   C27730239   6.846   7.178   6.076 -0.1421 -0.7207 -0.0623
   72MOL   C27830240   6.887   7.046   6.138  0.4686  0.4040 -0.2916
   72MOL   C27930241   6.811   6.924   6.099  0.5047  0.3945  0.4962
   72MOL   C28030242   6.793   6.910   5.944  0.5509 -0.8341 -0.3961
   72MOL   C28130243   6.750   6.775   5.899 -0.4023  0.4566  0.4475
   72MOL   H28230244   6.823   7.217   6.357 -1.2373 -1.1810 -1.4899
   72MOL   H28330245   6.821   7.391   6.366 -2.5554  1.6125  0.2602
   72MOL   H28430246   6.836   7.390   6.115  0.1551  0.3979 -1.6958
   72MOL   H28530247   6.745   7.190   6.036 -0.1004  2.3005  0.6137
   72MOL   H28630248   6.901   7.196   5.984 -0.1800 -0.2009  0.0164
   72MOL   H28730249   6.892   7.062   6.246  2.2612  0.9172 -0.4202
   72MOL   H28830250   6.993   7.031   6.116  0.3388  0.0701 -0.7052
   72MOL   H28930251   6.715   6.932   6.149  0.8273 -2.0584  1.6219
   72MOL   H29030252   6.861   6.837   6.143 -0.7791  0.1118  1.4091
   72MOL   H29130253   6.737   6.990   5.898 -0.9449 -0.7490  1.4968
   72MOL   H29230254   6.895   6.911   5.905 -0.1808  1.9218 -2.3416
   72MOL   H29330255   6.807   6.685   5.924 -1.4002 -0.6591 -1.1519
   72MOL   H29430256   6.747   6.755   5.792 -1.0311 -0.1866  0.5804
   72MOL   H29530257   6.653   6.753   5.945 -0.5211  0.5762  0.2538
   72MOL   C29630258   7.020   7.338   6.209 -0.4288 -0.2917  0.1736
   72MOL   C29730259   7.069   7.487   6.225 -0.3310 -0.1653 -0.4118
   72MOL   C29830260   7.040   7.579   6.106  0.1628 -0.3852 -0.0955
   72MOL   C29930261   7.069   7.525   5.968 -0.5718  0.1945 -0.1959
   72MOL   C30030262   7.041   7.615   5.851  0.9497  0.1020 -0.1148
   72MOL   C30130263   7.053   7.545   5.715 -0.7773  0.2069  0.3206
   72MOL   C30230264   7.192   7.493   5.675 -0.0564 -0.2147  0.5471
   72MOL   H30330265   7.028   7.293   6.309 -0.9839 -0.1862  0.2668
   72MOL   H30430266   7.086   7.298   6.132 -2.1306 -0.5348 -1.1996
   72MOL   H30530267   7.012   7.531   6.307 -0.9304 -1.8559  0.0976
   72MOL   H30630268   6.934   7.595   6.127  0.3931 -0.5608  1.2011
   72MOL   H30730269   7.092   7.675   6.107  0.7154 -0.6851  0.4742
   72MOL   H30830270   7.014   7.432   5.953  0.2569 -0.1293 -1.2287
   72MOL   H30930271   7.174   7.499   5.973 -0.6344  0.0105  0.2444
   72MOL   H31030272   7.103   7.704   5.855  1.3406 -0.2525  2.4414
   72MOL   H31130273   6.947   7.668   5.865 -0.4201 -2.0966 -0.6638
   72MOL   H31230274   6.980   7.464   5.712  1.0578 -1.4820  0.3094
   72MOL   H31330275   7.030   7.612   5.632 -0.4250 -0.4992 -0.3573
   72MOL   H31430276   7.260   7.576   5.691  0.3556 -0.4478  0.0273
   72MOL   H31530277   7.228   7.407   5.731 -1.2568 -0.6809  0.6208
   72MOL   H31630278   7.193   7.474   5.567  2.3915  4.0770 -0.2845
   72MOL   C31730279   7.219   7.487   6.265 -0.0771  0.3836 -0.9205
   72MOL   C31830280   7.283   7.596   6.354 -0.3106  0.1357 -0.3436
   72MOL   C31930281   7.301   0.025   6.288 -0.1330 -0.1530  0.3000
   72MOL   C32030282   7.361   0.018   6.140  0.0446  0.5435 -0.2873
   72MOL   C32130283   7.384   0.160   6.075  0.1714 -0.3819 -0.8733
   72MOL   C32230284   7.451   0.154   5.939 -0.6042 -0.2652  0.1777
   72MOL   C32330285   7.499   0.285   5.877  0.7100 -0.4788  0.6895
   72MOL   H32430286   7.278   7.465   6.176 -0.4311  1.2654 -1.3741
   72MOL   H32530287   7.248   7.392   6.311 -2.8275 -0.4374 -0.8025
   72MOL   H32630288   7.386   7.563   6.368  0.3470  2.4885  0.6078
   72MOL   H32730289   7.375   0.088   6.339 -1.6583  1.0359  1.0762
   72MOL   H32830290   7.205   0.075   6.286  0.6630  1.3387 -2.0319
   72MOL   H32930291   7.306   7.671   6.069 -0.1676  0.1162  0.2406
   72MOL   H33030292   7.458   7.681   6.135  0.2998  0.5902  2.9915
   72MOL   H33130293   7.460   0.214   6.133 -0.9956 -0.4632  0.7685
   72MOL   H33230294   7.298   0.227   6.076  0.9224  0.5889  0.6844
   72MOL   H33330295   7.374   0.123   5.868 -1.9566 -0.4533  1.6913
   72MOL   H33430296   7.533   0.083   5.940 -1.0574 -0.8622 -2.1995
   72MOL   H33530297   7.538   0.270   5.776 -2.0093 -0.4459 -0.4115
   72MOL   H33630298   7.580   0.336   5.928  2.2042 -0.9806 -1.1212
   72MOL   H33730299   7.415   0.352   5.857  0.3288 -1.0067  0.4932
   72MOL   C33830300   7.235   7.605   6.505  0.2962  0.6022 -0.0661
   72MOL   C33930301   7.325   7.684   6.608 -0.3284  0.2004  0.4156
   72MOL   C34030302   7.334   7.614   6.743 -0.5905 -0.3540 -0.0759
   72MOL   C34130303   7.443   7.504   6.759 -0.1459  0.5157 -0.1264
   72MOL   C34230304   7.454   7.445   6.897 -0.9194 -0.4531  0.3995
   72MOL   C34330305   7.570   7.342   6.890 -0.8115 -0.0277  0.0153
   72MOL   C34430306   7.592   7.242   7.005  0.2323  0.7807 -0.1067
   72MOL   H34530307   7.235   7.502   6.542 -1.0982  1.4262  2.3070
   72MOL   H34630308   7.132   7.642   6.509  0.0508  0.1069 -1.5214
   72MOL   H34730309   7.420   7.685   6.555 -0.3013 -1.0970  0.4231
   72MOL   H34830310   7.362   7.686   6.819 -0.7251 -1.4328  1.0080
   72MOL   H34930311   7.229   7.600   6.766 -0.9327 -0.6694 -1.7481
   72MOL   H35030312   7.541   7.547   6.734  1.7207 -3.6406 -0.3657
   72MOL   H35130313   7.428   7.426   6.685 -1.0869  1.2361 -0.6971
   72MOL   H35230314   7.471   7.523   6.970 -1.6403  0.9617 -0.9196
   72MOL   H35330315   7.352   7.404   6.898 -1.1202  0.0165 -0.5980
   72MOL   H35430316   7.551   7.279   6.803 -0.1776 -2.1430  1.3856
   72MOL   H35530317   7.667   7.376   6.852 -0.3147 -1.6060 -0.1520
   72MOL   H35630318   7.675   7.176   6.980 -0.6210 -0.8760  1.3715
   72MOL   H35730319   7.500   7.186   7.021  0.4538  0.8008  1.2338
   72MOL   H35830320   7.605   7.279   7.106  0.8375 -0.0843  0.1389
   72MOL   C35930321   7.274   0.114   6.623 -0.0787 -0.0272 -0.2241
   72MOL   C36030322   7.368   0.213   6.698  0.0911 -0.6439  0.5475
   72MOL   C36130323   7.476   0.266   6.606 -0.0827  0.0160 -0.0172
   72MOL   C36230324   7.445   0.375   6.494 -0.8523  0.6774  0.5651
   72MOL   C36330325   7.569   0.394   6.401 -0.8006 -0.3684 -0.4830
   72MOL   C36430326   7.526   0.484   6.281  0.1838  0.7623 -0.0802
   72MOL   C36530327   7.651   0.522   6.206  0.6074  0.0173 -0.1375
   72MOL   H36630328   7.181   0.116   6.678  0.7169 -0.0110  1.1471
   72MOL   H36730329   7.255   0.162   6.527 -0.4653 -1.4187 -0.8587
   72MOL   H36830330   7.412   0.168   6.787  0.4354  0.1440  0.7762
   72MOL   H36930331   7.557   0.318   6.656  2.6224 -2.5675 -1.5274
   72MOL   H37030332   7.531   0.182   6.563 -0.4713 -0.2257 -0.0379
   72MOL   H37130333   7.359   0.340   6.436  1.1907  0.5333 -2.5047
   72MOL   H37230334   7.423   0.473   6.534 -1.5752  0.4332  0.7657
   72MOL   H37330335   7.649   0.440   6.459 -2.0530  0.2489  0.7714
   72MOL   H37430336   7.613   0.304   6.358  3.9410  1.6426 -0.1280
   72MOL   H37530337   7.461   0.427   6.215 -0.4626  0.2363  0.9963
   72MOL   H37630338   7.468   0.574   6.302  0.2800  1.0077 -0.8330
   72MOL   H37730339   7.619   0.577   6.118  2.1087  2.1694  0.6118
   72MOL   H37830340   0.002   0.576   6.276 -0.5929  0.8925  0.3018
   72MOL   H37930341   7.711   0.437   6.173  1.0329 -0.3291  1.4706
   72MOL   C38030342   7.288   0.334   6.763 -0.0152  0.1649  0.1756
   72MOL   C38130343   7.360   0.414   6.875 -0.5491  0.0318  0.3910
   72MOL   C38230344   7.349   0.568   6.859  0.2589  0.0932 -0.2573
   72MOL   C38330345   7.203   0.629   6.858  0.7926  0.5841 -0.5611
   72MOL   C38430346   7.207   0.777   6.828 -0.0058 -0.5738 -0.0128
   72MOL   C38530347   7.075   0.851   6.868  0.5086  0.4502  0.8025
   72MOL   C38630348   7.065   1.001   6.834 -0.2696  0.1410 -0.5038
   72MOL   H38730349   7.249   0.405   6.690  1.5779  1.3875  0.4566
   72MOL   H38830350   7.192   0.300   6.800 -2.3847  2.4719 -3.4811
   72MOL   H38930351   7.468   0.394   6.873 -0.5743 -0.0573 -0.3276
   72MOL   H39030352   7.398   0.601   6.767 -0.6387 -0.0129 -0.7835
   72MOL   H39130353   7.406   0.611   6.941  0.4149 -0.1474 -0.2371
   72MOL   H39230354   7.154   0.576   6.777  1.3968 -2.4825  0.9560
   72MOL   H39330355   7.160   0.593   6.952  0.2709 -2.3131 -1.8600
   72MOL   H39430356   7.291   0.826   6.877 -0.3207  0.8386 -0.8474
   72MOL   H39530357   7.224   0.787   6.721  0.2403  0.7014  0.1318
   72MOL   H39630358   7.058   0.824   6.972 -2.8759  1.4841  0.5523
   72MOL   H39730359   6.992   0.804   6.816  0.2847  1.4359  0.2476
   72MOL   H39830360   7.128   1.061   6.900 -1.1598  0.8603 -0.2965
   72MOL   H39930361   6.965   1.042   6.844  0.4880  1.7833  0.6602
   72MOL   H40030362   7.091   1.002   6.728  1.2943 -1.9364 -0.1778
   72MOL   C40130363   7.319   0.360   7.005  0.6404 -0.4607 -0.2004
   72MOL   C40230364   7.408   0.389   7.136  0.2753  0.5394 -0.5379
   72MOL   C40330365   7.538   0.311   7.147  0.2828 -0.1486  0.3398
   72MOL   C40430366   7.523   0.155   7.179 -0.7879  0.1195  0.1145
   72MOL   C40530367   7.661   0.088   7.204 -0.0727 -0.2144 -0.0967
   72MOL   C40630368   7.659   7.648   7.211 -0.2851 -0.5127 -0.4927
   72MOL   C40730369   7.618   7.599   7.346  0.3969  0.1374  0.3209
   72MOL   H40830370   7.300   0.253   7.016 -1.9540 -0.0980 -0.7693
   72MOL   H40930371   7.220   0.400   7.027  0.7446 -0.7714  0.8475
   72MOL   H41030372   7.347   0.358   7.221 -1.7625 -1.8683 -2.7755
   72MOL   H41130373   7.574   0.365   7.235 -0.7288 -0.0359  0.6904
   72MOL   H41230374   7.601   0.331   7.060 -1.0319 -0.8924 -0.8071
   72MOL   H41330375   7.475   0.106   7.094  0.0975 -1.1976  0.3655
   72MOL   H41430376   7.460   0.153   7.268 -1.2286 -1.3654 -0.2164
   72MOL   H41530377   0.020   0.117   7.128 -0.1431 -1.5043 -0.6664
   72MOL   H41630378   7.706   0.139   7.289  0.9897 -0.9538 -0.2059
   72MOL   H41730379   7.606   7.601   7.129 -1.8203  0.6663 -0.2122
   72MOL   H41830380   0.050   7.616   7.205  0.8428  3.1473 -2.0091
   72MOL   H41930381   7.621   7.490   7.349  0.4552  0.0007 -2.8303
   72MOL   H42030382   7.514   7.622   7.368 -0.4497 -0.9567 -2.3619
   72MOL   H42130383   7.676   7.637   7.430  3.2894  1.2460 -2.0997
   72MOL   H42230384   7.416   0.496   7.152 -2.9858  1.0254 -1.6932
   73MOL     C130385   5.302   6.633   4.014  0.0930 -0.1683 -0.0383
   73MOL     C230386   5.347   6.757   4.090 -0.0222  0.2330  0.2264
   73MOL     C330387   5.497   6.750   4.108 -0.7144 -0.5095 -0.2531
   73MOL     C430388   5.586   6.764   3.985 -0.2092 -0.0692 -0.5063
   73MOL     C530389   5.733   6.779   4.024  0.0854  0.2447  0.6445
   73MOL     C630390   5.817   6.786   3.899 -0.0737  0.2956 -0.7110
   73MOL     C730391   5.849   6.647   3.844  0.5906  0.2307  0.4028
   73MOL     H830392   5.343   6.608   3.916 -0.6746  2.2863 -1.0305
   73MOL     H930393   5.200   6.657   3.984 -0.0442 -0.8258 -0.0975
   73MOL    H1030394   5.328   6.843   4.026  3.2143  1.0354  0.2582
   73MOL    H1130395   5.520   6.838   4.169 -0.4955 -0.4645 -0.4017
   73MOL    H1230396   5.537   6.666   4.165  1.6276  0.4135 -0.4727
   73MOL    H1330397   5.560   6.679   3.922 -0.3906 -0.8624  0.6307
   73MOL    H1430398   5.551   6.855   3.937  1.0944  0.4179 -0.5570
   73MOL    H1530399   5.772   6.708   4.097  0.9893 -1.1905 -1.2077
   73MOL    H1630400   5.739   6.876   4.073 -0.3900  0.3162  0.5641
   73MOL    H1730401   5.909   6.838   3.926 -0.5852  0.6998  0.2664
   73MOL    H1830402   5.772   6.843   3.818 -2.1207  0.6433  0.6476
   73MOL    H1930403   5.908   6.591   3.916  0.4454 -1.3925 -0.6930
   73MOL    H2030404   5.902   6.664   3.750 -1.7312  0.8919 -0.8327
   73MOL    H2130405   5.755   6.593   3.826  0.8484 -0.2187  0.3972
   73MOL    H2230406   5.295   6.551   4.085  1.2918  1.0244  1.5272
   73MOL    C2330407   5.264   6.760   4.223  0.0833  0.4615 -0.3855
   73MOL    C2430408   5.260   6.901   4.298 -0.0450 -0.2885 -0.1129
   73MOL    C2530409   5.210   6.893   4.439 -0.0259 -0.4199 -0.1671
   73MOL    C2630410   5.056   6.855   4.451 -1.3140  0.2957 -0.2031
   73MOL    C2730411   5.010   6.841   4.597 -0.7469 -0.1317 -0.5533
   73MOL    C2830412   5.083   6.720   4.670  0.3571 -0.5265  0.7771
   73MOL    C2930413   5.037   6.722   4.821  0.7339 -0.5169  0.0853
   73MOL    H3030414   5.159   6.731   4.216 -1.0037  1.7910  6.7210
   73MOL    H3130415   5.308   6.678   4.281 -0.8382 -0.0639 -0.4175
   73MOL    H3230416   5.359   6.946   4.294  1.4720 -3.5468 -1.2338
   73MOL    H3330417   5.224   6.987   4.493  0.2746  0.1196 -1.1796
   73MOL    H3430418   5.281   6.823   4.485  0.8463  0.4002 -0.2412
   73MOL    H3530419   5.031   6.761   4.403 -1.4855  1.1913 -1.9097
   73MOL    H3630420   4.994   6.932   4.406 -0.8248  0.7910 -0.0347
   73MOL    H3730421   4.904   6.830   4.616 -0.2269 -1.6791  1.7754
   73MOL    H3830422   5.031   6.938   4.641 -2.4800  0.2969 -0.6496
   73MOL    H3930423   5.192   6.718   4.662  0.1786 -0.9683 -2.1891
   73MOL    H4030424   5.049   6.629   4.620  2.0640 -0.3571 -0.7241
   73MOL    H4130425   5.075   6.634   4.872  2.1475  1.7660  3.1709
   73MOL    H4230426   5.072   6.813   4.871  2.4032 -0.9828 -0.1932
   73MOL    H4330427   4.929   6.728   4.831  0.7082 -0.7966 -0.0405
   73MOL    C4430428   5.170   6.997   4.209  0.0190 -0.0491  0.8580
   73MOL    C4530429   5.161   7.147   4.253 -0.6005  0.6843  0.3934
   73MOL    C4630430   5.292   7.222   4.286  0.0142  0.7177 -0.5499
   73MOL    C4730431   5.382   7.221   4.164  0.2784  0.7178  0.6402
   73MOL    C4830432   5.527   7.263   4.195 -0.1036 -0.3811 -0.4393
   73MOL    C4930433   5.604   7.160   4.280 -0.7168 -0.1634  0.5961
   73MOL    C5030434   5.760   7.179   4.280 -0.5605 -0.1661 -0.5777
   73MOL    H5130435   5.073   6.949   4.192  1.6427 -2.7526 -1.1391
   73MOL    H5230436   5.208   6.999   4.107 -2.3007  1.5962 -0.0316
   73MOL    H5330437   5.097   7.148   4.341 -2.1281 -1.2101 -0.6611
   73MOL    H5430438   5.342   7.172   4.369 -1.2736 -0.9180 -0.7397
   73MOL    H5530439   5.279   7.327   4.313 -1.5259  0.4419 -0.1620
   73MOL    H5630440   5.378   7.123   4.116 -0.6520  1.5870 -1.1063
   73MOL    H5730441   5.341   7.287   4.088  0.6256  1.1778  0.8503
   73MOL    H5830442   5.530   7.364   4.235 -0.7864  0.4972 -2.5286
   73MOL    H5930443   5.575   7.268   4.097 -0.4673  2.6420 -0.4902
   73MOL    H6030444   5.588   7.061   4.238 -1.7349  0.7060 -1.1193
   73MOL    H6130445   5.563   7.159   4.381  0.0528 -0.5082  0.9132
   73MOL    H6230446   5.787   7.281   4.306  0.0963 -0.8001  1.3464
   73MOL    H6330447   5.807   7.172   4.182 -0.9053 -0.8840 -0.6977
   73MOL    H6430448   5.820   7.114   4.345  0.1117  2.5829  1.6236
   73MOL    C6530449   5.077   7.227   4.153  0.5930 -0.5217 -0.1461
   73MOL    C6630450   4.942   7.167   4.111  0.0027 -0.3525 -0.2203
   73MOL    C6730451   4.886   7.253   3.992  0.7336  0.0922 -0.1010
   73MOL    C6830452   4.848   7.391   4.032 -0.6424  0.1896  0.5453
   73MOL    C6930453   4.776   7.475   3.925  0.6142 -0.0411  0.1286
   73MOL    C7030454   4.735   7.622   3.968  0.0822  0.0076  0.2344
   73MOL    C7130455   4.704   0.010   3.861  0.1232 -0.0163  0.3104
   73MOL    H7230456   5.059   7.325   4.196 -1.4539  0.3691 -2.8918
   73MOL    H7330457   5.138   7.241   4.063 -0.3584 -0.6476 -0.8134
   73MOL    H7430458   4.953   7.065   4.075  2.5896 -0.1539 -0.0414
   73MOL    H7530459   4.960   7.264   3.912 -0.4003 -0.3220 -1.2190
   73MOL    H7630460   4.803   7.192   3.956  0.6184  0.0312  0.2683
   73MOL    H7730461   4.798   7.393   4.129 -0.4524 -2.3930  0.7403
   73MOL    H7830462   4.939   7.449   4.048 -0.9310  0.8039 -0.0081
   73MOL    H7930463   4.841   7.485   3.838  0.2584  2.4344  0.1185
   73MOL    H8030464   4.684   7.420   3.904  0.3259  0.9602 -1.2985
   73MOL    H8130465   4.802   7.663   4.044 -0.1199  3.1998 -1.2241
   73MOL    H8230466   4.646   7.621   4.031 -1.3138 -3.3840 -1.7108
   73MOL    H8330467   4.699   0.107   3.909 -2.8012 -0.3006  0.6648
   73MOL    H8430468   4.779   0.019   3.782  2.6618 -0.7188  2.5889
   73MOL    H8530469   4.611   7.697   3.811 -0.1065  1.1911  0.0807
   73MOL    C8630470   4.840   7.148   4.225 -0.8196  0.1774  0.1096
   73MOL    C8730471   4.710   7.073   4.198 -0.5243 -0.0136 -0.2597
   73MOL    C8830472   4.731   6.932   4.133  0.5169  0.5760  0.1947
   73MOL    C8930473   4.786   6.818   4.225  0.8190  0.1249  0.5204
   73MOL    C9030474   4.789   6.679   4.148 -0.1063 -0.4587 -0.3495
   73MOL    C9130475   4.846   6.672   4.009  0.2116 -0.5302  0.1390
   73MOL    C9230476   4.776   6.575   3.914 -0.0789  0.1823  0.4790
   73MOL    H9330477   4.902   7.091   4.294  1.1851  2.0033 -0.1288
   73MOL    H9430478   4.827   7.248   4.265 -0.7490  0.2413 -0.0261
   73MOL    H9530479   4.673   7.136   4.118 -0.1012  0.7272  0.1259
   73MOL    H9630480   4.639   6.898   4.087  1.0726 -2.3570  1.1895
   73MOL    H9730481   4.786   6.942   4.040 -1.9435  0.5992 -1.2799
   73MOL    H9830482   4.890   6.836   4.250  1.2153 -0.8505 -0.3775
   73MOL    H9930483   4.732   6.807   4.319  0.3917  0.9539  0.3774
   73MOL   H10030484   4.686   6.644   4.142 -1.0982  1.5337  3.1369
   73MOL   H10130485   4.844   6.610   4.212  2.2348  1.3167 -0.3600
   73MOL   H10230486   4.842   6.767   3.956  0.6281  0.5024  1.9085
   73MOL   H10330487   4.950   6.638   4.007  1.3200  2.7249 -1.4680
   73MOL   H10430488   4.683   6.609   3.868  1.3053  1.1451 -1.7027
   73MOL   H10530489   4.747   6.484   3.966 -1.2176  0.3866  0.2050
   73MOL   H10630490   4.831   6.560   3.820 -0.5535 -1.4207  0.4376
   73MOL   C10730491   4.618   7.076   4.322  0.4880 -0.3465 -0.1068
   73MOL   C10830492   4.494   6.985   4.344 -0.4409 -0.0629  0.3532
   73MOL   C10930493   4.467   6.962   4.493 -0.1630 -0.2981  0.0276
   73MOL   C11030494   4.576   6.901   4.571 -0.3916 -0.0055  0.0062
   73MOL   C11130495   4.532   6.875   4.710  0.0544  0.2354  0.8604
   73MOL   C11230496   4.649   6.829   4.797 -0.1645 -0.1894 -0.1960
   73MOL   C11330497   4.597   6.759   4.929  0.3290  0.2520 -0.4506
   73MOL   H11430498   4.589   7.180   4.336 -0.1599 -0.4579 -0.6313
   73MOL   H11530499   4.691   7.051   4.400 -1.1486 -0.6831  1.3576
   73MOL   H11630500   4.522   6.888   4.303  1.2228 -0.6285  2.7058
   73MOL   H11730501   4.371   6.911   4.497 -0.2665 -0.0714  0.4406
   73MOL   H11830502   4.445   7.056   4.545 -0.2070 -0.7529  0.8482
   73MOL   H11930503   4.619   6.809   4.531 -2.4175 -0.9037 -0.1712
   73MOL   H12030504   4.663   6.967   4.573 -1.2230  1.1266 -0.8864
   73MOL   H12130505   4.450   6.805   4.697  1.5986 -1.2639 -1.1130
   73MOL   H12230506   4.492   6.971   4.743 -3.2982 -0.4857 -0.8616
   73MOL   H12330507   4.717   6.764   4.740 -1.4090 -1.0107 -0.7693
   73MOL   H12430508   4.710   6.918   4.811 -2.7919  1.9284 -1.7464
   73MOL   H12530509   4.678   6.735   4.997 -0.4074  1.5869  0.9172
   73MOL   H12630510   4.527   6.817   4.989 -1.2157 -1.2088 -0.7780
   73MOL   H12730511   4.544   6.666   4.905 -1.1043  0.6548  1.0564
   73MOL   C12830512   4.378   7.041   4.266 -0.1499  0.9400 -0.0461
   73MOL   C12930513   4.285   6.939   4.192 -0.8211 -0.4547 -0.4503
   73MOL   C13030514   4.344   6.847   4.080  0.5727 -0.7685 -0.5947
   73MOL   C13130515   4.386   6.917   3.956  0.3065  0.1867  0.2828
   73MOL   C13230516   4.447   6.823   3.853 -0.3710 -0.1682 -0.6384
   73MOL   C13330517   4.503   6.899   3.733  0.3756 -0.2878 -0.0181
   73MOL   C13430518   4.536   6.801   3.622  0.1354 -0.3263  0.5361
   73MOL   H13530519   4.324   7.104   4.337 -0.4728  1.0383 -0.3731
   73MOL   H13630520   4.410   7.121   4.198 -0.6566  1.8683  0.7974
   73MOL   H13730521   4.267   6.875   4.278 -0.8918  0.6510  0.3655
   73MOL   H13830522   4.270   6.770   4.059 -1.1254  0.9644 -1.1106
   73MOL   H13930523   4.433   6.794   4.114 -1.3276 -2.6606  1.5754
   73MOL   H14030524   4.467   6.986   3.980  0.8330 -0.5935  0.7833
   73MOL   H14130525   4.304   6.978   3.919  0.2664 -0.1657 -0.2107
   73MOL   H14230526   4.366   6.755   3.826 -2.5030  1.7355  0.7174
   73MOL   H14330527   4.520   6.760   3.904 -2.3161 -3.0235 -1.3055
   73MOL   H14430528   4.587   6.961   3.766 -0.2758 -0.1071  1.3060
   73MOL   H14530529   4.433   6.978   3.705  1.2151  0.7435  0.7576
   73MOL   H14630530   4.554   6.707   3.675 -0.2364 -0.5580  0.2501
   73MOL   H14730531   4.629   6.828   3.572  1.1117  0.3055  2.6449
   73MOL   H14830532   4.449   6.792   3.557 -1.1941 -1.2272  2.4174
   73MOL   C14930533   4.151   7.012   4.161  0.0350 -0.4322  0.2990
   73MOL   C15030534   4.034   6.915   4.116  0.1298 -0.2437 -0.2097
   73MOL   C15130535   3.915   7.011   4.104  0.0250  0.1074 -0.2099
   73MOL   C15230536   3.802   6.960   4.007 -1.2533 -0.8607 -0.3242
   73MOL   C15330537   3.697   7.070   3.974 -0.5441 -0.7572 -0.0483
   73MOL   C15430538   3.580   7.020   3.883 -0.8034  0.4224 -0.0599
   73MOL   C15530539   3.473   7.126   3.853  0.1642  0.1719 -0.0327
   73MOL   H15630540   4.118   7.067   4.249 -0.8311 -0.6190  0.0873
   73MOL   H15730541   4.179   7.094   4.095  0.7509  0.3054  1.4822
   73MOL   H15830542   4.054   6.879   4.015 -3.9797 -0.9648 -0.8594
   73MOL   H15930543   3.865   7.022   4.200 -0.1923  1.6756 -0.4935
   73MOL   H16030544   3.943   7.111   4.073  0.7531 -0.5438 -1.6928
   73MOL   H16130545   3.745   6.887   4.064  0.9231 -1.0955  1.6031
   73MOL   H16230546   3.836   6.910   3.917  0.2268  0.1167 -0.3278
   73MOL   H16330547   3.747   7.157   3.932 -2.7825  0.1300 -0.9589
   73MOL   H16430548   3.650   7.107   4.065 -1.3370  2.1739 -1.5493
   73MOL   H16530549   3.535   6.930   3.925 -0.8537  0.5066  0.0641
   73MOL   H16630550   3.623   6.978   3.792  0.3101 -2.7986  1.8856
   73MOL   H16730551   3.397   7.132   3.930  0.4029  0.4992  0.1818
   73MOL   H16830552   3.422   7.097   3.761 -1.3527  1.5602  0.3623
   73MOL   H16930553   3.511   7.228   3.839 -2.2435  1.1661  0.5701
   73MOL   C17030554   3.998   6.799   4.215 -0.3083  0.1197  1.1128
   73MOL   C17130555   3.926   6.672   4.162 -0.7050 -0.3006  0.1540
   73MOL   C17230556   4.028   6.593   4.065  0.5185  0.1333 -0.0868
   73MOL   C17330557   3.973   6.491   3.964 -0.2701  0.1437 -0.6934
   73MOL   C17430558   4.083   6.451   3.867 -0.0399 -0.4184  0.1225
   73MOL   C17530559   4.013   6.379   3.740  0.3779  0.0959  0.5043
   73MOL   C17630560   4.111   6.311   3.641  0.0461  0.1375  0.1071
   73MOL   H17730561   3.946   6.848   4.298  0.3162 -0.5904  1.9318
   73MOL   H17830562   4.095   6.761   4.245 -0.0006 -0.3986 -0.5124
   73MOL   H17930563   3.838   6.692   4.100 -0.6688  0.3014  0.2952
   73MOL   H18030564   4.119   6.561   4.116  1.2320  2.4260  0.1739
   73MOL   H18130565   4.072   6.672   4.005  0.2085  1.2474  1.1173
   73MOL   H18230566   3.885   6.534   3.916  1.2542  3.5258 -0.5861
   73MOL   H18330567   3.935   6.405   4.019 -0.1741  0.5360  0.0008
   73MOL   H18430568   4.146   6.384   3.926  1.0884 -1.9197 -2.6998
   73MOL   H18530569   4.141   6.538   3.838 -1.2363  0.0499 -0.9115
   73MOL   H18630570   3.933   6.442   3.700  1.0541  0.7898  0.2271
   73MOL   H18730571   3.946   6.302   3.778  0.5077  0.1074  0.7620
   73MOL   H18830572   4.057   6.267   3.557 -0.1141 -0.4054  0.4880
   73MOL   H18930573   4.173   6.228   3.676  0.8101 -1.1222 -3.9507
   73MOL   H19030574   4.187   6.379   3.603  1.4352 -0.5782  1.5288
   73MOL   C19130575   3.876   6.570   4.274 -0.7433  0.0870  0.2640
   73MOL   C19230576   3.776   6.601   4.375 -0.2979  0.8265  0.2453
   73MOL   C19330577   3.832   6.697   4.485 -0.2509 -0.8559  0.2018
   73MOL   C19430578   3.755   6.694   4.618 -0.1555  0.0652  0.6292
   73MOL   C19530579   3.803   6.802   4.721 -0.6082  0.0461 -0.0410
   73MOL   C19630580   3.790   6.751   4.865  0.1964  0.0648  0.2345
   73MOL   C19730581   3.814   6.856   4.973 -0.5761  0.0471 -1.5702
   73MOL   H19830582   3.963   6.529   4.325  0.4388  1.4477 -0.6121
   73MOL   H19930583   3.836   6.484   4.220 -1.1997  0.4347  0.0437
   73MOL   H20030584   3.755   6.504   4.421 -1.0350 -0.7058 -3.1443
   73MOL   H20130585   3.813   6.799   4.450  1.4429 -0.6098 -0.0389
   73MOL   H20230586   3.941   6.699   4.498 -0.0233  0.1451 -1.6153
   73MOL   H20330587   3.751   6.601   4.674 -0.5427 -0.2460  0.0782
   73MOL   H20430588   3.652   6.714   4.590  0.2795  0.0318 -1.0470
   73MOL   H20530589   3.911   6.814   4.707 -0.4970 -0.4697  0.3201
   73MOL   H20630590   3.746   6.893   4.705  0.6251  0.5576 -1.6792
   73MOL   H20730591   3.867   6.674   4.859  0.8303  0.6533  0.6664
   73MOL   H20830592   3.701   6.693   4.887 -0.5087  1.1013  0.1231
   73MOL   H20930593   3.803   6.810   5.071 -0.2337  1.5099 -0.8341
   73MOL   H21030594   3.729   6.924   4.981 -0.8301 -0.4630  0.3655
   73MOL   H21130595   3.913   6.901   4.969 -0.8031  0.7520  0.1191
   73MOL   C21230596   3.642   6.656   4.311 -0.1747  0.4505 -0.1068
   73MOL   C21330597   3.563   6.554   4.212 -0.5346 -0.0578 -0.0995
   73MOL   C21430598   3.523   6.422   4.288  1.0358 -0.7024 -0.5293
   73MOL   C21530599   3.438   6.442   4.423  0.2529 -0.1621  0.0156
   73MOL   C21630600   3.409   6.306   4.492  0.3225  0.0615  0.2637
   73MOL   C21730601   3.276   6.241   4.437  0.1302  0.1653  0.0721
   73MOL   C21830602   3.262   6.096   4.463 -0.3583  0.1674 -0.5556
   73MOL   H21930603   3.669   6.749   4.260  3.8331  0.0976  1.2168
   73MOL   H22030604   3.581   6.694   4.393  2.4883 -0.5922  2.4442
   73MOL   H22130605   3.627   6.525   4.129 -0.8612 -0.2381 -0.2927
   73MOL   H22230606   3.470   6.369   4.209 -1.5069  1.0447 -0.0438
   73MOL   H22330607   3.615   6.367   4.306 -0.3971 -2.3436  1.9571
   73MOL   H22430608   3.344   6.494   4.405  1.5332  0.9985 -3.8275
   73MOL   H22530609   3.496   6.498   4.497 -2.7407  0.9714  1.6071
   73MOL   H22630610   3.497   6.244   4.475  0.8235  0.8642 -0.1162
   73MOL   H22730611   3.398   6.332   4.598 -0.9873 -0.5471  0.2905
   73MOL   H22830612   3.185   6.293   4.465 -0.9736 -0.9535 -1.3304
   73MOL   H22930613   3.287   6.244   4.328  1.3430  1.5591  0.2161
   73MOL   H23030614   3.195   6.050   4.391  3.7747 -1.7150 -3.3436
   73MOL   H23130615   3.237   6.077   4.568  0.2872  0.1586 -0.4038
   73MOL   H23230616   3.362   6.058   4.446 -0.7637 -0.6384 -1.1634
   73MOL   C23330617   3.441   6.614   4.142 -0.4305 -0.5332 -0.0449
   73MOL   C23430618   3.413   6.554   4.000 -0.4389 -0.1439  0.4450
   73MOL   C23530619   3.269   6.589   3.953  0.1430 -0.0181 -0.0848
   73MOL   C23630620   3.244   6.741   3.921 -0.1397 -0.7525  0.3322
   73MOL   C23730621   3.101   6.779   3.878 -0.4055 -0.1404  0.8590
   73MOL   C23830622   3.086   6.932   3.841  0.1500  0.0100 -0.0917
   73MOL   C23930623   3.076   7.024   3.954  0.0569  0.0875 -0.4819
   73MOL   H24030624   3.443   6.723   4.144 -2.4507 -0.4548 -0.9165
   73MOL   H24130625   3.355   6.584   4.202  1.0641  1.0929  3.0501
   73MOL   H24230626   3.417   6.446   4.007 -1.9551 -0.2960 -0.9181
   73MOL   H24330627   3.201   6.553   4.030  1.0655 -1.0736  0.2425
   73MOL   H24430628   3.246   6.544   3.856  0.7167  1.0543 -0.7274
   73MOL   H24530629   3.320   6.784   3.856 -0.5138  1.0766  1.0720
   73MOL   H24630630   3.264   6.792   4.015 -0.8301 -0.0409  0.1038
   73MOL   H24730631   3.022   6.746   3.945 -2.2234  0.3761 -0.9748
   73MOL   H24830632   3.085   6.731   3.782  0.4523  1.4870 -0.1311
   73MOL   H24930633   3.171   6.957   3.777  1.1841 -3.1391 -0.0272
   73MOL   H25030634   2.990   6.943   3.790  0.6764  0.8096 -0.9264
   73MOL   H25130635   3.093   7.121   3.909  0.6992  1.5224  2.6825
   73MOL   H25230636   2.980   7.022   4.006  0.4194  2.6702  0.3571
   73MOL   H25330637   3.135   6.996   4.042 -1.8479  0.4189  0.9399
   73MOL   C25430638   3.522   6.593   3.893 -0.0491 -0.0727  0.0951
   73MOL   C25530639   3.546   6.493   3.782  0.1243  0.6497  0.4940
   73MOL   C25630640   3.622   6.364   3.836  0.4611  0.3265  0.1026
   73MOL   C25730641   3.591   6.243   3.741  0.0352 -0.8576  0.2131
   73MOL   C25830642   3.663   6.110   3.787  0.0726 -0.7069 -0.5121
   73MOL   C25930643   3.643   6.000   3.686 -0.0310 -0.4204  0.2207
   73MOL   C26030644   3.678   5.868   3.754 -0.1257  0.3519  0.3241
   73MOL   H26130645   3.616   6.622   3.939  1.6524 -1.6163 -2.3089
   73MOL   H26230646   3.497   6.682   3.835  0.9915  1.4402  1.8984
   73MOL   H26330647   3.446   6.471   3.745  0.7883  0.8623 -1.5174
   73MOL   H26430648   3.588   6.343   3.938 -2.1959 -1.4427 -1.0705
   73MOL   H26530649   3.728   6.384   3.844  0.3945  1.7899 -2.2633
   73MOL   H26630650   3.485   6.220   3.745  0.1847 -1.7335 -0.8155
   73MOL   H26730651   3.619   6.259   3.637  2.3395  1.8053  1.1920
   73MOL   H26830652   3.648   6.076   3.890  1.5143  1.3376  0.4066
   73MOL   H26930653   3.770   6.129   3.795 -0.2107  0.6701  0.1093
   73MOL   H27030654   3.543   6.003   3.644 -0.6620  1.7096  1.8363
   73MOL   H27130655   3.717   6.023   3.609 -0.6261 -0.4651 -0.3669
   73MOL   H27230656   3.655   5.787   3.685 -0.0016 -0.7383  1.5670
   73MOL   H27330657   3.782   5.855   3.785  0.0723 -1.0081 -0.8563
   73MOL   H27430658   3.616   5.856   3.842  0.2051 -2.5275  0.1967
   73MOL   C27530659   3.624   6.554   3.662  0.0117 -0.0950  0.1403
   73MOL   C27630660   3.538   6.644   3.564  0.0195  0.0299 -0.3426
   73MOL   C27730661   3.528   6.587   3.415 -0.5749  0.1464  0.2632
   73MOL   C27830662   3.442   6.464   3.407  0.3063  0.1174 -0.4725
   73MOL   C27930663   3.455   6.395   3.266  0.1242  0.0556  1.2293
   73MOL   C28030664   3.574   6.300   3.260  0.4192  0.4528  0.1406
   73MOL   C28130665   3.587   6.253   3.111 -0.4905 -0.6256 -0.5542
   73MOL   H28230666   3.672   6.477   3.602 -0.5548  0.3767 -0.9263
   73MOL   H28330667   3.706   6.614   3.701  0.0232 -0.2990  0.4302
   73MOL   H28430668   3.442   6.654   3.614 -0.0104 -0.4304 -0.3064
   73MOL   H28530669   3.477   6.653   3.344  1.1684  1.2638  0.0103
   73MOL   H28630670   3.631   6.570   3.381  0.0305 -0.5352  2.3524
   73MOL   H28730671   3.341   6.497   3.431  0.5768  0.8259 -0.2789
   73MOL   H28830672   3.473   6.390   3.480 -1.6223 -0.1806  0.0518
   73MOL   H28930673   3.444   6.465   3.184 -1.3434  2.6217  3.5710
   73MOL   H29030674   3.359   6.344   3.255  0.6486 -0.9605  1.2364
   73MOL   H29130675   3.661   6.352   3.300  1.0573 -1.0877  0.7870
   73MOL   H29230676   3.562   6.216   3.329 -1.3577 -0.4912 -1.2930
   73MOL   H29330677   3.488   6.256   3.065 -0.6338  0.4753 -0.2000
   73MOL   H29430678   3.623   6.150   3.107 -0.7156 -0.6332 -2.9008
   73MOL   H29530679   3.659   6.310   3.051  0.0483 -0.7987 -0.0802
   73MOL   C29630680   3.604   6.785   3.557  0.1320  0.4073 -0.0760
   73MOL   C29730681   3.528   6.903   3.474  0.0312  0.7164  0.4366
   73MOL   C29830682   3.612   7.036   3.475 -0.3357  0.6941 -0.3141
   73MOL   C29930683   3.727   7.045   3.369  0.0653 -0.5020  0.2051
   73MOL   C30030684   3.823   7.168   3.384  0.1821 -0.0973  0.8020
   73MOL   C30130685   3.874   7.209   3.524  0.1458  0.4867 -0.6219
   73MOL   C30230686   3.981   7.310   3.522 -0.2583 -0.0042  0.0575
   73MOL   H30330687   3.625   6.828   3.654  4.5297  0.2317 -0.8597
   73MOL   H30430688   3.705   6.763   3.524 -0.8650 -2.2798 -1.5579
   73MOL   H30530689   3.532   6.869   3.370 -1.5996  0.8963  0.3083
   73MOL   H30630690   3.547   7.123   3.466 -1.2600 -0.1718 -2.3855
   73MOL   H30730691   3.654   7.029   3.575  0.5516 -1.4839 -0.8079
   73MOL   H30830692   3.682   7.048   3.269 -2.1288 -1.5079  1.1367
   73MOL   H30930693   3.783   6.952   3.372  1.9505  0.5977 -0.2405
   73MOL   H31030694   3.766   7.254   3.348  0.1584 -0.0767  0.8880
   73MOL   H31130695   3.907   7.154   3.315  0.2769 -1.0639  1.1002
   73MOL   H31230696   3.788   7.238   3.584  1.8281 -0.4002  2.3150
   73MOL   H31330697   3.917   7.126   3.579 -3.7092  0.8785  3.2936
   73MOL   H31430698   3.952   7.393   3.458  4.2850  1.7287  0.0470
   73MOL   H31530699   4.004   7.333   3.626  0.1031 -2.3787  0.5447
   73MOL   H31630700   4.061   7.255   3.472 -1.4310 -1.6871 -0.0351
   73MOL   C31730701   3.375   6.922   3.514 -0.3812 -0.3120 -0.0553
   73MOL   C31830702   3.290   7.008   3.414 -0.3911  0.0465  0.6032
   73MOL   C31930703   3.290   6.954   3.265 -0.3249 -0.1637  0.1670
   73MOL   C32030704   3.235   7.042   3.151 -0.2904 -0.1959  0.4635
   73MOL   C32130705   3.268   6.997   3.003  0.3347  0.2171 -0.6198
   73MOL   C32230706   3.420   7.014   2.971 -0.3161  0.0816  0.4028
   73MOL   C32330707   3.441   6.952   2.836  0.1158 -0.2996 -0.1489
   73MOL   H32430708   3.371   6.964   3.615 -1.2049 -2.2374  0.7469
   73MOL   H32530709   3.336   6.820   3.524 -0.8182 -0.3224 -1.7127
   73MOL   H32630710   3.341   7.104   3.407  0.6796 -0.5069  0.8340
   73MOL   H32730711   3.257   6.851   3.247 -0.3790  0.0336 -0.9400
   73MOL   H32830712   3.396   6.952   3.239 -0.4671 -1.8837 -0.3859
   73MOL   H32930713   3.282   7.139   3.168  1.3527 -1.1415  1.4719
   73MOL   H33030714   3.127   7.053   3.158 -0.4861 -0.3372 -1.9599
   73MOL   H33130715   3.204   7.051   2.933 -1.5254 -0.2302  0.6787
   73MOL   H33230716   3.240   6.892   3.001 -1.9842  0.7330  1.5278
   73MOL   H33330717   3.485   6.965   3.043 -2.4267 -2.3473  0.7375
   73MOL   H33430718   3.436   7.122   2.971  0.3255  0.0104  1.9805
   73MOL   H33530719   3.405   7.009   2.750  0.8932  1.3309  0.5856
   73MOL   H33630720   3.395   6.855   2.816  0.1070 -0.1157 -1.0601
   73MOL   H33730721   3.547   6.934   2.816  1.0842  3.4005  1.2300
   73MOL   C33830722   3.138   7.034   3.468  0.1425  0.0620  0.6320
   73MOL   C33930723   3.085   7.177   3.442  0.2293  0.3912 -0.1334
   73MOL   C34030724   3.111   7.263   3.563  0.4631 -0.3729  0.2717
   73MOL   C34130725   3.256   7.314   3.591 -0.0645  0.4154  0.2652
   73MOL   C34230726   3.312   7.417   3.500 -0.5981  0.2589 -0.1446
   73MOL   C34330727   3.443   7.482   3.554  0.1236 -0.1466  0.1542
   73MOL   C34430728   3.464   7.608   3.466  0.2529  0.2492 -0.2788
   73MOL   H34530729   3.140   7.021   3.576 -0.0145  0.6698  0.7097
   73MOL   H34630730   3.069   6.956   3.437  1.1503 -0.1390 -1.2232
   73MOL   H34730731   3.135   7.220   3.355  2.3905 -0.0885  0.8294
   73MOL   H34830732   3.051   7.354   3.564  1.2953  0.2366 -1.8964
   73MOL   H34930733   3.090   7.210   3.656  0.0845 -1.3999 -0.4074
   73MOL   H35030734   3.335   7.238   3.585  0.5889  0.9108  2.2830
   73MOL   H35130735   3.258   7.353   3.692  1.3590 -2.3663  1.3802
   73MOL   H35230736   3.338   7.361   3.410  0.7641  0.4116  0.1451
   73MOL   H35330737   3.232   7.486   3.472  0.0972  0.4825 -1.6327
   73MOL   H35430738   3.425   7.524   3.653  1.0292  0.2427  0.1647
   73MOL   H35530739   3.536   7.424   3.556 -0.6349 -1.3473  1.6372
   73MOL   H35630740   3.389   7.687   3.457  0.3828  0.2041 -1.9041
   73MOL   H35730741   3.490   7.582   3.364 -1.1858  0.9423 -0.8367
   73MOL   H35830742   3.554   7.655   3.507  1.4210  0.2781 -2.7829
   73MOL   C35930743   2.933   7.165   3.417  0.0704 -0.8383  0.1720
   73MOL   C36030744   2.888   7.210   3.280  0.4921 -0.0137  0.3872
   73MOL   C36130745   2.744   7.151   3.260  0.0705 -0.3744 -0.1928
   73MOL   C36230746   2.727   6.995   3.234 -0.0172 -0.8392  0.0502
   73MOL   C36330747   2.807   6.940   3.114 -0.4409 -0.2076 -0.6424
   73MOL   C36430748   2.792   6.791   3.087  0.6586  0.2324 -0.8775
   73MOL   C36530749   2.889   6.732   2.982  0.6147 -0.5136 -0.3359
   73MOL   H36630750   2.892   7.226   3.497  0.1747  1.2110 -1.2971
   73MOL   H36730751   2.890   7.065   3.425  0.5041 -1.1504 -1.1907
   73MOL   H36830752   2.952   7.157   3.210 -1.1432  1.3997 -2.2758
   73MOL   H36930753   2.675   7.168   3.342  1.6613  0.5734  0.9597
   73MOL   H37030754   2.693   7.202   3.178  0.8683 -2.8267 -2.3038
   73MOL   H37130755   2.755   6.941   3.325  0.2371  1.6617  1.4920
   73MOL   H37230756   2.621   6.983   3.215 -0.1607 -0.1171  0.3999
   73MOL   H37330757   2.774   6.995   3.025  2.9214  0.2411 -1.6695
   73MOL   H37430758   2.910   6.972   3.129 -1.0171  1.6482 -0.5519
   73MOL   H37530759   2.790   6.731   3.177  1.9114  1.2137 -0.1702
   73MOL   H37630760   2.690   6.785   3.051  0.5344 -0.2017 -0.4512
   73MOL   H37730761   2.886   6.774   2.882 -2.0993  0.4305  0.0970
   73MOL   H37830762   2.992   6.742   3.016  0.6418  4.6612 -1.6003
   73MOL   H37930763   2.869   6.627   2.960 -1.9070  0.1708 -1.4950
   73MOL   C38030764   2.881   7.369   3.268 -0.7116 -0.0476  0.3165
   73MOL   C38130765   2.890   7.412   3.117  0.0336 -0.7172  0.2221
   73MOL   C38230766   2.881   7.567   3.107 -0.7102  0.7159 -0.5472
   73MOL   C38330767   2.743   7.628   3.139 -0.0277  0.0087 -0.2917
   73MOL   C38430768   2.644   7.611   3.022  0.0524  0.7097  0.5899
   73MOL   C38530769   2.539   0.001   3.031  0.4988 -0.6378  0.2668
   73MOL   C38630770   2.459   0.023   2.901 -0.1077  0.2667 -0.4675
   73MOL   H38730771   2.789   7.403   3.315 -1.4525 -0.9993 -0.3876
   73MOL   H38830772   2.955   7.417   3.331 -0.8469  1.3787 -0.5864
   73MOL   H38930773   2.809   7.372   3.056 -1.7270  0.3423  1.8446
   73MOL   H39030774   2.903   7.593   3.004  0.6508 -0.3667 -0.5497
   73MOL   H39130775   2.956   7.606   3.177 -1.3666 -1.0827  1.2095
   73MOL   H39230776   2.693   7.580   3.224 -3.1300  1.8405 -1.0078
   73MOL   H39330777   2.753   0.021   3.160 -0.6108 -0.0040  0.0790
   73MOL   H39430778   2.699   7.637   2.931 -1.4612  0.1529 -0.4941
   73MOL   H39530779   2.606   7.510   3.013 -1.1089  1.2724 -1.1142
   73MOL   H39630780   2.597   0.087   3.065  0.3959 -1.4473  2.6130
   73MOL   H39730781   2.473   7.691   3.115 -1.0653 -2.5127 -1.4312
   73MOL   H39830782   2.522   0.055   2.818 -1.1392  1.1189 -0.9438
   73MOL   H39930783   2.369   0.085   2.905  0.0346  0.4609 -0.2440
   73MOL   H40030784   2.411   7.646   2.863 -0.3094  0.1822 -0.0160
   73MOL   C40130785   3.018   7.366   3.042 -0.4054 -0.2528 -0.3530
   73MOL   C40230786   3.146   7.420   3.094 -0.1861  0.0719 -0.4563
   73MOL   C40330787   3.279   7.390   3.023 -0.0740 -0.3729 -0.0047
   73MOL   C40430788   3.403   7.415   3.109 -0.1928  0.0823  0.2981
   73MOL   C40530789   3.536   7.446   3.032  0.2853  0.1614 -0.3157
   73MOL   C40630790   3.649   7.450   3.135  0.0786 -0.3071  0.5788
   73MOL   C40730791   3.786   7.475   3.063  0.5206  0.3190  0.3033
   73MOL   H40830792   3.009   7.398   2.938  0.3755 -0.8165 -0.5989
   73MOL   H40930793   3.021   7.257   3.039  3.2554 -0.3787  3.4387
   73MOL   H41030794   3.172   7.385   3.194  1.1018  0.1682 -0.7579
   73MOL   H41130795   3.290   7.450   2.933 -3.0917 -0.3197 -0.3887
   73MOL   H41230796   3.260   7.288   2.989  0.5309  0.2206 -2.1658
   73MOL   H41330797   3.414   7.337   3.185  1.4456 -1.4218 -1.4362
   73MOL   H41430798   3.380   7.503   3.169 -1.8451 -0.8093  0.9966
   73MOL   H41530799   3.560   7.378   2.950  0.8872  3.5756 -3.0651
   73MOL   H41630800   3.518   7.541   2.982  0.5153  0.2476 -0.2341
   73MOL   H41730801   3.629   7.530   3.207  1.9928 -1.9491  3.0297
   73MOL   H41830802   3.649   7.365   3.204 -1.9827 -1.2243 -0.5262
   73MOL   H41930803   3.808   7.392   2.995 -2.0494  0.5457 -0.8594
   73MOL   H42030804   3.867   7.484   3.135 -0.0590 -2.5761  1.3934
   73MOL   H42130805   3.782   7.566   3.003 -0.8554 -0.5230 -0.9417
   73MOL   H42230806   3.138   7.528   3.089  0.2524  0.1055 -0.4680
   74MOL     C130807   5.473   1.533   1.058  0.5499  0.2148 -0.3476
   74MOL     C230808   5.349   1.435   1.039 -0.2140 -0.7160 -0.0821
   74MOL     C330809   5.247   1.448   1.153  0.1299 -0.6016  0.2082
   74MOL     C430810   5.202   1.591   1.183  0.1332 -0.2035  0.7856
   74MOL     C530811   5.091   1.602   1.273 -0.4729  0.1232  0.0600
   74MOL     C630812   5.042   1.746   1.296  0.0922 -0.6263  0.2107
   74MOL     C730813   4.930   1.751   1.397  1.0449  0.1569 -0.4568
   74MOL     H830814   5.527   1.517   1.151  0.1378  1.4931  0.1082
   74MOL     H930815   5.460   1.638   1.033  0.1578  0.0050 -1.0310
   74MOL    H1030816   5.302   1.476   0.950 -3.5686 -2.5339  0.7516
   74MOL    H1130817   5.163   1.381   1.137 -0.0572  0.2033 -2.3217
   74MOL    H1230818   5.297   1.416   1.245 -1.2849  0.6796  1.4622
   74MOL    H1330819   5.282   1.658   1.216 -1.5215  1.5575  1.3233
   74MOL    H1430820   5.175   1.639   1.089  4.3316  1.1755  0.1930
   74MOL    H1530821   5.116   1.555   1.368 -0.4685  0.6640  0.3266
   74MOL    H1630822   5.014   1.538   1.229  0.5964 -0.9510 -0.2543
   74MOL    H1730823   5.009   1.795   1.204  1.3717  0.7817  0.4729
   74MOL    H1830824   5.122   1.811   1.332  0.8740 -0.3486 -1.9826
   74MOL    H1930825   4.949   1.697   1.489 -1.6014  0.2155  0.1456
   74MOL    H2030826   4.841   1.708   1.352  1.1031 -2.0825  1.5038
   74MOL    H2130827   4.916   1.855   1.428 -0.2674 -0.0778 -0.2325
   74MOL    H2230828   5.541   1.508   0.976 -1.3663 -1.2020 -1.5573
   74MOL    C2330829   5.393   1.292   1.000  0.3010  0.4016 -0.5093
   74MOL    C2430830   5.280   1.200   0.949  0.1528  0.3713 -0.1995
   74MOL    C2530831   5.318   1.049   0.951 -0.5219  0.3809 -0.3508
   74MOL    C2630832   5.286   0.992   1.084 -0.1934 -0.3945 -0.3005
   74MOL    C2730833   5.155   0.916   1.114 -0.3063  1.5762  0.2249
   74MOL    C2830834   5.143   0.868   1.262 -0.0497  0.2308 -0.9477
   74MOL    C2930835   5.122   0.977   1.364  0.1175  0.3949 -0.6921
   74MOL    H3030836   5.464   1.286   0.918  0.6245  0.6313 -0.2461
   74MOL    H3130837   5.432   1.234   1.083 -1.5428 -1.8198 -1.1604
   74MOL    H3230838   5.199   1.219   1.020  1.2441  2.6269  0.5107
   74MOL    H3330839   5.425   1.041   0.929  0.2513  0.3308  3.1744
   74MOL    H3430840   5.272   0.996   0.867  0.8195  0.5044 -1.1877
   74MOL    H3530841   5.311   1.051   1.172 -1.9822  0.7871 -0.5620
   74MOL    H3630842   5.356   0.909   1.078  1.6717  1.1291 -0.2088
   74MOL    H3730843   5.155   0.819   1.063 -0.7708 -0.1806  3.4313
   74MOL    H3830844   5.069   0.973   1.080 -1.3826 -1.3626 -2.3035
   74MOL    H3930845   5.234   0.817   1.292 -0.5353  1.5048  2.9637
   74MOL    H4030846   5.067   0.790   1.264 -1.9962  2.0786 -0.4819
   74MOL    H4130847   5.106   0.937   1.464  2.4815  1.6286  0.2310
   74MOL    H4230848   5.203   1.051   1.371 -1.1191  1.5677  1.9009
   74MOL    H4330849   5.033   1.036   1.342  0.9538  1.7775 -0.4732
   74MOL    C4430850   5.221   1.238   0.816 -0.4375  0.2216  0.2532
   74MOL    C4530851   5.079   1.185   0.784 -0.3559 -0.3083  0.7571
   74MOL    C4630852   4.967   1.275   0.841 -0.3280 -0.2664 -0.3152
   74MOL    C4730853   4.824   1.216   0.839 -0.2339  0.1982 -0.2551
   74MOL    C4830854   4.715   1.313   0.899 -0.0898 -0.1685 -0.9790
   74MOL    C4930855   4.571   1.260   0.872 -0.3219 -0.3298 -1.4201
   74MOL    C5030856   4.460   1.361   0.906  0.5104  0.1831 -0.5023
   74MOL    H5130857   5.286   1.209   0.734  0.9434  0.1465  1.3450
   74MOL    H5230858   5.222   1.347   0.815  1.6301  0.2279 -0.6029
   74MOL    H5330859   5.069   1.091   0.838 -0.5899 -1.2488 -0.8974
   74MOL    H5430860   4.964   1.367   0.783 -0.9258  0.7488  1.3231
   74MOL    H5530861   4.985   1.311   0.942 -0.9051  1.0216 -0.6643
   74MOL    H5630862   4.787   1.187   0.741  2.9951 -0.3836 -1.3402
   74MOL    H5730863   4.819   1.134   0.910  0.8993 -0.0472 -0.4674
   74MOL    H5830864   4.731   1.414   0.862  1.4246  0.2925  0.8529
   74MOL    H5930865   4.726   1.317   1.007 -1.4193  1.6478 -0.8810
   74MOL    H6030866   4.551   1.170   0.930  0.0739  0.6259  0.2317
   74MOL    H6130867   4.569   1.237   0.765 -0.8810 -0.2905 -1.4200
   74MOL    H6230868   4.374   1.318   0.957  0.2994 -0.7172 -1.6019
   74MOL    H6330869   4.429   1.416   0.817 -0.7858 -1.3367 -1.0181
   74MOL    H6430870   4.498   1.443   0.966  1.4913 -1.0775  0.6385
   74MOL    C6530871   5.064   1.166   0.629  0.4460 -0.1186 -0.0856
   74MOL    C6630872   5.102   1.019   0.591  0.3184  0.4872  0.0644
   74MOL    C6730873   5.140   1.016   0.434  0.5285 -0.3059 -0.7521
   74MOL    C6830874   5.278   1.082   0.402  0.4832 -0.1784 -0.1820
   74MOL    C6930875   5.394   1.050   0.495 -0.1982  0.2957  0.4211
   74MOL    C7030876   5.462   0.915   0.475  0.0202  0.6438  0.0499
   74MOL    C7130877   5.554   0.875   0.589 -0.6338 -0.0562  0.6036
   74MOL    H7230878   4.960   1.185   0.604  0.9515  1.8677 -0.8114
   74MOL    H7330879   5.102   1.248   0.568 -0.5034  1.5443  1.4914
   74MOL    H7430880   5.191   0.987   0.644  1.5442  1.2704 -1.4898
   74MOL    H7530881   5.141   0.914   0.397 -2.2530 -0.6123 -0.0399
   74MOL    H7630882   5.062   1.070   0.381 -1.3415 -1.0484  1.1660
   74MOL    H7730883   5.296   1.049   0.300  1.0909 -0.6424  0.0754
   74MOL    H7830884   5.266   1.191   0.405 -0.7773 -0.2661 -1.2797
   74MOL    H7930885   5.467   1.130   0.478 -0.5297  0.2084 -1.4699
   74MOL    H8030886   5.372   1.061   0.602 -0.7804 -0.5751  0.3976
   74MOL    H8130887   5.527   0.919   0.388 -1.3605 -2.5223 -1.2417
   74MOL    H8230888   5.389   0.837   0.450  2.7476 -2.6197  1.7994
   74MOL    H8330889   5.581   0.769   0.583  1.5674  0.4069  1.8813
   74MOL    H8430890   5.638   0.943   0.581 -1.6453  0.9593 -1.8409
   74MOL    H8530891   5.491   0.884   0.677  0.0330 -0.1006  1.0871
   74MOL    C8630892   4.982   0.923   0.637  0.3398  0.0494 -0.0567
   74MOL    C8730893   5.018   0.800   0.717 -0.9311 -0.1286  0.3795
   74MOL    C8830894   4.895   0.716   0.763 -0.3163  0.0220  0.6419
   74MOL    C8930895   4.825   0.786   0.881  0.1416  0.0878  0.6852
   74MOL    C9030896   4.754   0.691   0.970 -0.2679  0.1042  0.0739
   74MOL    C9130897   4.651   0.748   1.070 -0.2872  0.1104  0.4315
   74MOL    C9230898   4.525   0.816   1.002  0.0996  0.0605 -0.0926
   74MOL    H9330899   4.897   0.977   0.681 -0.3516 -0.2842 -0.9722
   74MOL    H9430900   4.940   0.889   0.543  2.9154  1.2319 -1.6965
   74MOL    H9530901   5.078   0.834   0.801  0.4577 -0.5739 -0.4058
   74MOL    H9630902   4.832   0.711   0.673  0.1976  2.5783  0.1074
   74MOL    H9730903   4.925   0.614   0.786  0.4203 -0.1018 -0.7617
   74MOL    H9830904   4.900   0.837   0.942  0.5147  0.0121  0.2919
   74MOL    H9930905   4.760   0.863   0.839  1.8048  0.6827 -0.8885
   74MOL   H10030906   4.826   0.634   1.029 -1.0508 -1.2159 -0.2442
   74MOL   H10130907   4.704   0.608   0.921 -0.6512  0.6183 -0.4177
   74MOL   H10230908   4.614   0.668   1.135  1.8497  0.3128  1.9753
   74MOL   H10330909   4.704   0.820   1.132  1.0111 -0.2708 -0.2228
   74MOL   H10430910   4.462   0.846   1.086 -0.3053  0.1927 -0.4453
   74MOL   H10530911   4.468   0.748   0.939  0.3755  1.1641 -1.5643
   74MOL   H10630912   4.550   0.907   0.946  1.2776 -0.0409  0.2473
   74MOL   C10730913   5.104   0.711   0.629  0.4349 -0.3064  0.2070
   74MOL   C10830914   5.187   0.589   0.701 -0.2251  0.4233  0.5081
   74MOL   C10930915   5.302   0.538   0.607 -0.6500 -0.6591  0.2577
   74MOL   C11030916   5.242   0.472   0.482  0.2122 -0.1299 -1.1635
   74MOL   C11130917   5.356   0.462   0.371  0.5053 -0.3835 -0.6468
   74MOL   C11230918   5.314   0.394   0.246 -0.0284 -0.6633 -0.6709
   74MOL   C11330919   5.275   0.250   0.271 -0.0884 -0.2212 -0.1187
   74MOL   H11430920   5.175   0.773   0.572 -0.1041  0.8334  0.7634
   74MOL   H11530921   5.041   0.672   0.549  1.2243  2.5491 -1.9120
   74MOL   H11630922   5.115   0.509   0.715 -0.9741  1.1806  1.0372
   74MOL   H11730923   5.365   0.461   0.651  1.2816  0.5190 -0.3967
   74MOL   H11830924   5.365   0.622   0.578  0.6855 -1.2929  1.2939
   74MOL   H11930925   5.211   0.373   0.515 -2.8760  1.3665  0.6355
   74MOL   H12030926   5.156   0.525   0.440  1.4409 -0.3157 -4.0081
   74MOL   H12130927   5.448   0.421   0.414 -0.9724  0.1785  3.1741
   74MOL   H12230928   5.375   0.565   0.341 -0.6814 -0.2983 -1.1163
   74MOL   H12330929   5.224   0.441   0.205 -0.4932 -1.3787 -0.4902
   74MOL   H12430930   5.393   0.405   0.171  1.2383  0.6754  0.8405
   74MOL   H12530931   5.273   0.204   0.172  0.0199 -1.5778  0.5083
   74MOL   H12630932   5.345   0.186   0.325  0.0338  1.4748  1.8206
   74MOL   H12730933   5.177   0.242   0.318 -0.2799 -0.3178 -0.5264
   74MOL   C12830934   5.239   0.637   0.837 -0.4581 -0.1819 -0.6223
   74MOL   C12930935   5.297   0.517   0.928  0.3327 -0.2868 -0.2495
   74MOL   C13030936   5.187   0.414   0.972 -0.8743 -0.1565  0.1225
   74MOL   C13130937   5.066   0.461   1.057 -1.3467  0.0369 -0.5010
   74MOL   C13230938   5.091   0.464   1.209  0.2220  0.2133 -0.8651
   74MOL   C13330939   4.957   0.470   1.271 -0.2822  0.1013  0.0568
   74MOL   C13430940   4.975   0.470   1.423  0.4242  0.1084  0.0302
   74MOL   H13530941   5.306   0.723   0.835  0.3193 -0.8018 -1.7825
   74MOL   H13630942   5.149   0.667   0.891  0.3831  2.4755 -0.5837
   74MOL   H13730943   5.353   0.455   0.858 -0.0162  0.2544 -1.0210
   74MOL   H13830944   5.241   0.327   1.009 -0.7078  0.3090  0.9931
   74MOL   H13930945   5.137   0.376   0.883 -1.8626  1.0675  0.1506
   74MOL   H14030946   4.985   0.392   1.035 -2.4137  1.4066 -0.9317
   74MOL   H14130947   5.028   0.557   1.022 -0.9783 -0.0242 -1.0695
   74MOL   H14230948   5.145   0.553   1.240  0.1528 -0.8379  2.4895
   74MOL   H14330949   5.147   0.379   1.247 -0.4271 -0.4877 -1.4536
   74MOL   H14430950   4.897   0.382   1.247  0.6769  0.0095 -2.1117
   74MOL   H14530951   4.899   0.559   1.247  0.7621  0.6723 -0.3799
   74MOL   H14630952   4.878   0.495   1.466  0.3867  0.0764 -0.0346
   74MOL   H14730953   5.045   0.546   1.458 -0.3645  0.2107  1.4082
   74MOL   H14830954   5.011   0.370   1.450  0.6901 -0.6753 -2.9576
   74MOL   C14930955   5.385   0.569   1.037 -0.3462  0.2351  0.1484
   74MOL   C15030956   5.538   0.598   0.992 -0.0352 -0.3794  0.4838
   74MOL   C15130957   5.606   0.464   0.958 -0.4334  1.0728 -0.1213
   74MOL   C15230958   5.603   0.347   1.064  0.2122  0.3194 -0.4223
   74MOL   C15330959   5.719   0.253   1.055 -0.2642 -0.1218  0.1782
   74MOL   C15430960   5.835   0.312   1.130 -0.6893 -0.1640  0.0914
   74MOL   C15530961   5.821   0.311   1.286 -0.8766 -0.1339  0.2397
   74MOL   H15630962   5.341   0.658   1.082  0.7008  0.8749 -0.0458
   74MOL   H15730963   5.392   0.504   1.124 -1.6309 -0.4677 -0.2696
   74MOL   H15830964   5.527   0.661   0.904 -0.9906 -0.4591  0.5378
   74MOL   H15930965   5.574   0.427   0.860  0.2297 -0.1919  0.1265
   74MOL   H16030966   5.711   0.486   0.937 -0.2906  0.1549 -0.3933
   74MOL   H16130967   5.511   0.293   1.041  1.8728 -2.0873 -1.4707
   74MOL   H16230968   5.596   0.381   1.168 -1.5466 -2.1494  0.3097
   74MOL   H16330969   5.736   0.225   0.951  0.2524  1.9046 -0.3020
   74MOL   H16430970   5.694   0.157   1.102 -2.7182  1.2712  1.7800
   74MOL   H16530971   5.845   0.414   1.092 -2.1598 -0.3992 -0.9779
   74MOL   H16630972   5.927   0.256   1.111 -0.8620 -0.8065  1.0550
   74MOL   H16730973   5.769   0.402   1.315 -1.2139 -0.5868  1.0662
   74MOL   H16830974   5.920   0.306   1.332 -1.3356 -2.9149  1.0079
   74MOL   H16930975   5.773   0.225   1.331  0.3967 -1.5743 -1.0820
   74MOL   C17030976   5.621   0.682   1.094 -0.2362  0.6410 -0.4883
   74MOL   C17130977   5.737   0.759   1.032 -0.1033  0.2151  0.9752
   74MOL   C17230978   5.676   0.887   0.955  0.4574  0.0482  0.0347
   74MOL   C17330979   5.778   0.967   0.866 -0.6853  0.3596  1.0628
   74MOL   C17430980   5.727   1.095   0.806  1.0781 -0.5058 -0.3393
   74MOL   C17530981   5.814   1.165   0.697 -0.0683 -0.0203 -0.6165
   74MOL   C17630982   5.732   1.255   0.602 -0.1855 -0.6675 -0.3139
   74MOL   H17730983   5.653   0.624   1.182  0.0190  2.2653  0.5056
   74MOL   H17830984   5.557   0.758   1.138 -0.4459  1.2475 -1.8234
   74MOL   H17930985   5.778   0.703   0.947  2.0982 -0.2082  2.2720
   74MOL   H18030986   5.654   0.956   1.036 -2.0834  0.5862 -1.0756
   74MOL   H18130987   5.586   0.863   0.899  1.7272 -1.2709 -1.4975
   74MOL   H18230988   5.789   0.898   0.783 -3.3908  2.2873 -1.0045
   74MOL   H18330989   5.865   0.986   0.928  0.0083  0.6928 -0.0061
   74MOL   H18430990   5.716   1.164   0.889 -1.1755  0.2438 -1.2128
   74MOL   H18530991   5.624   1.074   0.776  0.1149  0.9957  1.7939
   74MOL   H18630992   5.854   1.078   0.645 -1.2437 -0.7111 -0.3974
   74MOL   H18730993   5.901   1.213   0.743 -0.9440 -0.2321  1.3230
   74MOL   H18830994   5.671   1.189   0.539  1.3638 -2.5112  0.0652
   74MOL   H18930995   5.793   1.322   0.542  0.9346  0.4386  1.9900
   74MOL   H19030996   5.652   1.311   0.650  0.3595  0.7748 -1.0594
   74MOL   C19130997   5.845   0.803   1.134 -0.3952 -0.3333  0.0881
   74MOL   C19230998   5.937   0.690   1.194 -0.7069 -0.3302  0.0657
   74MOL   C19330999   6.041   0.646   1.082  0.2946 -0.1308  0.1987
   74MOL   C19431000   6.136   0.522   1.110 -0.2666  0.1515  0.9056
   74MOL   C19531001   6.192   0.480   0.970 -0.2293  0.7355 -0.4323
   74MOL   C19631002   6.279   0.358   0.987  0.3522  0.2339 -0.6886
   74MOL   C19731003   6.414   0.384   1.051 -0.0966  0.9393 -0.5511
   74MOL   H19831004   5.795   0.858   1.214  2.8716  0.9247  1.3958
   74MOL   H19931005   5.915   0.881   1.103  0.8073 -0.6348  1.8961
   74MOL   H20031006   5.879   0.603   1.226  0.4101 -0.9495  0.4355
   74MOL   H20131007   6.103   0.734   1.066 -0.6156  0.6507  0.8795
   74MOL   H20231008   5.982   0.636   0.991 -0.1682 -1.6073  0.6437
   74MOL   H20331009   6.081   0.441   1.156 -0.0284 -0.1910  0.5962
   74MOL   H20431010   6.213   0.555   1.179 -1.4273  0.3084  2.1282
   74MOL   H20531011   6.113   0.462   0.896 -0.3057 -3.0107  0.4838
   74MOL   H20631012   6.250   0.562   0.928 -1.9810  1.7949 -0.8814
   74MOL   H20731013   6.297   0.312   0.890 -1.0853  0.6713 -1.1745
   74MOL   H20831014   6.223   0.279   1.039 -0.1223 -0.0735 -1.6506
   74MOL   H20931015   6.465   0.471   1.009  0.7829  0.8479  0.3145
   74MOL   H21031016   6.474   0.296   1.029 -3.4667 -1.1954 -1.5813
   74MOL   H21131017   6.410   0.391   1.159  0.9825  1.7672 -0.5493
   74MOL   C21231018   6.012   0.735   1.327  0.4451 -0.6921 -0.5219
   74MOL   C21331019   5.928   0.750   1.456  0.3495 -0.4422  0.0232
   74MOL   C21431020   5.889   0.614   1.522  0.6257  0.2198 -0.0171
   74MOL   C21531021   5.747   0.595   1.585 -0.0271 -0.4531 -0.4842
   74MOL   C21631022   5.768   0.564   1.735 -0.2509  0.0645  0.4120
   74MOL   C21731023   5.644   0.574   1.819  0.3239  0.2530 -0.3773
   74MOL   C21831024   5.652   0.503   1.955  0.4794 -0.0887  0.6054
   74MOL   H21931025   6.051   0.833   1.300  0.8813 -0.5151  0.6997
   74MOL   H22031026   6.100   0.678   1.354  1.8607  1.7615  0.1948
   74MOL   H22131027   5.834   0.802   1.439  0.3691 -0.9900 -1.8580
   74MOL   H22231028   5.899   0.547   1.437 -0.6450  0.5064 -0.4089
   74MOL   H22331029   5.974   0.587   1.583  0.5112 -0.8861 -0.3382
   74MOL   H22431030   5.710   0.504   1.537 -2.2552  0.1336  0.0944
   74MOL   H22531031   5.678   0.672   1.552 -0.8169 -1.2601 -0.7274
   74MOL   H22631032   5.812   0.464   1.736 -0.3485 -0.0518 -2.5328
   74MOL   H22731033   5.837   0.641   1.769  1.7726 -1.7663  0.5717
   74MOL   H22831034   5.604   0.675   1.833  2.3977  1.4175 -2.4602
   74MOL   H22931035   5.569   0.533   1.751  1.1110 -0.9857 -0.5123
   74MOL   H23031036   5.558   0.491   2.009 -0.3445 -1.3476 -1.0903
   74MOL   H23131037   5.700   0.564   2.032  1.2435 -0.9218  0.8040
   74MOL   H23231038   5.708   0.410   1.950  0.9664  0.2551 -0.5002
   74MOL   C23331039   5.993   0.828   1.567  0.1438  0.1419 -0.3247
   74MOL   C23431040   6.062   0.964   1.534 -0.4134 -0.1210  0.2286
   74MOL   C23531041   5.965   1.059   1.462 -0.7550  0.1629 -0.9878
   74MOL   C23631042   5.840   1.102   1.546  0.4521  0.4273 -0.1413
   74MOL   C23731043   5.781   1.233   1.492  1.1045 -0.1223  0.6768
   74MOL   C23831044   5.689   1.212   1.369  0.1816  0.8533 -0.2478
   74MOL   C23931045   5.567   1.131   1.383  0.8388 -0.0747  0.7655
   74MOL   H24031046   6.070   0.764   1.610 -0.0503  0.2543  0.1980
   74MOL   H24131047   5.924   0.839   1.651 -0.3653 -0.7437 -0.6158
   74MOL   H24231048   6.140   0.955   1.458  1.2934 -1.2063  2.0642
   74MOL   H24331049   5.934   1.017   1.366 -3.2317  1.4413 -0.7791
   74MOL   H24431050   6.025   1.149   1.448 -1.3071  0.5055 -1.1773
   74MOL   H24531051   5.884   1.117   1.644  0.5067 -1.4987  0.1555
   74MOL   H24631052   5.761   1.027   1.542  0.7622 -0.0571  2.2303
   74MOL   H24731053   5.862   1.304   1.471 -1.0380  2.3498  0.5275
   74MOL   H24831054   5.721   1.281   1.570 -0.6289  0.4342 -0.9790
   74MOL   H24931055   5.648   1.308   1.338  0.1443  0.8410 -0.2368
   74MOL   H25031056   5.751   1.190   1.282  0.5585 -0.5919  0.3641
   74MOL   H25131057   5.492   1.168   1.314  0.3919  5.2772  3.8188
   74MOL   H25231058   5.574   1.025   1.360 -0.0930 -0.5372  2.5114
   74MOL   H25331059   5.523   1.135   1.483  1.9144  0.1183  1.2418
   74MOL   C25431060   6.132   1.027   1.658 -0.3041 -0.1262 -0.7675
   74MOL   C25531061   6.256   0.951   1.715  0.8857  0.0935  0.1464
   74MOL   C25631062   6.273   0.973   1.863 -0.4088 -0.1427  0.3517
   74MOL   C25731063   6.188   0.882   1.952 -0.6104  0.1147 -0.4946
   74MOL   C25831064   6.177   0.738   1.923 -0.0947 -0.0138 -0.2492
   74MOL   C25931065   6.086   0.665   2.015  0.1328  0.6115 -0.2014
   74MOL   C26031066   6.085   0.520   1.985 -0.1254 -0.2551 -0.1409
   74MOL   H26131067   6.063   1.031   1.742 -0.7916  2.1046 -1.2603
   74MOL   H26231068   6.164   1.130   1.649 -4.1685  1.3060  0.8287
   74MOL   H26331069   6.236   0.846   1.692  0.6072  0.7069 -2.5845
   74MOL   H26431070   6.286   1.080   1.877  1.9300 -0.5079  1.2917
   74MOL   H26531071   6.372   0.931   1.880  0.2155  0.1653 -2.3895
   74MOL   H26631072   6.228   0.895   2.053 -2.6324 -2.1492  0.6453
   74MOL   H26731073   6.087   0.923   1.947  0.0240  1.4987 -2.1095
   74MOL   H26831074   6.280   0.702   1.930  1.4641  3.9019 -1.3391
   74MOL   H26931075   6.140   0.725   1.822 -1.2353  0.6500  0.0799
   74MOL   H27031076   6.125   0.671   2.116  1.3025 -1.4692 -0.4838
   74MOL   H27131077   5.992   0.718   2.026 -0.8787 -1.1004 -0.4476
   74MOL   H27231078   6.181   0.472   2.002  0.9739  1.1859 -1.9585
   74MOL   H27331079   6.004   0.484   2.047  0.5912 -0.6074  0.5857
   74MOL   H27431080   6.056   0.505   1.881 -0.9880 -3.3207  0.5114
   74MOL   C27531081   6.379   0.994   1.629 -0.1323 -0.2109  0.1510
   74MOL   C27631082   6.502   0.908   1.658 -0.6813  0.2573 -0.2583
   74MOL   C27731083   6.611   0.983   1.737 -0.1033 -0.1911  0.4180
   74MOL   C27831084   6.702   0.887   1.819  0.4647  0.2929 -0.2308
   74MOL   C27931085   6.654   0.846   1.963 -0.0972  1.3327  0.5391
   74MOL   C28031086   6.615   0.959   2.058  0.0676 -0.3821 -0.4771
   74MOL   C28131087   6.580   0.907   2.196  0.2153  0.2310 -0.6122
   74MOL   H28231088   6.416   1.095   1.648 -0.2959 -0.2204  0.5170
   74MOL   H28331089   6.340   0.997   1.527  0.7194  1.9920 -0.1352
   74MOL   H28431090   6.477   0.823   1.721  0.9745  1.3844  1.9606
   74MOL   H28531091   6.673   1.031   1.661 -0.9507 -2.9796 -2.1477
   74MOL   H28631092   6.560   1.053   1.804  0.0454  0.2342  0.0930
   74MOL   H28731093   6.798   0.939   1.826  1.4309 -1.3213 -1.0564
   74MOL   H28831094   6.720   0.792   1.769 -0.3284 -0.1733  0.3487
   74MOL   H28931095   6.722   0.776   2.012 -0.1847  0.7821 -0.1298
   74MOL   H29031096   6.568   0.782   1.945 -1.3349  3.1777 -0.2225
   74MOL   H29131097   6.702   1.025   2.068 -0.5728  0.6054 -1.2935
   74MOL   H29231098   6.528   1.014   2.024  1.7659  2.4312 -0.4631
   74MOL   H29331099   6.659   0.848   2.242  1.4218  1.1348 -1.5234
   74MOL   H29431100   6.492   0.844   2.178  0.7778  0.2274 -3.6336
   74MOL   H29531101   6.560   0.981   2.273 -1.3370 -0.3741 -0.4007
   74MOL   C29631102   6.552   0.851   1.527 -0.3158 -0.0422 -0.2688
   74MOL   C29731103   6.461   0.749   1.448 -0.0804 -0.7803 -0.0912
   74MOL   C29831104   6.440   0.617   1.529  0.1963  0.2395  0.2045
   74MOL   C29931105   6.322   0.525   1.479 -1.2701  0.1084 -0.2795
   74MOL   C30031106   6.289   0.399   1.563  0.8068 -0.0655 -0.5073
   74MOL   C30131107   6.172   0.316   1.513  0.0833  0.0865 -0.6027
   74MOL   C30231108   6.203   0.213   1.405  0.0436 -0.4507  0.1450
   74MOL   H30331109   6.587   0.936   1.470 -0.2800 -0.6438 -1.1555
   74MOL   H30431110   6.635   0.784   1.551 -0.8075  0.0893  1.9392
   74MOL   H30531111   6.365   0.799   1.434  0.2683  0.3157  1.3307
   74MOL   H30631112   6.519   0.543   1.519 -0.0959 -0.0354 -0.0762
   74MOL   H30731113   6.424   0.633   1.635 -1.9401 -0.1307 -0.0487
   74MOL   H30831114   6.344   0.481   1.382  0.6895  0.1946  0.1084
   74MOL   H30931115   6.235   0.590   1.464 -0.9394  0.1512 -2.0199
   74MOL   H31031116   6.262   0.430   1.664 -0.7340 -0.6865 -0.7084
   74MOL   H31131117   6.379   0.343   1.586  0.3515 -0.4844  0.3016
   74MOL   H31231118   6.141   0.264   1.604 -2.3271 -0.4189 -1.6599
   74MOL   H31331119   6.093   0.389   1.495 -0.2269 -0.2348 -0.5485
   74MOL   H31431120   6.273   0.257   1.334 -2.2997  1.5805 -1.0005
   74MOL   H31531121   6.247   0.120   1.441 -0.5479 -1.1179 -0.8129
   74MOL   H31631122   6.117   0.182   1.345 -0.2409  1.1549 -0.3118
   74MOL   C31731123   6.533   0.703   1.313 -0.3681  0.1457 -0.2319
   74MOL   C31831124   6.564   0.816   1.216 -0.1681  0.2861  0.5604
   74MOL   C31931125   6.656   0.764   1.100 -0.2249  0.2747  0.9450
   74MOL   C32031126   6.804   0.755   1.146 -0.5698  0.0523 -0.1414
   74MOL   C32131127   6.896   0.693   1.039 -0.1754 -0.2558  0.5326
   74MOL   C32231128   7.045   0.713   1.049 -0.1236 -0.3700  0.2116
   74MOL   C32331129   7.100   0.846   0.995  0.1604 -0.2433 -0.5278
   74MOL   H32431130   6.472   0.630   1.261 -1.0163 -0.1704  0.9490
   74MOL   H32531131   6.623   0.644   1.333 -0.6866  0.0956  1.0906
   74MOL   H32631132   6.617   0.901   1.260  0.6940  0.7203 -1.2586
   74MOL   H32731133   6.651   0.831   1.013  1.2177  0.1120  0.7234
   74MOL   H32831134   6.605   0.673   1.071 -2.5183  1.8307 -0.0832
   74MOL   H32931135   6.809   0.704   1.242  2.0747  0.4365 -0.0215
   74MOL   H33031136   6.834   0.856   1.172  0.0475 -0.0346 -0.4891
   74MOL   H33131137   6.870   0.701   0.934  1.3297  3.3795  0.3462
   74MOL   H33231138   6.880   0.588   1.062  1.1661 -0.4258  0.7551
   74MOL   H33331139   7.095   0.629   1.000 -0.0254  1.2784 -2.6378
   74MOL   H33431140   7.059   0.705   1.157  3.0088  0.4338 -0.0778
   74MOL   H33531141   7.035   0.932   1.011 -0.1887 -0.1505 -2.3869
   74MOL   H33631142   7.097   0.851   0.886  0.2926 -0.0931 -0.5257
   74MOL   H33731143   7.196   0.879   1.035 -0.1477  1.7366 -1.3672
   74MOL   C33831144   6.434   0.875   1.162  0.7276  0.0350  0.3112
   74MOL   C33931145   6.426   1.031   1.195 -0.3426 -0.3646 -0.2386
   74MOL   C34031146   6.278   1.071   1.164 -0.3325 -0.0550 -0.2937
   74MOL   C34131147   6.225   1.216   1.201  0.0431  0.9958 -0.0186
   74MOL   C34231148   6.106   1.256   1.113  0.6654 -0.8121 -1.0297
   74MOL   C34331149   6.028   1.385   1.155  0.9292 -0.2593 -0.2932
   74MOL   C34431150   5.910   1.410   1.061  0.0741  0.4935 -0.1250
   74MOL   H34531151   6.344   0.828   1.202 -0.0954  1.4558  0.1541
   74MOL   H34631152   6.416   0.855   1.056 -0.0978 -1.5047  0.7233
   74MOL   H34731153   6.446   1.042   1.302  2.9156  2.0417 -1.0285
   74MOL   H34831154   6.268   1.051   1.057 -1.4358 -1.5953  0.0890
   74MOL   H34931155   6.201   1.005   1.205 -1.9072  1.4733 -0.7317
   74MOL   H35031156   6.299   1.292   1.178 -0.4563  1.0412 -1.5377
   74MOL   H35131157   6.207   1.216   1.308  0.9983  0.5531  0.1455
   74MOL   H35231158   6.141   1.262   1.010  1.5721 -0.5430 -0.7075
   74MOL   H35331159   6.039   1.171   1.124  0.6152 -0.8190 -1.3810
   74MOL   H35431160   5.987   1.372   1.256  0.7826  1.9860 -0.0405
   74MOL   H35531161   6.084   1.478   1.153  0.4754  0.0328  0.3476
   74MOL   H35631162   5.939   1.439   0.960  0.8151  1.3160  0.3146
   74MOL   H35731163   5.846   1.494   1.089  1.0426  1.1872  0.0369
   74MOL   H35831164   5.839   1.327   1.063 -0.2088  0.7269 -0.5319
   74MOL   C35931165   6.528   1.110   1.103  0.6500  0.1760 -0.4390
   74MOL   C36031166   6.590   1.232   1.181 -0.2474  0.1588  0.8918
   74MOL   C36131167   6.699   1.195   1.287  0.4152  0.1127  0.1183
   74MOL   C36231168   6.838   1.153   1.232  0.4776 -0.2873  0.4014
   74MOL   C36331169   6.943   1.127   1.342 -0.2478 -0.0498  1.2192
   74MOL   C36431170   6.965   1.263   1.421 -0.2604 -0.2830 -0.0107
   74MOL   C36531171   7.080   1.256   1.524  0.2592  0.2300 -0.6198
   74MOL   H36631172   6.466   1.154   1.025 -1.9889 -2.3138  0.1443
   74MOL   H36731173   6.599   1.049   1.047  1.6929  0.1089  0.9315
   74MOL   H36831174   6.506   1.279   1.232 -0.1243  1.5566 -0.1738
   74MOL   H36931175   6.702   1.283   1.351 -0.4994 -0.9281  1.6099
   74MOL   H37031176   6.668   1.114   1.353 -0.9679 -0.9489 -1.7956
   74MOL   H37131177   6.813   1.068   1.168 -0.2476  1.8749 -2.3227
   74MOL   H37231178   6.872   1.223   1.155  0.8258  0.5787  1.3291
   74MOL   H37331179   6.905   1.059   1.419  0.1796 -1.3781  0.2709
   74MOL   H37431180   7.036   1.095   1.296 -0.2837  1.0056  0.3933
   74MOL   H37531181   7.005   1.335   1.350 -1.5176  0.8985  0.4646
   74MOL   H37631182   6.873   1.300   1.465  0.9159 -0.1363  2.3790
   74MOL   H37731183   7.106   1.360   1.544 -0.5259 -0.1179  2.4015
   74MOL   H37831184   7.062   1.209   1.620 -0.6419  2.3041  0.2764
   74MOL   H37931185   7.165   1.210   1.474 -0.8530 -1.4610 -1.0077
   74MOL   C38031186   6.646   1.322   1.073  0.4883 -0.4977  0.6199
   74MOL   C38131187   6.707   1.460   1.108  0.1687  0.4357 -0.3282
   74MOL   C38231188   6.773   1.522   0.977 -0.0586  0.5693  0.0775
   74MOL   C38331189   6.927   1.519   0.980 -0.6686  0.3413  0.7371
   74MOL   C38431190   7.003   1.587   1.096  0.1297 -1.0349  0.4320
   74MOL   C38531191   7.148   1.540   1.126  0.2687 -0.2836 -0.1337
   74MOL   C38631192   7.214   1.622   1.236  0.0693  0.3029  0.1291
   74MOL   H38731193   6.721   1.279   1.007 -0.9894 -0.6533 -0.9921
   74MOL   H38831194   6.564   1.328   1.001  1.7100 -1.8559 -0.9211
   74MOL   H38931195   6.789   1.452   1.179 -1.2401  0.4746  1.3477
   74MOL   H39031196   6.757   1.627   0.955  3.1634  0.8793 -1.0572
   74MOL   H39131197   6.733   1.467   0.892  0.5661 -1.4810  1.0640
   74MOL   H39231198   6.966   1.418   0.982  2.5127  1.4981  0.4834
   74MOL   H39331199   6.981   1.567   0.897  0.0544 -2.4876 -0.4759
   74MOL   H39431200   7.000   1.691   1.065  0.3540 -0.7766  1.2652
   74MOL   H39531201   6.946   1.583   1.189 -0.2330  0.5332  0.2940
   74MOL   H39631202   7.212   1.553   1.039  1.2494 -0.5615  0.5341
   74MOL   H39731203   7.146   1.437   1.163 -2.4618 -0.1558  0.1945
   74MOL   H39831204   7.308   1.585   1.277  1.1675  1.5656 -1.2288
   74MOL   H39931205   7.147   1.640   1.320 -0.4933  1.1106 -0.4871
   74MOL   H40031206   7.236   1.719   1.193 -2.0224  0.3864 -0.8040
   74MOL   C40131207   6.618   1.552   1.175 -0.1624 -0.2113 -0.7139
   74MOL   C40231208   6.498   1.579   1.085 -0.2332  0.5887 -0.0308
   74MOL   C40331209   6.425   1.698   1.148 -0.1258  0.1035 -0.7935
   74MOL   C40431210   6.303   1.760   1.066  0.5727 -0.7504  0.2389
   74MOL   C40531211   6.210   1.852   1.144 -0.2353  0.0185 -0.2581
   74MOL   C40631212   6.294   1.944   1.227 -0.2371 -0.5305  0.5335
   74MOL   C40731213   6.222   2.066   1.276 -0.1168  0.5981  0.3476
   74MOL   H40831214   6.669   1.647   1.192  0.4862 -0.9181  1.4319
   74MOL   H40931215   6.589   1.523   1.276 -2.4586 -1.5666 -1.7171
   74MOL   H41031216   6.430   1.494   1.085 -1.6884  1.7178  1.4439
   74MOL   H41131217   6.494   1.776   1.182  1.5719 -3.1901  3.8918
   74MOL   H41231218   6.384   1.659   1.241  0.1157 -0.7061 -1.0289
   74MOL   H41331219   6.233   1.687   1.027 -0.7659  1.1890 -1.0332
   74MOL   H41431220   6.334   1.797   0.969 -0.4010 -1.5068 -0.3595
   74MOL   H41531221   6.148   1.910   1.075 -2.4726 -0.0996  1.6117
   74MOL   H41631222   6.146   1.799   1.214  0.8582 -2.7230 -1.2782
   74MOL   H41731223   6.320   1.887   1.316  0.2755 -2.8860 -1.0958
   74MOL   H41831224   6.386   1.974   1.175  0.5699 -0.7711  1.7920
   74MOL   H41931225   6.151   2.016   1.344  3.5432 -3.3065  1.5474
   74MOL   H42031226   6.164   2.113   1.197  0.4908 -0.6177 -0.8505
   74MOL   H42131227   6.277   2.142   1.332  1.0805  0.3783 -0.5156
   74MOL   H42231228   6.520   1.609   0.982  0.0796  0.1483 -0.0959
   75MOL     C131229   6.477   7.513   2.464  0.0927 -0.1859 -0.6396
   75MOL     C231230   6.405   7.648   2.496  0.3371  1.1538  0.0935
   75MOL     C331231   6.341   0.005   2.373  0.0250 -0.6546 -0.1010
   75MOL     C431232   6.206   7.668   2.315  0.6263  0.3855 -0.2441
   75MOL     C531233   6.178   0.014   2.181  0.6548  0.2114 -0.9834
   75MOL     C631234   6.251   7.657   2.066  0.3274 -0.1223  0.4187
   75MOL     C731235   6.242   0.015   1.931  0.4521 -0.4025 -0.6817
   75MOL     H831236   6.563   7.511   2.397 -0.6571 -0.4805 -1.6058
   75MOL     H931237   6.390   7.464   2.420 -2.0338  1.7707  1.2663
   75MOL    H1031238   6.320   7.638   2.564 -0.4029 -1.0958 -1.1212
   75MOL    H1131239   6.316   0.108   2.401  0.4102 -0.6965  0.3953
   75MOL    H1231240   6.416   0.009   2.294 -1.7334 -2.2243 -1.9038
   75MOL    H1331241   6.206   7.560   2.306 -0.8662  0.3174  0.5126
   75MOL    H1431242   6.135   7.704   2.390  0.8347  1.0101 -0.3395
   75MOL    H1531243   6.219   0.114   2.195  0.8512 -0.0857  0.7098
   75MOL    H1631244   6.070   0.020   2.168  0.2846  0.7772  1.8932
   75MOL    H1731245   6.202   7.561   2.047 -0.4351  0.7614 -2.3572
   75MOL    H1831246   6.358   7.640   2.082  0.4033 -0.3741 -0.3035
   75MOL    H1931247   6.200   7.662   1.856 -2.6031  0.3165  0.3256
   75MOL    H2031248   6.341   0.043   1.895  1.1996  0.3710  1.8527
   75MOL    H2131249   6.182   0.106   1.935 -0.6487 -1.0031 -3.1755
   75MOL    H2231250   6.489   7.451   2.553 -2.1039  1.0286  0.5626
   75MOL    C2331251   6.517   0.015   2.565  0.0599 -0.7913 -0.1058
   75MOL    C2431252   6.481   0.151   2.627 -0.0011  0.3106  0.0100
   75MOL    C2531253   6.616   0.217   2.681 -0.5229  0.0187 -0.2827
   75MOL    C2631254   6.709   0.282   2.577  0.2063  0.4210  0.0245
   75MOL    C2731255   6.828   0.361   2.625 -0.0978 -0.2288  0.2309
   75MOL    C2831256   6.932   0.279   2.699  0.2690 -0.5762 -0.5622
   75MOL    C2931257   7.054   0.357   2.751  0.0727 -0.3646  0.0433
   75MOL    H3031258   6.575   7.670   2.636  0.0609  0.5963  1.0534
   75MOL    H3131259   6.589   0.033   2.484 -1.9097 -0.2764 -1.7735
   75MOL    H3231260   6.439   0.213   2.548 -1.8071  0.3119  0.9318
   75MOL    H3331261   6.673   0.138   2.731  1.1279  1.0465 -0.5133
   75MOL    H3431262   6.605   0.297   2.755 -0.8768  0.2442 -0.5758
   75MOL    H3531263   6.658   0.358   2.520 -0.2682  0.0702 -0.0219
   75MOL    H3631264   6.743   0.200   2.514  1.3932  1.6067 -0.9077
   75MOL    H3731265   6.792   0.442   2.689  0.4187 -0.0193  0.2599
   75MOL    H3831266   6.878   0.395   2.535  1.4104 -0.0240  1.1199
   75MOL    H3931267   6.966   0.201   2.630  0.6861  0.0663 -1.0897
   75MOL    H4031268   6.878   0.230   2.779 -0.1717 -2.0775 -1.7432
   75MOL    H4131269   7.018   0.435   2.818  2.4598 -0.3683  1.3567
   75MOL    H4231270   7.132   0.305   2.806  1.2897 -1.9490 -3.0484
   75MOL    H4331271   7.114   0.410   2.678 -0.5800 -0.5351 -0.6274
   75MOL    C4431272   6.367   0.143   2.740  0.1619  0.1574  0.7288
   75MOL    C4531273   6.280   0.271   2.771  0.0551  0.0548  0.3940
   75MOL    C4631274   6.202   0.324   2.646 -0.0549  0.2451  0.7771
   75MOL    C4731275   6.090   0.231   2.599 -0.3321 -0.0536  0.3219
   75MOL    C4831276   6.010   0.289   2.482 -0.1606  0.6346 -0.0521
   75MOL    C4931277   5.889   0.187   2.462 -0.2258 -0.1260  0.0310
   75MOL    C5031278   5.817   0.215   2.332  0.6376  0.1270 -0.2526
   75MOL    H5131279   6.418   0.103   2.828 -2.8024 -0.5058  2.2188
   75MOL    H5231280   6.298   0.067   2.704  1.3789 -0.2444 -0.8023
   75MOL    H5331281   6.354   0.348   2.793  2.3218 -2.4737  1.9823
   75MOL    H5431282   6.264   0.343   2.559 -0.4921 -0.8118  0.2204
   75MOL    H5531283   6.163   0.422   2.672 -0.0675  1.0976 -2.2627
   75MOL    H5631284   6.146   0.147   2.558  1.2031  0.7195  0.7894
   75MOL    H5731285   6.030   0.212   2.688 -1.5770  0.4157 -0.4099
   75MOL    H5831286   6.067   0.289   2.389  0.4942 -0.8802  0.3268
   75MOL    H5931287   5.984   0.391   2.510 -0.8724 -0.0360  1.8310
   75MOL    H6031288   5.813   0.197   2.539 -0.8369 -2.1322 -0.3028
   75MOL    H6131289   5.928   0.086   2.472  0.3195  0.2749  2.0462
   75MOL    H6231290   5.723   0.161   2.333  0.7846 -0.1232  1.3326
   75MOL    H6331291   5.867   0.196   2.237 -0.6254 -1.4512 -0.6210
   75MOL    H6431292   5.791   0.320   2.332  0.2258  0.0285 -1.1754
   75MOL    C6531293   6.187   0.249   2.893 -0.0451  0.0077  0.1476
   75MOL    C6631294   6.273   0.251   3.019  0.0967  0.0718  0.5165
   75MOL    C6731295   6.199   0.157   3.117 -0.3165  0.1135  0.6384
   75MOL    C6831296   6.070   0.203   3.184  0.1098  0.0020  0.0773
   75MOL    C6931297   5.973   0.093   3.229 -0.0215 -0.2818 -0.8318
   75MOL    C7031298   5.859   0.137   3.324 -1.0226 -0.2887 -0.6615
   75MOL    C7131299   5.768   0.235   3.252  0.0727  0.0004 -0.1111
   75MOL    H7231300   6.111   0.327   2.899  2.4957  2.5979 -0.3865
   75MOL    H7331301   6.132   0.154   2.888  1.5419 -1.0707  2.3357
   75MOL    H7431302   6.371   0.204   3.009  0.1914  0.2111  0.7846
   75MOL    H7531303   6.174   0.066   3.063 -0.0679 -0.1232  0.9188
   75MOL    H7631304   6.268   0.122   3.194 -2.6152 -1.5381  2.0109
   75MOL    H7731305   6.093   0.264   3.271 -2.0651 -1.1565  1.4865
   75MOL    H7831306   6.015   0.272   3.120 -1.8289 -0.2364  1.4532
   75MOL    H7931307   5.936   0.046   3.137 -1.1224  1.4984 -1.3212
   75MOL    H8031308   6.030   0.019   3.285 -0.1818  0.4389  0.3007
   75MOL    H8131309   5.887   0.173   3.423 -1.2351  0.0336 -0.7154
   75MOL    H8231310   5.811   0.040   3.338 -0.0455 -0.3740  2.7067
   75MOL    H8331311   5.814   0.334   3.246 -0.3330  0.2753  1.0278
   75MOL    H8431312   5.745   0.208   3.149  0.9158  1.0017 -0.5768
   75MOL    H8531313   5.676   0.254   3.308 -0.9718 -1.7768 -1.1891
   75MOL    C8631314   6.298   0.393   3.078  0.1303 -0.3135  0.1410
   75MOL    C8731315   6.420   0.428   3.176  0.6440  0.2056  0.6223
   75MOL    C8831316   6.448   0.574   3.171 -0.9636  0.4636 -0.1604
   75MOL    C8931317   6.513   0.628   3.043 -0.8775  0.0296  0.1741
   75MOL    C9031318   6.622   0.552   2.964  0.2510 -0.2311 -0.3761
   75MOL    C9131319   6.683   0.650   2.857  0.1735 -0.4066 -0.9109
   75MOL    C9231320   6.595   0.669   2.731 -0.3879 -0.3219 -0.5131
   75MOL    H9331321   6.312   0.451   2.987 -0.5860 -0.1884  0.1056
   75MOL    H9431322   6.210   0.439   3.123  0.4818  1.4954 -0.9804
   75MOL    H9531323   6.502   0.372   3.132 -0.3363  0.3459 -1.4608
   75MOL    H9631324   6.356   0.630   3.186 -0.8734  0.4347  0.5090
   75MOL    H9731325   6.514   0.600   3.254 -1.0930 -0.8770  0.3648
   75MOL    H9831326   6.437   0.635   2.964 -0.2962 -0.8660 -0.4731
   75MOL    H9931327   6.544   0.731   3.060 -0.5754 -0.1672  0.8090
   75MOL   H10031328   6.587   0.457   2.924 -2.8530  1.2248 -1.2469
   75MOL   H10131329   6.704   0.529   3.032 -0.0684 -1.1743 -0.3081
   75MOL   H10231330   6.711   0.745   2.901 -0.6757 -0.7907  0.4981
   75MOL   H10331331   6.775   0.601   2.826  2.7091  2.8393  1.2351
   75MOL   H10431332   6.490   0.695   2.742 -1.0329 -3.3374  1.1098
   75MOL   H10531333   6.599   0.571   2.683  2.0718 -0.6649  0.2908
   75MOL   H10631334   6.652   0.738   2.669 -1.8226  0.0605 -1.4073
   75MOL   C10731335   6.393   0.373   3.320 -0.2856  0.3310 -0.0023
   75MOL   C10831336   6.518   0.334   3.402  0.0505 -0.3424 -0.2027
   75MOL   C10931337   6.497   0.329   3.562 -0.4875 -0.1003 -0.2822
   75MOL   C11031338   6.466   0.460   3.639  0.6611  0.1604  0.1917
   75MOL   C11131339   6.461   0.422   3.781 -0.6758 -0.0365  0.1645
   75MOL   C11231340   6.433   0.539   3.882  0.6428  0.4367  0.0315
   75MOL   C11331341   6.549   0.641   3.879  0.2090  0.4103  0.3165
   75MOL   H11431342   6.327   0.286   3.325 -1.3228  1.1819  1.5516
   75MOL   H11531343   6.350   0.448   3.387  0.8442  1.0977 -0.1183
   75MOL   H11631344   6.586   0.419   3.394 -0.5977  0.1234 -0.7075
   75MOL   H11731345   6.587   0.285   3.605  0.1576  2.3750  0.9547
   75MOL   H11831346   6.417   0.263   3.596 -1.5318  1.3664  0.1344
   75MOL   H11931347   6.551   0.527   3.623  0.6700  0.0565 -0.1898
   75MOL   H12031348   6.384   0.523   3.605 -0.5451 -0.9557  0.9740
   75MOL   H12131349   6.552   0.376   3.819 -2.8215 -3.7728  1.1137
   75MOL   H12231350   6.387   0.342   3.786 -2.3844  1.0990 -4.0392
   75MOL   H12331351   6.334   0.581   3.864 -0.1798 -0.6116  1.8684
   75MOL   H12431352   6.427   0.505   3.986  0.3619 -0.0135 -0.1285
   75MOL   H12531353   6.521   0.727   3.941  0.9390 -0.6770  2.2107
   75MOL   H12631354   6.643   0.598   3.916  0.2385  2.3171  2.6120
   75MOL   H12731355   6.567   0.684   3.781  1.2958 -0.2655  0.2123
   75MOL   C12831356   6.588   0.207   3.351  0.6684 -0.5202 -0.2274
   75MOL   C12931357   6.733   0.185   3.403  0.2470  0.3155 -0.0915
   75MOL   C13031358   6.835   0.155   3.287  0.4696 -0.9914 -0.5405
   75MOL   C13131359   6.877   0.279   3.204  0.0903  0.6689 -0.6776
   75MOL   C13231360   6.958   0.258   3.078  0.2359  0.2814 -0.1462
   75MOL   C13331361   7.094   0.199   3.092  0.0085 -0.4228 -0.2268
   75MOL   C13431362   7.192   0.304   3.133 -0.4813 -0.1235  0.0469
   75MOL   H13531363   6.524   0.124   3.380  0.4102 -0.3851 -0.4125
   75MOL   H13631364   6.586   0.200   3.242 -3.5550 -1.3599 -0.1799
   75MOL   H13731365   6.772   0.279   3.443 -0.6005 -0.3467  2.3474
   75MOL   H13831366   6.798   0.075   3.223 -3.0451  0.4284 -0.3586
   75MOL   H13931367   6.929   0.120   3.331  0.8621  0.3990 -0.2537
   75MOL   H14031368   6.938   0.348   3.262  0.1711 -0.8277  1.0271
   75MOL   H14131369   6.785   0.332   3.179 -1.1956 -1.8056 -1.4049
   75MOL   H14231370   6.957   0.347   3.015 -0.8038  0.2644 -0.1603
   75MOL   H14331371   6.900   0.187   3.019  0.6495  0.9361 -1.3649
   75MOL   H14431372   7.131   0.163   2.995  0.4529 -1.8521  0.4536
   75MOL   H14531373   7.100   0.112   3.157  0.3015 -0.0301  0.2681
   75MOL   H14631374   7.170   0.347   3.231  2.7950 -0.2232  0.8627
   75MOL   H14731375   7.181   0.392   3.068 -1.9874  0.8172  1.5261
   75MOL   H14831376   7.298   0.281   3.129 -0.1007  1.8179 -2.1214
   75MOL   C14931377   6.727   0.069   3.507  0.0856  0.4681  0.4355
   75MOL   C15031378   6.843   0.055   3.611  0.3997 -0.2148 -0.1830
   75MOL   C15131379   6.817   7.650   3.700  0.3737 -1.0559  0.7405
   75MOL   C15231380   6.943   7.617   3.791 -0.7082  0.2362  0.2645
   75MOL   C15331381   6.957   7.474   3.844  0.6200  0.6932  0.5157
   75MOL   C15431382   7.098   7.439   3.898  0.2041  1.0351  0.6958
   75MOL   C15531383   7.209   7.403   3.789 -0.4905 -0.0540 -0.0719
   75MOL   H15631384   6.637   0.074   3.570  1.1170 -0.4246  2.0305
   75MOL   H15731385   6.709   7.694   3.445 -1.6070  0.3719  1.0134
   75MOL   H15831386   6.929   0.033   3.547 -1.3371  0.1793 -2.7209
   75MOL   H15931387   6.721   7.662   3.752 -0.0368 -1.5173  0.0978
   75MOL   H16031388   6.814   7.562   3.636  1.1302  0.6502 -1.7143
   75MOL   H16131389   6.950   7.677   3.882  4.0205 -0.1655  0.2870
   75MOL   H16231390   7.035   7.630   3.734 -0.8129  0.1659  0.0790
   75MOL   H16331391   6.935   7.399   3.768  3.0487 -0.0260  0.4905
   75MOL   H16431392   6.884   7.460   3.923  1.1663  0.0248  0.9024
   75MOL   H16531393   7.106   7.360   3.973 -0.2895  0.2605 -0.0664
   75MOL   H16631394   7.136   7.519   3.962 -1.5330  2.0600  0.4795
   75MOL   H16731395   7.190   7.483   3.718 -2.3774 -1.2517 -0.9782
   75MOL   H16831396   7.185   7.314   3.731  0.7766  0.3926 -1.2925
   75MOL   H16931397   7.311   7.407   3.826 -0.7050  1.4814  0.3458
   75MOL   C17031398   6.872   0.180   3.695 -0.3344  0.3185  0.4074
   75MOL   C17131399   6.991   0.275   3.656  0.1496 -0.5607 -0.2017
   75MOL   C17231400   6.947   0.407   3.724  0.4258  0.2240 -0.1692
   75MOL   C17331401   6.855   0.501   3.644 -0.3476 -0.2960  0.1309
   75MOL   C17431402   6.945   0.591   3.553  0.7606 -1.0242 -0.4022
   75MOL   C17531403   6.869   0.695   3.461  0.3257  0.3340  0.5783
   75MOL   C17631404   6.813   0.634   3.326  0.1324  0.2334  0.1751
   75MOL   H17731405   6.891   0.151   3.798  0.1796 -0.5448  0.0760
   75MOL   H17831406   6.784   0.244   3.695  0.0561  0.8717 -0.2294
   75MOL   H17931407   7.000   0.299   3.550 -3.7977 -2.2514 -1.0354
   75MOL   H18031408   7.041   0.463   3.728  0.4901  0.1041  0.0092
   75MOL   H18131409   6.915   0.401   3.828  1.4690 -0.8255  0.0995
   75MOL   H18231410   6.814   0.569   3.719 -2.4591 -1.6727  0.2669
   75MOL   H18331411   6.769   0.463   3.589 -1.9741 -0.7107  2.8440
   75MOL   H18431412   7.019   0.534   3.497  0.6417 -1.8450  0.2754
   75MOL   H18531413   7.010   0.647   3.620 -3.0854  0.7188  2.0858
   75MOL   H18631414   6.918   0.792   3.453 -1.2488  0.9954 -1.4890
   75MOL   H18731415   6.777   0.722   3.513  0.7211  2.0420  0.4233
   75MOL   H18831416   6.775   0.705   3.253 -0.5291 -1.5300 -1.2269
   75MOL   H18931417   6.744   0.552   3.347 -0.2251  0.5188  0.1192
   75MOL   H19031418   6.902   0.594   3.277  0.2020 -0.4486  0.8393
   75MOL   C19131419   7.129   0.223   3.709 -0.3279  0.1637  0.3201
   75MOL   C19231420   7.247   0.299   3.638 -0.3423  0.2346  0.0131
   75MOL   C19331421   7.317   0.406   3.730  0.1240 -0.2320 -0.2213
   75MOL   C19431422   7.418   0.516   3.677  0.5317  0.2592  0.4564
   75MOL   C19531423   7.486   0.586   3.792  0.2236 -0.7102 -0.1095
   75MOL   C19631424   7.545   0.729   3.765  0.5127  0.1424 -0.3395
   75MOL   C19731425   7.645   0.774   3.873 -0.2144  0.6421  0.1711
   75MOL   H19831426   7.136   0.116   3.689 -2.0882  0.0233  0.3620
   75MOL   H19931427   7.140   0.224   3.817 -1.8319 -0.3438  0.4808
   75MOL   H20031428   7.205   0.366   3.563  2.2998  0.2478 -1.5223
   75MOL   H20131429   7.374   0.342   3.796 -0.5288  0.2672  0.8377
   75MOL   H20231430   7.242   0.465   3.782 -1.2582 -0.7045 -1.6131
   75MOL   H20331431   7.369   0.586   3.609  0.1588  0.6883  1.1577
   75MOL   H20431432   7.505   0.470   3.631 -0.1607  1.2734 -1.9215
   75MOL   H20531433   7.421   0.602   3.878 -1.0501  1.3198 -1.4324
   75MOL   H20631434   7.570   0.531   3.834  0.1433  0.8287  2.1959
   75MOL   H20731435   7.468   0.804   3.750  0.5498 -0.0183 -1.4238
   75MOL   H20831436   7.604   0.720   3.673  1.5622 -1.8416  0.4902
   75MOL   H20931437   0.010   0.847   3.849  0.3083  0.1603  0.4129
   75MOL   H21031438   7.695   0.689   3.919  0.6535  1.1377  0.1600
   75MOL   H21131439   7.586   0.814   3.956  0.6579 -1.6576  1.9405
   75MOL   C21231440   7.341   0.207   3.555  0.8734  0.6043  0.4976
   75MOL   C21331441   7.450   0.130   3.630 -0.4643 -0.4127  0.2607
   75MOL   C21431442   7.388   0.045   3.749 -0.2650 -0.6013  0.5050
   75MOL   C21531443   7.482   7.688   3.845 -0.9688 -0.5168 -0.1950
   75MOL   C21631444   7.581   0.064   3.928  0.8459 -0.4076 -0.8845
   75MOL   C21731445   7.506   0.133   4.054 -1.0863  0.1047 -0.1044
   75MOL   C21831446   7.582   0.254   4.118  1.2361 -0.3557  0.3246
   75MOL   H21931447   7.389   0.277   3.487  0.9810  1.0575  1.0405
   75MOL   H22031448   7.283   0.139   3.492  1.0029  1.8188 -0.9441
   75MOL   H22131449   7.515   0.207   3.671 -1.5522 -0.0549  1.3451
   75MOL   H22231450   7.321   0.110   3.807  0.2460  1.4484 -1.1646
   75MOL   H22331451   7.324   7.678   3.714  1.1695 -1.4502 -0.1751
   75MOL   H22431452   7.534   7.614   3.784 -1.3679 -0.1202 -1.0320
   75MOL   H22531453   7.423   7.650   3.928  0.3471 -0.0642  0.9660
   75MOL   H22631454   7.665   0.004   3.962  0.5976  1.2836  2.9118
   75MOL   H22731455   7.610   0.143   3.857  0.9762 -0.7479 -1.2102
   75MOL   H22831456   7.410   0.175   4.024 -1.7528 -0.7872  0.7566
   75MOL   H22931457   7.477   0.056   4.126 -0.3025  0.8096  0.9965
   75MOL   H23031458   7.541   0.279   4.216 -2.4201 -0.5187 -1.0960
   75MOL   H23131459   7.589   0.342   4.053  2.3899 -0.7171 -0.0524
   75MOL   H23231460   7.687   0.224   4.128  1.4235 -0.3125 -1.3645
   75MOL   C23331461   7.541   0.040   3.536 -0.1343  0.1753  0.1282
   75MOL   C23431462   7.620   0.113   3.422  0.3939  0.7033  0.6924
   75MOL   C23531463   7.682   0.250   3.447  0.1011  0.2959 -0.2613
   75MOL   C23631464   0.078   0.252   3.553 -0.1049  0.0211  0.2172
   75MOL   C23731465   0.118   0.389   3.606  0.1942 -0.1929  0.0444
   75MOL   C23831466   0.242   0.375   3.696  0.2475  0.0240  0.0778
   75MOL   C23931467   0.272   0.488   3.792  0.3207 -0.3865 -0.2369
   75MOL   H24031468   7.486   7.670   3.491 -0.1360 -1.6593  3.4089
   75MOL   H24131469   7.622   7.711   3.595  0.3288  2.5057  1.2058
   75MOL   H24231470   7.540   0.132   3.350  0.6341  0.3471  0.3279
   75MOL   H24331471   7.614   0.332   3.469  0.7949  1.0921 -1.0256
   75MOL   H24431472   7.711   0.289   3.350  0.9916 -1.1822 -0.5954
   75MOL   H24531473   0.170   0.209   3.513  0.7089 -2.6566  4.6415
   75MOL   H24631474   0.058   0.189   3.640  2.5449 -1.0241  0.1393
   75MOL   H24731475   0.038   0.425   3.671  0.4195 -0.2164  0.3380
   75MOL   H24831476   0.139   0.466   3.533  0.5456 -0.6546 -0.3461
   75MOL   H24931477   0.236   0.284   3.755  2.6793 -0.2031  0.0069
   75MOL   H25031478   0.317   0.350   3.622 -1.6191 -1.0755 -1.5033
   75MOL   H25131479   0.360   0.459   3.850 -0.9646 -2.9653  0.5324
   75MOL   H25231480   0.295   0.569   3.723 -0.0085  0.4424  0.6351
   75MOL   H25331481   0.191   0.507   3.862 -0.4074 -1.6334 -0.7124
   75MOL   C25431482   0.004   0.027   3.338 -0.6132  0.2883  0.4233
   75MOL   C25531483   7.648   7.613   3.290 -1.0108  0.1696 -0.4326
   75MOL   C25631484   0.042   7.524   3.216  0.2886  0.9926  0.0957
   75MOL   C25731485   0.097   7.570   3.080 -0.0890  0.3869  0.5122
   75MOL   C25831486   0.184   7.463   3.005  0.7559  0.7177 -0.4550
   75MOL   C25931487   0.113   7.328   2.998  0.2524  0.4911 -1.0283
   75MOL   C26031488   0.163   7.255   2.876 -0.7613  1.1064  0.1658
   75MOL   H26131489   0.084   7.711   3.406 -0.3998 -1.1090 -0.4359
   75MOL   H26231490   0.044   0.081   3.252  1.4412 -0.2079  1.0365
   75MOL   H26331491   7.626   7.554   3.379  2.0146 -1.2713 -0.5766
   75MOL   H26431492   7.710   7.426   3.206 -0.6779  1.0510  3.2949
   75MOL   H26531493   0.129   7.506   3.279  0.9348 -2.4844 -1.7054
   75MOL   H26631494   0.019   7.588   3.005 -0.1062 -0.8604  0.2091
   75MOL   H26731495   0.159   7.659   3.085  1.2138 -0.5230  0.6679
   75MOL   H26831496   0.279   7.451   3.057 -0.1105 -1.3895  0.6944
   75MOL   H26931497   0.208   7.508   2.909  0.4226  2.4928  0.2691
   75MOL   H27031498   0.139   7.273   3.088 -2.4160 -0.5426 -0.8325
   75MOL   H27131499   0.004   7.336   2.999  0.0543 -2.0594  0.1071
   75MOL   H27231500   0.153   7.147   2.891 -0.8650  1.0809 -0.0841
   75MOL   H27331501   0.102   7.280   2.789 -1.3286 -0.6746  0.0279
   75MOL   H27431502   0.267   7.268   2.847 -0.0734  1.0923  2.5255
   75MOL   C27531503   7.522   7.629   3.199 -0.2507  0.4129 -0.5525
   75MOL   C27631504   7.456   7.509   3.122 -0.1769 -0.4871 -0.0054
   75MOL   C27731505   7.345   7.566   3.029 -0.6552 -0.9450  0.2952
   75MOL   C27831506   7.402   7.624   2.904 -0.5921  0.1732 -0.3032
   75MOL   C27931507   7.317   7.660   2.792  0.5278  0.5244 -0.0211
   75MOL   C28031508   7.403   7.710   2.667  0.5378  0.2679 -0.0535
   75MOL   C28131509   7.327   7.693   2.533 -0.5317 -0.5337  0.2418
   75MOL   H28231510   7.567   7.700   3.129  3.6992 -0.9739  0.4458
   75MOL   H28331511   7.444   7.676   3.260  1.0300  0.2868  1.2141
   75MOL   H28431512   7.524   7.452   3.058 -0.7570 -2.1843  0.8622
   75MOL   H28531513   7.270   7.489   3.008 -0.1750 -1.3586  0.0728
   75MOL   H28631514   7.290   7.653   3.064  0.0975 -1.0607  1.8117
   75MOL   H28731515   7.466   7.545   2.865  0.6858  0.9722  0.1282
   75MOL   H28831516   7.462   7.710   2.935 -0.8133 -0.4966  2.0686
   75MOL   H28931517   7.255   0.032   2.820  0.9968  1.2485 -1.1316
   75MOL   H29031518   7.245   7.586   2.757  2.8913 -1.5066 -0.6487
   75MOL   H29131519   7.419   0.104   2.671  2.5303  0.0804 -2.2717
   75MOL   H29231520   7.501   7.664   2.671  0.2821 -0.2919 -0.1697
   75MOL   H29331521   7.382   0.033   2.456 -0.7484 -0.4816  0.1210
   75MOL   H29431522   7.235   0.038   2.539 -1.2798 -1.6977  0.3102
   75MOL   H29531523   7.303   7.590   2.505 -0.3618 -0.9762  1.7017
   75MOL   C29631524   7.391   7.410   3.218  0.1488 -1.1254 -0.1336
   75MOL   C29731525   7.357   7.266   3.177 -0.7605  0.1248  0.1938
   75MOL   C29831526   7.264   7.207   3.288  0.1092  0.5966  0.2596
   75MOL   C29931527   7.124   7.257   3.272  0.2140  0.2886 -0.0028
   75MOL   C30031528   7.041   7.232   3.406 -0.0761  0.4706 -0.4961
   75MOL   C30131529   7.026   7.086   3.453  0.9690 -0.7600 -0.0653
   75MOL   C30231530   6.971   7.072   3.597  0.1851 -0.1315 -0.3397
   75MOL   H30331531   7.464   7.406   3.299 -0.0982 -0.3049  0.1346
   75MOL   H30431532   7.307   7.455   3.271  1.9292  0.9283  1.0191
   75MOL   H30531533   7.302   7.279   3.084  2.0835 -3.1480 -2.0990
   75MOL   H30631534   7.265   7.102   3.257  0.6590  0.8160 -0.4918
   75MOL   H30731535   7.303   7.215   3.390 -1.0764 -0.6786  0.8202
   75MOL   H30831536   7.075   7.221   3.182 -2.1626  3.7118 -0.1433
   75MOL   H30931537   7.119   7.364   3.251  0.3482  0.6212  1.5763
   75MOL   H31031538   6.941   7.274   3.396  0.1353  1.1411  0.2103
   75MOL   H31131539   7.087   7.284   3.490 -0.7102  1.0522 -0.5032
   75MOL   H31231540   6.979   7.034   3.370 -0.1185  1.2268 -0.7261
   75MOL   H31331541   7.131   7.055   3.448  0.9629 -0.8586  0.3935
   75MOL   H31431542   7.024   7.122   3.678 -0.7540 -1.2228  0.9830
   75MOL   H31531543   6.866   7.103   3.604  0.8790  1.9607  1.2153
   75MOL   H31631544   6.992   6.971   3.631  0.1643 -0.3473 -0.9628
   75MOL   C31731545   7.475   7.175   3.128  0.2860  0.2658 -0.0353
   75MOL   C31831546   7.437   7.048   3.039  0.0922  0.3958  0.3063
   75MOL   C31931547   7.366   7.084   2.904  0.0856 -0.2283  0.5607
   75MOL   C32031548   7.435   7.187   2.815 -0.3081 -0.0598 -0.2174
   75MOL   C32131549   7.375   7.206   2.673 -0.5012 -0.1572 -0.0157
   75MOL   C32231550   7.440   7.321   2.589 -0.1887 -0.2273  0.5174
   75MOL   C32331551   7.378   7.331   2.449 -0.2167  0.5806  0.0316
   75MOL   H32431552   7.530   7.138   3.215 -0.8564 -1.0421  0.1468
   75MOL   H32531553   7.547   7.235   3.074  0.1019  1.0570  0.5792
   75MOL   H32631554   7.374   6.981   3.097 -1.6312  1.6644 -0.0849
   75MOL   H32731555   7.262   7.113   2.917 -0.3570 -0.9427 -1.1752
   75MOL   H32831556   7.347   6.997   2.841  2.7636  0.3421 -1.1272
   75MOL   H32931557   7.542   7.167   2.811 -0.2577  0.3253 -1.0216
   75MOL   H33031558   7.434   7.286   2.861 -0.6533 -0.6517  1.0478
   75MOL   H33131559   7.267   7.221   2.667 -0.7117 -1.4817  0.4377
   75MOL   H33231560   7.385   7.119   2.609 -2.3987  0.2668 -0.9393
   75MOL   H33331561   7.549   7.322   2.599 -0.4257  0.1251  3.7045
   75MOL   H33431562   7.419   7.414   2.642  3.9082  0.6359  0.8321
   75MOL   H33531563   7.279   7.374   2.458  0.5944  2.2920  1.1249
   75MOL   H33631564   7.373   7.237   2.394 -1.2021  1.1959 -0.9328
   75MOL   H33731565   7.434   7.406   2.393  0.2173 -0.8547 -1.5049
   75MOL   C33831566   7.567   6.963   3.012 -0.4121 -0.1573 -0.3747
   75MOL   C33931567   7.625   6.876   3.134  0.2965  1.4265 -0.4837
   75MOL   C34031568   0.060   6.832   3.120 -0.5255 -0.9448  0.8325
   75MOL   C34131569   0.083   6.723   3.006 -0.3764  0.2320  0.3835
   75MOL   C34231570   0.236   6.680   2.985 -0.0355 -0.1172  0.7106
   75MOL   C34331571   0.271   6.634   2.844  0.3995 -0.3348  0.1726
   75MOL   C34431572   0.418   6.649   2.807 -0.0012  0.0920 -0.8104
   75MOL   H34531573   7.647   7.027   2.973  0.8098 -1.2944  0.2233
   75MOL   H34631574   7.551   6.901   2.924 -1.1448  0.6514 -0.8228
   75MOL   H34731575   7.625   6.939   3.222  2.9486  0.5017  0.2233
   75MOL   H34831576   0.103   6.928   3.089 -0.3518 -0.7942  1.5233
   75MOL   H34931577   0.108   6.807   3.215  0.9594  2.6982  1.1484
   75MOL   H35031578   0.034   6.740   2.910  1.1215 -2.6463 -0.9505
   75MOL   H35131579   0.043   6.631   3.049  1.2153 -1.4835 -1.6692
   75MOL   H35231580   0.311   6.739   3.038 -1.0619  3.2072 -1.3796
   75MOL   H35331581   0.250   6.588   3.041 -0.4056 -0.9899 -0.6213
   75MOL   H35431582   0.242   6.530   2.824 -1.6824  0.3550 -0.5043
   75MOL   H35531583   0.222   6.695   2.768 -2.1956 -0.4310  1.7148
   75MOL   H35631584   0.454   6.749   2.834 -2.2217  0.8754 -0.7062
   75MOL   H35731585   0.455   6.634   2.705  1.6689 -1.5666  0.0107
   75MOL   H35831586   0.473   6.575   2.865  0.0406  2.3648  2.1593
   75MOL   C35931587   7.542   6.741   3.156  0.4497 -0.1786 -0.6214
   75MOL   C36031588   7.420   6.757   3.258 -0.0503 -0.0380  0.2889
   75MOL   C36131589   7.284   6.729   3.188  0.3172 -0.4924 -0.0930
   75MOL   C36231590   7.160   6.777   3.260 -0.1473 -0.0776  0.4009
   75MOL   C36331591   7.036   6.739   3.171  0.2812 -0.8479  0.2831
   75MOL   C36431592   6.904   6.776   3.232 -0.1589 -0.0980  0.5099
   75MOL   C36531593   6.875   6.695   3.359 -0.8221  0.2801  0.1927
   75MOL   H36631594   7.612   6.666   3.194  0.6968  0.8436  1.0075
   75MOL   H36731595   7.508   6.709   3.058 -0.1540  1.6123 -1.0114
   75MOL   H36831596   7.421   6.857   3.301 -2.4003 -0.2720  0.9560
   75MOL   H36931597   7.284   6.778   3.090  2.4083  0.9604  0.6053
   75MOL   H37031598   7.259   6.626   3.164 -1.7864  0.9003 -4.4699
   75MOL   H37131599   7.156   6.727   3.357 -1.4633 -1.2723 -0.2431
   75MOL   H37231600   7.152   6.883   3.284  1.3566 -0.0732  0.8783
   75MOL   H37331601   7.040   6.787   3.073 -1.7712  0.9461  1.0511
   75MOL   H37431602   7.038   6.632   3.153 -0.8114 -0.5044 -2.1220
   75MOL   H37531603   6.887   6.883   3.243 -1.3845 -0.2843  0.5376
   75MOL   H37631604   6.833   6.754   3.152  1.2136 -1.2359 -0.4195
   75MOL   H37731605   6.867   6.588   3.339 -0.2629  0.9217 -3.9657
   75MOL   H37831606   6.939   6.722   3.443  0.6989  1.6864 -1.3772
   75MOL   H37931607   6.773   6.720   3.388 -1.5344  1.5955 -3.1616
   75MOL   C38031608   7.446   6.669   3.375 -0.6756 -0.4163 -0.1324
   75MOL   C38131609   7.556   6.711   3.479 -1.1755 -0.5667  0.2039
   75MOL   C38231610   7.525   6.837   3.561 -0.6513  0.1012 -0.6163
   75MOL   C38331611   7.626   6.952   3.540 -0.2060 -0.3338  0.6937
   75MOL   C38431612   7.553   7.080   3.595 -0.0402  0.2029  0.1604
   75MOL   C38531613   7.659   7.196   3.595 -0.3745  0.1317 -0.1257
   75MOL   C38631614   7.613   7.338   3.596 -0.7856  0.1411  0.6217
   75MOL   H38731615   7.354   6.653   3.430 -0.9262 -2.2216 -1.0528
   75MOL   H38831616   7.468   6.569   3.337  2.0572  0.6750 -1.5567
   75MOL   H38931617   7.646   6.727   3.421 -1.8561  0.8388 -0.4921
   75MOL   H39031618   7.514   6.833   3.669 -0.4972  1.0494 -0.5638
   75MOL   H39131619   7.425   6.873   3.535 -0.1893  0.7591 -1.5311
   75MOL   H39231620   0.001   6.930   3.599  1.0291 -0.2686 -1.1007
   75MOL   H39331621   7.655   6.965   3.436  1.7908 -0.1995  1.2548
   75MOL   H39431622   7.477   7.092   3.517 -0.0369 -1.4141 -0.1168
   75MOL   H39531623   7.508   7.054   3.691  0.3299  1.8518  0.7914
   75MOL   H39631624   0.003   7.187   3.503 -2.8190  1.2181 -1.7944
   75MOL   H39731625   0.012   7.177   3.680 -0.3980  0.9063  0.0689
   75MOL   H39831626   7.569   7.370   3.502 -2.9645 -1.9664  0.8710
   75MOL   H39931627   7.687   7.414   3.624  1.0213 -0.3615 -2.5486
   75MOL   H40031628   7.536   7.350   3.672 -2.2382 -0.8851 -0.6506
   75MOL   C40131629   7.582   6.590   3.573 -0.0226  0.0604  0.4788
   75MOL   C40231630   7.593   6.440   3.517 -0.7784 -0.4028  0.1210
   75MOL   C40331631   7.704   6.410   3.417  0.1346 -0.1133  0.1546
   75MOL   C40431632   7.683   6.273   3.355 -0.3537 -0.0432 -0.2838
   75MOL   C40531633   0.068   6.228   3.246 -0.4776  0.7820 -0.2569
   75MOL   C40631634   0.210   6.214   3.298 -0.1247 -0.0236  0.4422
   75MOL   C40731635   0.306   6.184   3.176 -0.0859  0.6578  0.0838
   75MOL   H40831636   7.495   6.578   3.637 -0.3587  1.2625  0.2575
   75MOL   H40931637   7.670   6.617   3.632 -0.2086  1.0830  0.3124
   75MOL   H41031638   7.495   6.406   3.484 -1.0157 -1.1585  1.5597
   75MOL   H41131639   0.088   6.416   3.466 -0.0610 -1.3886  0.7461
   75MOL   H41231640   7.710   6.478   3.333  0.0328  0.5186  0.6539
   75MOL   H41331641   7.579   6.284   3.324 -0.4483  1.7242  0.5783
   75MOL   H41431642   7.668   6.205   3.439  1.3155  0.4003  0.3856
   75MOL   H41531643   0.035   6.130   3.212 -0.9087  0.1855  1.7700
   75MOL   H41631644   0.072   6.289   3.156  0.1616  0.3008 -0.5602
   75MOL   H41731645   0.235   6.307   3.351  2.1999 -2.0204  3.0087
   75MOL   H41831646   0.213   6.136   3.374  0.0564 -1.2918 -0.8431
   75MOL   H41931647   0.307   6.271   3.111  3.2067  1.7690  1.5774
   75MOL   H42031648   0.281   6.094   3.120 -0.3215 -0.2348  1.5851
   75MOL   H42131649   0.411   6.168   3.199  0.1205  0.9487 -0.6310
   75MOL   H42231650   7.599   6.378   3.606 -0.1388 -0.3378  0.1238
   76MOL     C131651   3.718   3.879   1.069 -0.0486  0.1834  0.0778
   76MOL     C231652   3.787   3.773   0.988  0.2684 -0.7306  0.5493
   76MOL     C331653   3.935   3.790   0.998 -0.0035  0.2168  0.6344
   76MOL     C431654   3.998   3.735   1.124  0.9503 -0.0350 -0.0344
   76MOL     C531655   4.150   3.755   1.137 -0.2709  0.0705  0.6638
   76MOL     C631656   4.195   3.900   1.094 -0.8989  0.0950  0.1563
   76MOL     C731657   4.132   4.015   1.182  0.0132  0.2799  0.2070
   76MOL     H831658   3.755   3.972   1.024  0.0548 -0.0996 -0.4291
   76MOL     H931659   3.753   3.875   1.172  0.9818  1.5533 -0.1954
   76MOL    H1031660   3.768   3.677   1.037  0.8577 -0.4795  1.2948
   76MOL    H1131661   3.989   3.740   0.917  0.7796 -0.5629  1.6296
   76MOL    H1231662   3.951   3.897   0.987 -1.8685  0.6148  1.6900
   76MOL    H1331663   3.951   3.783   1.210  2.3283  1.6191 -0.1633
   76MOL    H1431664   3.976   3.629   1.131  0.5715 -0.1933 -3.0539
   76MOL    H1531665   4.186   3.680   1.066  1.3914 -0.3294  1.8993
   76MOL    H1631666   4.180   3.738   1.240  0.2496 -2.9362  0.0706
   76MOL    H1731667   4.176   3.912   0.988  1.8930 -2.1208 -0.6583
   76MOL    H1831668   4.304   3.893   1.090 -0.8534 -0.3607  1.7242
   76MOL    H1931669   4.156   4.110   1.134  2.5168 -0.6929 -0.4858
   76MOL    H2031670   4.165   4.016   1.286 -0.6025 -0.9913  0.4198
   76MOL    H2131671   4.023   4.003   1.185 -0.2292  2.2058  0.1189
   76MOL    H2231672   3.610   3.869   1.068 -0.2138  1.4171  2.7534
   76MOL    C2331673   3.756   3.764   0.841 -0.0380 -0.3238 -0.2219
   76MOL    C2431674   3.601   3.756   0.809  0.4185 -0.2998  0.1932
   76MOL    C2531675   3.551   3.609   0.845 -0.3479  0.3821 -0.2797
   76MOL    C2631676   3.396   3.601   0.830 -0.4059  0.1575  0.5899
   76MOL    C2731677   3.341   3.466   0.862  0.2575  0.0678 -0.9372
   76MOL    C2831678   3.202   3.475   0.932  0.3950 -0.2497 -0.0548
   76MOL    C2931679   3.152   3.345   0.996 -0.6371 -0.9531 -0.5557
   76MOL    H3031680   3.798   3.853   0.794  0.6375 -0.3175  0.3877
   76MOL    H3131681   3.818   3.684   0.802 -1.9583 -3.0023  2.0680
   76MOL    H3231682   3.536   3.821   0.868 -0.4636  0.2202 -1.3343
   76MOL    H3331683   3.564   3.584   0.951 -1.4092  0.3981 -0.1324
   76MOL    H3431684   3.597   3.531   0.784 -0.1890 -1.8307  2.5548
   76MOL    H3531685   3.358   3.627   0.731  0.6465 -2.2967 -0.5066
   76MOL    H3631686   3.360   3.667   0.908 -1.0561  0.6963 -0.1673
   76MOL    H3731687   3.410   3.418   0.931 -1.1293  0.9118  1.0658
   76MOL    H3831688   3.336   3.404   0.773  0.1387 -0.0395 -0.8552
   76MOL    H3931689   3.128   3.527   0.870 -1.3993 -0.9907  1.4281
   76MOL    H4031690   3.218   3.552   1.007  0.0891 -1.3393  1.1336
   76MOL    H4131691   3.049   3.362   1.028 -0.0322 -1.2235  1.5801
   76MOL    H4231692   3.141   3.263   0.924 -0.4600 -1.7815  0.3529
   76MOL    H4331693   3.215   3.314   1.079 -2.8269  0.3902  1.6547
   76MOL    C4431694   3.572   3.794   0.660 -0.3809  0.1275 -0.5415
   76MOL    C4531695   3.610   3.931   0.598 -0.3306 -0.2625 -0.2820
   76MOL    C4631696   3.585   3.938   0.446 -0.4094  0.3277  0.1455
   76MOL    C4731697   3.629   3.809   0.375 -0.4949  0.0500  0.6954
   76MOL    C4831698   3.664   3.827   0.222  0.1167  0.2619 -0.9769
   76MOL    C4931699   3.708   3.693   0.146 -0.4082  0.0344 -0.3687
   76MOL    C5031700   3.586   3.598   0.138 -0.5042 -0.5987  0.0876
   76MOL    H5131701   3.469   3.777   0.630 -1.3832  1.2835  2.0821
   76MOL    H5231702   3.634   3.716   0.615  0.1169 -1.0549  2.0783
   76MOL    H5331703   3.718   3.944   0.611 -0.3438 -0.4973  0.0641
   76MOL    H5431704   3.644   4.021   0.408 -0.4256  0.2032 -0.1489
   76MOL    H5531705   3.478   3.947   0.427 -0.6797 -0.4545  1.2488
   76MOL    H5631706   3.722   3.772   0.418  1.8829  2.4709 -2.1108
   76MOL    H5731707   3.545   3.740   0.378 -0.9377  0.3880 -2.3156
   76MOL    H5831708   3.741   3.904   0.219 -0.0386  0.5599  1.3666
   76MOL    H5931709   3.573   3.869   0.179  0.5244  1.6615 -0.5121
   76MOL    H6031710   3.787   3.644   0.202  0.4569  1.8102  0.0072
   76MOL    H6131711   3.739   3.722   0.046  2.2553 -1.8561 -0.1614
   76MOL    H6231712   3.497   3.651   0.103 -0.2716  0.1243  0.5799
   76MOL    H6331713   3.567   3.541   0.229 -0.1604  0.2724  0.7105
   76MOL    H6431714   3.604   3.516   0.068 -0.6732 -1.9831  1.6476
   76MOL    C6531715   3.539   4.036   0.671 -0.2765 -0.6009  0.3437
   76MOL    C6631716   3.564   4.181   0.619  0.3440  0.1930 -0.6343
   76MOL    C6731717   3.708   4.232   0.649  0.0152  0.0517  0.8207
   76MOL    C6831718   3.766   4.213   0.791  0.1120  0.2830  0.6078
   76MOL    C6931719   3.900   4.290   0.807 -0.3156  1.0176  0.4136
   76MOL    C7031720   3.974   4.258   0.946  0.7961 -0.0336 -0.1774
   76MOL    C7131721   4.093   4.342   0.992 -0.2657 -0.1766 -0.5061
   76MOL    H7231722   3.432   4.018   0.667 -0.3516 -0.0046 -0.6068
   76MOL    H7331723   3.564   4.031   0.777 -0.9304  0.4680  0.5596
   76MOL    H7431724   3.540   4.180   0.513 -1.4718 -1.0204 -0.2356
   76MOL    H7531725   3.769   4.175   0.579 -1.3770  1.4529 -1.6016
   76MOL    H7631726   3.714   4.335   0.614 -1.0006  0.7142  2.5485
   76MOL    H7731727   3.696   4.256   0.863  1.1513  0.8255  1.2972
   76MOL    H7831728   3.779   4.106   0.805  0.0530 -0.0655 -1.7596
   76MOL    H7931729   3.970   4.256   0.731  0.2103  1.3594  0.7370
   76MOL    H8031730   3.888   4.399   0.803  1.0907  1.2149  1.1629
   76MOL    H8131731   3.995   4.152   0.959 -1.2079 -0.5043 -0.5414
   76MOL    H8231732   3.895   4.259   1.022 -0.3218 -2.1781 -1.2814
   76MOL    H8331733   4.136   4.322   1.090  0.2566 -1.4387 -0.9831
   76MOL    H8431734   4.170   4.336   0.915  1.0144 -0.1661  0.7548
   76MOL    H8531735   4.062   4.446   1.001  0.3387  0.0122 -0.5679
   76MOL    C8631736   3.472   4.278   0.689  0.4372  0.4434 -0.0481
   76MOL    C8731737   3.326   4.305   0.626 -0.3988  0.2474  0.5283
   76MOL    C8831738   3.248   4.402   0.718  0.4627 -0.2285  0.5555
   76MOL    C8931739   3.312   4.546   0.730 -0.1215 -0.0785  0.9542
   76MOL    C9031740   3.226   4.640   0.813  0.1828  0.3162  0.3894
   76MOL    C9131741   3.292   4.776   0.843 -0.4050 -0.4141 -0.0984
   76MOL    C9231742   3.388   4.762   0.962  0.9170 -1.0268 -0.2389
   76MOL    H9331743   3.455   4.242   0.790  0.3444  1.1774  0.1992
   76MOL    H9431744   3.515   4.378   0.692 -2.0595  1.5423  0.3942
   76MOL    H9531745   3.268   4.213   0.635 -1.9655  1.1162 -0.4758
   76MOL    H9631746   3.149   4.420   0.678  0.8316  2.1708  0.6820
   76MOL    H9731747   3.221   4.367   0.818 -2.5428  0.6550  0.0844
   76MOL    H9831748   3.405   4.530   0.784  0.9687 -2.3945 -1.4832
   76MOL    H9931749   3.344   4.597   0.639  1.9524 -0.2354  1.5523
   76MOL   H10031750   3.195   4.600   0.910 -1.4223 -0.3589 -0.3783
   76MOL   H10131751   3.132   4.644   0.758  0.9820  0.0678 -1.0073
   76MOL   H10231752   3.342   4.808   0.752  0.4368 -0.0167  0.4930
   76MOL   H10331753   3.213   4.848   0.864  0.8312  0.2654  2.3860
   76MOL   H10431754   3.351   4.711   1.051 -0.6794 -0.7226 -0.7132
   76MOL   H10531755   3.421   4.863   0.987 -2.6755  0.5372 -1.4827
   76MOL   H10631756   3.484   4.724   0.926  0.9637  0.0109 -1.2255
   76MOL   C10731757   3.327   4.334   0.472 -0.2020  0.1176 -0.5398
   76MOL   C10831758   3.195   4.386   0.410  0.0307 -0.1325 -0.4044
   76MOL   C10931759   3.214   4.418   0.257  0.1283 -0.1077  0.1031
   76MOL   C11031760   3.283   4.555   0.232 -0.2348 -0.1776  0.0090
   76MOL   C11131761   3.285   4.592   0.084 -0.5324  0.1390 -0.0613
   76MOL   C11231762   3.382   4.713   0.066  0.1692  0.1078 -0.6814
   76MOL   C11331763   3.399   4.765   7.634 -0.0045  0.8133 -0.4628
   76MOL   H11431764   3.363   4.243   0.423 -1.0776 -0.2689 -0.4610
   76MOL   H11531765   3.405   4.408   0.451 -0.7628 -0.0235 -3.4170
   76MOL   H11631766   3.176   4.476   0.469 -0.3658 -1.0526  0.9146
   76MOL   H11731767   3.119   4.426   0.204  0.2477 -0.6941 -0.2046
   76MOL   H11831768   3.271   4.337   0.211 -1.2923 -1.4401  0.6166
   76MOL   H11931769   3.234   4.633   0.288  0.4254  0.2794 -0.0427
   76MOL   H12031770   3.387   4.554   0.264  0.2972  1.4969 -1.5938
   76MOL   H12131771   3.187   4.611   0.040 -1.0400  0.0661  1.0165
   76MOL   H12231772   3.323   4.504   0.032 -1.9998 -0.3244 -0.3925
   76MOL   H12331773   3.342   4.797   0.123  0.9979  1.7396 -2.4410
   76MOL   H12431774   3.477   4.709   0.119  0.0456 -2.3122 -0.6046
   76MOL   H12531775   3.421   4.682   7.567 -0.4815  1.3579 -1.2983
   76MOL   H12631776   3.302   4.794   7.593 -0.2849 -1.0411 -1.1522
   76MOL   H12731777   3.475   4.844   7.636  1.0247 -0.1280 -1.5208
   76MOL   C12831778   3.074   4.274   0.428 -0.1743 -0.1974  0.1838
   76MOL   C12931779   2.928   4.334   0.420 -0.1658 -0.7677 -0.2955
   76MOL   C13031780   2.884   4.378   0.566  0.3426 -0.0733  0.5885
   76MOL   C13131781   2.735   4.431   0.574  0.0619  0.1546 -0.1746
   76MOL   C13231782   2.702   4.523   0.691 -0.5840 -0.2510  0.2284
   76MOL   C13331783   2.555   4.565   0.718  0.4501 -0.0784  0.1172
   76MOL   C13431784   2.481   4.643   0.606  0.2531 -0.0269 -0.0253
   76MOL   H13531785   3.085   4.194   0.355  0.7017 -0.1940  0.3135
   76MOL   H13631786   3.084   4.210   0.515 -1.4318  0.6077  0.9455
   76MOL   H13731787   2.920   4.425   0.360  3.1411  0.6591  1.2762
   76MOL   H13831788   2.945   4.461   0.602  0.2793 -0.0661  0.6813
   76MOL   H13931789   2.899   4.293   0.634 -0.1862 -0.8995 -0.3118
   76MOL   H14031790   2.670   4.345   0.584  1.3687 -0.7242  1.0317
   76MOL   H14131791   2.708   4.480   0.481 -1.8824 -0.2401  0.1749
   76MOL   H14231792   2.760   4.616   0.687  2.4891 -2.1594 -2.3489
   76MOL   H14331793   2.737   4.473   0.781 -1.9265 -2.8833 -0.6710
   76MOL   H14431794   2.548   4.615   0.815 -1.6007 -2.1052  1.0801
   76MOL   H14531795   2.493   4.476   0.731  3.0765 -1.9260  0.4584
   76MOL   H14631796   2.530   4.739   0.586  1.6262 -0.6162  0.4265
   76MOL   H14731797   2.386   4.686   0.638  2.0458  2.4769  2.2919
   76MOL   H14831798   2.485   4.586   0.514 -1.4430 -0.2525  0.0282
   76MOL   C14931799   2.826   4.240   0.344 -0.1780  1.2204  0.1671
   76MOL   C15031800   2.815   4.089   0.393  0.4130 -0.3382 -0.4124
   76MOL   C15131801   2.805   3.986   0.277  0.0702  0.4752  0.0228
   76MOL   C15231802   2.669   3.964   0.222  0.2226 -0.2845 -0.2674
   76MOL   C15331803   2.663   3.859   0.111  0.0653  0.6940  0.5270
   76MOL   C15431804   2.721   3.721   0.138 -0.0868  0.0327 -0.0037
   76MOL   C15531805   2.857   3.691   0.064  0.3675 -0.3060  0.1749
   76MOL   H15631806   2.733   4.294   0.327  0.3368  1.0060 -3.7146
   76MOL   H15731807   2.867   4.239   0.243  2.6848  0.9021  1.2781
   76MOL   H15831808   2.916   4.068   0.430  1.1062  1.7733 -1.0371
   76MOL   H15931809   2.868   4.016   0.193 -1.4203  1.5641 -0.7276
   76MOL   H16031810   2.859   3.897   0.312 -0.4506  0.0442 -0.2610
   76MOL   H16131811   2.633   4.065   0.199  1.5937  0.8483  2.2767
   76MOL   H16231812   2.596   3.928   0.294  0.3112 -0.4435 -0.2561
   76MOL   H16331813   2.698   3.904   0.018  0.8937  1.8016  1.3497
   76MOL   H16431814   2.557   3.834   0.101  1.0833 -2.7852 -2.1622
   76MOL   H16531815   2.649   3.643   0.112 -0.3379 -0.4405  2.0142
   76MOL   H16631816   2.749   3.714   0.243  3.4345  1.9157 -0.7694
   76MOL   H16731817   2.842   3.662   7.673  0.0300 -1.3969  0.5176
   76MOL   H16831818   2.903   3.602   0.108 -1.5301 -0.6521  1.5087
   76MOL   H16931819   2.917   3.781   0.068 -0.1998  0.2410 -2.4577
   76MOL   C17031820   2.722   4.063   0.511 -0.7444  0.3268  0.1655
   76MOL   C17131821   2.733   3.917   0.572  0.9759  0.4765 -0.1345
   76MOL   C17231822   2.859   3.899   0.652 -0.4940  0.8703  0.8091
   76MOL   C17331823   2.859   3.964   0.788  0.0671 -0.0127  0.3358
   76MOL   C17431824   2.988   3.947   0.867 -0.0466  0.3882 -0.5810
   76MOL   C17531825   3.106   4.002   0.791  0.1608 -0.4319  0.9057
   76MOL   C17631826   3.228   4.016   0.881  0.0797 -0.3078 -0.6537
   76MOL   H17731827   2.621   4.080   0.476 -0.9794  0.3035  0.8134
   76MOL   H17831828   2.741   4.130   0.595  1.8498 -2.0160  1.5666
   76MOL   H17931829   2.748   3.840   0.496 -2.6327  0.4447 -0.8854
   76MOL   H18031830   2.941   3.926   0.585 -0.3618 -1.0060  0.1806
   76MOL   H18131831   2.874   3.792   0.662  1.8467  1.1948  1.0415
   76MOL   H18231832   2.778   3.917   0.845 -1.8441  0.4903 -1.9056
   76MOL   H18331833   2.848   4.072   0.782 -0.6942 -0.2570 -4.1537
   76MOL   H18431834   3.021   3.846   0.895  1.5739  0.8756 -0.6699
   76MOL   H18531835   2.961   3.990   0.963  3.4950 -3.6979  2.4838
   76MOL   H18631836   3.077   4.101   0.758  1.5521 -0.0724  0.7141
   76MOL   H18731837   3.137   3.943   0.704  0.5990  1.7200 -0.4373
   76MOL   H18831838   3.260   3.920   0.921 -1.4881  0.5448  2.8463
   76MOL   H18931839   3.212   4.091   0.959  1.5042  0.5917 -1.1910
   76MOL   H19031840   3.310   4.060   0.823 -0.6924  1.0712 -0.7306
   76MOL   C19131841   2.605   3.881   0.649  0.0934 -0.9365  0.1626
   76MOL   C19231842   2.470   3.851   0.572 -0.1967 -0.1372 -0.4307
   76MOL   C19331843   2.480   3.721   0.489  0.0310  0.2712 -0.3734
   76MOL   C19431844   2.368   3.706   0.383 -0.8369  0.1873  0.5790
   76MOL   C19531845   2.380   3.574   0.306 -0.8115 -0.0283  0.6806
   76MOL   C19631846   2.268   3.543   0.198 -0.5479 -0.4027  0.1571
   76MOL   C19731847   2.256   3.659   0.092  0.1185  0.2358  0.3776
   76MOL   H19831848   2.580   3.965   0.714 -1.4092 -1.6571  0.5272
   76MOL   H19931849   2.616   3.790   0.709 -0.8593 -1.9652 -1.1830
   76MOL   H20031850   2.448   3.930   0.500 -1.5698  0.9597  1.1416
   76MOL   H20131851   2.477   3.634   0.555  0.8131  0.9494  0.5668
   76MOL   H20231852   2.578   3.716   0.441  0.1763  2.4852 -0.3419
   76MOL   H20331853   2.376   3.793   0.319 -0.1611 -0.9758 -0.9594
   76MOL   H20431854   2.265   3.694   0.417 -0.8125 -0.2606  0.4978
   76MOL   H20531855   2.478   3.581   0.259 -0.3919 -3.2898  0.9368
   76MOL   H20631856   2.387   3.488   0.374  1.0283 -0.2516  0.2139
   76MOL   H20731857   2.171   3.519   0.241 -1.4188 -0.6484 -1.8688
   76MOL   H20831858   2.292   3.450   0.148 -4.2760 -2.6276  2.3118
   76MOL   H20931859   2.182   3.639   0.014  3.9664 -0.8571 -3.1957
   76MOL   H21031860   2.355   3.665   0.046  0.1939  0.3717  0.5626
   76MOL   H21131861   2.229   3.754   0.137  1.5425  0.6591  0.3486
   76MOL   C21231862   2.351   3.837   0.671  0.4342  0.1591 -0.0999
   76MOL   C21331863   2.272   3.969   0.697 -0.2030 -0.5119 -0.1880
   76MOL   C21431864   2.356   4.097   0.750 -0.6850  0.2612 -0.0904
   76MOL   C21531865   2.399   4.072   0.895  0.1620 -0.2759 -0.5401
   76MOL   C21631866   2.466   4.190   0.956  0.5439  1.0673 -0.1549
   76MOL   C21731867   2.530   4.155   1.096 -1.2730  0.0030  0.1620
   76MOL   C21831868   2.629   4.040   1.099  0.2410  0.0234 -0.3671
   76MOL   H21931869   2.373   3.792   0.767 -0.8153  0.5737  0.3902
   76MOL   H22031870   2.273   3.771   0.631 -1.2578  0.7519  2.1242
   76MOL   H22131871   2.202   3.961   0.780  1.0144  0.1174  0.9310
   76MOL   H22231872   2.444   4.107   0.685 -1.1918 -2.3164 -1.2549
   76MOL   H22331873   2.285   4.179   0.755 -0.5162  0.3276  1.4779
   76MOL   H22431874   2.467   3.987   0.901  1.2743  0.5794 -0.8800
   76MOL   H22531875   2.308   4.040   0.946  0.2055 -1.3661 -1.1199
   76MOL   H22631876   2.532   4.238   0.885  0.6248 -0.3349 -1.0422
   76MOL   H22731877   2.383   4.259   0.970 -1.0891 -0.9359  0.4160
   76MOL   H22831878   2.586   4.247   1.114 -1.8256  0.0888  1.5007
   76MOL   H22931879   2.456   4.139   1.174 -1.3356  2.3414  0.6270
   76MOL   H23031880   2.718   4.060   1.040 -0.6961  1.1295 -1.4375
   76MOL   H23131881   2.585   3.942   1.076  0.6143 -0.2293 -0.0188
   76MOL   H23231882   2.658   4.028   1.204  2.8814  3.8082 -0.5724
   76MOL   C23331883   2.189   4.007   0.571  0.4527  0.5917  0.3336
   76MOL   C23431884   2.037   3.999   0.579 -0.1091 -0.0415  1.1377
   76MOL   C23531885   1.971   4.073   0.455 -0.0925 -0.0405  0.0123
   76MOL   C23631886   1.974   4.228   0.475  0.1079  0.8350 -0.2720
   76MOL   C23731887   1.905   4.313   0.371  0.5652 -0.0496  0.2339
   76MOL   C23831888   1.942   4.466   0.372  0.1163  0.3773 -0.6561
   76MOL   C23931889   1.846   4.540   0.282 -0.0758 -0.5920  0.3255
   76MOL   H24031890   2.219   3.951   0.483  0.0971  0.2181  0.4469
   76MOL   H24131891   2.222   4.106   0.541  1.5103 -0.2792 -1.4181
   76MOL   H24231892   1.996   4.050   0.665 -0.1847 -1.3696  1.9053
   76MOL   H24331893   1.864   4.050   0.464  0.1600 -1.5751 -0.7980
   76MOL   H24431894   2.006   4.030   0.361 -0.2415 -0.3521  0.0990
   76MOL   H24531895   2.079   4.255   0.473 -0.1236  1.7789 -0.1441
   76MOL   H24631896   1.927   4.257   0.570  1.9084  1.5241  0.4262
   76MOL   H24731897   1.797   4.302   0.376  0.3765  1.5319  0.1267
   76MOL   H24831898   1.918   4.272   0.272  0.7812 -0.9066  0.6178
   76MOL   H24931899   1.920   4.490   0.476 -0.3910 -1.4004 -0.3436
   76MOL   H25031900   2.046   4.483   0.344  0.4331 -0.8304 -0.2358
   76MOL   H25131901   1.740   4.548   0.304  0.0706 -0.4755  1.0047
   76MOL   H25231902   1.879   4.638   0.249 -0.1653 -0.8741 -0.6030
   76MOL   H25331903   1.851   4.482   0.190 -1.5108 -0.1324 -0.0507
   76MOL   C25431904   1.990   3.848   0.576  0.1139 -0.2343  0.4648
   76MOL   C25531905   1.842   3.804   0.618 -0.1758  0.0490 -0.8203
   76MOL   C25631906   1.743   3.789   0.499  0.1254 -1.2637 -0.6643
   76MOL   C25731907   1.795   3.692   0.397 -0.6359 -0.3131  0.5252
   76MOL   C25831908   1.686   3.647   0.289  0.6911  0.1320  0.0424
   76MOL   C25931909   1.735   3.520   0.211  0.5217 -0.3510 -0.0062
   76MOL   C26031910   1.629   3.472   0.109  0.2158  0.3675 -0.7836
   76MOL   H26131911   2.045   3.804   0.659  0.5270 -0.2237  0.2001
   76MOL   H26231912   2.031   3.790   0.493  1.4136  1.1832  0.0930
   76MOL   H26331913   1.835   3.703   0.657 -1.2301 -0.2456 -1.7675
   76MOL   H26431914   1.723   3.878   0.441  0.2380 -1.7740 -1.4989
   76MOL   H26531915   1.652   3.758   0.551  1.2174 -1.1408  1.3709
   76MOL   H26631916   1.879   3.738   0.346  1.0259 -0.9784  2.5821
   76MOL   H26731917   1.825   3.599   0.445  0.6121 -0.1647  0.0412
   76MOL   H26831918   1.665   3.729   0.219  2.3128  0.5620  0.0341
   76MOL   H26931919   1.592   3.624   0.338  0.4383  1.5371  0.2295
   76MOL   H27031920   1.830   3.533   0.158  0.1962 -0.6316 -0.6627
   76MOL   H27131921   1.758   3.444   0.286  1.4705 -0.5509 -0.4895
   76MOL   H27231922   1.668   3.387   0.053  0.3449  1.1167 -1.8441
   76MOL   H27331923   1.532   3.439   0.147  0.6358 -0.4054 -0.3665
   76MOL   H27431924   1.620   3.556   0.040 -2.9429  0.2923 -0.5258
   76MOL   C27531925   1.780   3.891   0.725  0.0471 -0.4907 -0.2261
   76MOL   C27631926   1.856   3.900   0.868 -0.2567 -0.0127  0.5874
   76MOL   C27731927   1.878   3.764   0.939  0.3021  0.3123  0.3359
   76MOL   C27831928   1.753   3.674   0.970  0.1499  0.9690  0.2054
   76MOL   C27931929   1.786   3.539   1.046  0.5965 -0.1846 -0.2805
   76MOL   C28031930   1.842   3.569   1.182  0.4397  1.1524  0.0771
   76MOL   C28131931   1.905   3.450   1.260 -0.2773  0.1999  0.1392
   76MOL   H28231932   1.684   3.849   0.754  0.8380 -0.1767  3.0864
   76MOL   H28331933   1.745   3.986   0.685 -1.3727 -1.1838 -0.6521
   76MOL   H28431934   1.960   3.931   0.859  0.6988 -3.0721  0.8147
   76MOL   H28531935   1.957   3.707   0.891  1.2630  1.4856  0.4875
   76MOL   H28631936   1.928   3.793   1.031  0.3866 -0.1720  0.4428
   76MOL   H28731937   1.719   3.646   0.870  0.7498  2.0746 -0.3150
   76MOL   H28831938   1.676   3.731   1.020  0.5678 -0.1475  2.1714
   76MOL   H28931939   1.858   3.481   0.989 -0.0987 -2.3427  0.9884
   76MOL   H29031940   1.701   3.471   1.054  0.5103 -0.3906 -2.7135
   76MOL   H29131941   1.930   3.628   1.157  0.9123  0.3420 -0.1834
   76MOL   H29231942   1.769   3.622   1.244 -1.6197 -1.2056 -0.2529
   76MOL   H29331943   1.935   3.485   1.359  1.3690  3.3685 -1.3985
   76MOL   H29431944   1.979   3.397   1.199 -0.8168 -0.8328  0.3626
   76MOL   H29531945   1.831   3.375   1.290 -0.2263 -0.4020 -1.1751
   76MOL   C29631946   1.784   4.001   0.961 -0.4417  0.0717 -0.1305
   76MOL   C29731947   1.802   4.153   0.925  0.4630 -0.3027  0.0584
   76MOL   C29831948   1.942   4.217   0.975  0.0342  0.1505  0.0064
   76MOL   C29931949   1.988   4.325   0.877 -0.2545  0.5649  0.0753
   76MOL   C30031950   2.101   4.417   0.922  0.1149 -0.4694 -0.0698
   76MOL   C30131951   2.143   4.529   0.827  1.0856 -0.3901 -0.2484
   76MOL   C30231952   2.065   4.669   0.844 -0.8396  0.0622 -0.3118
   76MOL   H30331953   1.682   3.961   0.967  0.7624 -3.1613 -0.1523
   76MOL   H30431954   1.825   3.990   1.061 -0.8403  2.3830  0.3136
   76MOL   H30531955   1.809   4.143   0.817 -0.1832  1.1733 -0.1277
   76MOL   H30631956   1.934   4.253   1.078  0.6034 -2.0693  0.8666
   76MOL   H30731957   2.010   4.132   0.981  1.7100  1.5823  1.5091
   76MOL   H30831958   1.899   4.387   0.869 -1.2329 -1.0507 -2.1171
   76MOL   H30931959   2.012   4.279   0.781  0.2935  0.6657  0.1619
   76MOL   H31031960   2.180   4.349   0.955  0.5343  0.4808  0.8792
   76MOL   H31131961   2.070   4.460   1.017 -1.5122 -1.7150 -0.0126
   76MOL   H31231962   2.250   4.538   0.847  1.7224 -0.3704 -3.4333
   76MOL   H31331963   2.125   4.486   0.728 -1.9271 -1.9592  0.9103
   76MOL   H31431964   1.965   4.667   0.801 -1.3096 -0.3164  0.7625
   76MOL   H31531965   2.060   4.707   0.946  2.3632 -0.5760  0.1481
   76MOL   H31631966   2.118   4.751   0.796 -1.8512  0.3594 -0.9158
   76MOL   C31731967   1.681   4.239   0.958 -0.6953 -0.1722 -1.5411
   76MOL   C31831968   1.546   4.217   0.882  0.2501  0.0071 -0.3232
   76MOL   C31931969   1.445   4.320   0.930  0.8090 -0.3953  0.4683
   76MOL   C32031970   1.402   4.311   1.081 -0.1650  0.5137  0.3598
   76MOL   C32131971   1.268   4.375   1.118 -0.1720 -0.8165  0.0334
   76MOL   C32231972   1.200   4.319   1.243 -0.2038  0.1822 -0.2568
   76MOL   C32331973   1.054   4.312   1.229  0.1263 -0.3238  0.0289
   76MOL   H32431974   1.707   4.344   0.942  0.3315 -0.2032 -0.1515
   76MOL   H32531975   1.659   4.231   1.064 -0.8878 -1.3194 -1.6597
   76MOL   H32631976   1.503   4.118   0.896 -0.5447  0.4987  0.7708
   76MOL   H32731977   1.354   4.316   0.870  0.3583  3.1343  0.8267
   76MOL   H32831978   1.476   4.423   0.911  1.4564 -0.3853  1.5074
   76MOL   H32931979   1.476   4.349   1.151  0.5829  0.2224 -0.2631
   76MOL   H33031980   1.408   4.205   1.103  1.8388  0.4925 -0.2334
   76MOL   H33131981   1.210   4.339   1.033 -0.4856 -0.1061 -0.0560
   76MOL   H33231982   1.261   4.483   1.103 -1.4770 -0.6580  1.6764
   76MOL   H33331983   1.223   4.387   1.325 -2.1992 -1.5935  1.8147
   76MOL   H33431984   1.246   4.225   1.271  0.3732  0.3392 -0.6656
   76MOL   H33531985   0.994   4.282   1.315  1.6309 -3.5196  0.0177
   76MOL   H33631986   1.027   4.260   1.137  1.6201  0.6335 -0.9731
   76MOL   H33731987   1.007   4.409   1.215  0.2039 -0.6328 -2.5946
   76MOL   C33831988   1.556   4.242   0.725  1.0574 -0.2322 -0.4800
   76MOL   C33931989   1.436   4.182   0.639 -0.2552 -0.1834  0.6073
   76MOL   C34031990   1.436   4.033   0.633 -0.2119  0.7261  0.2663
   76MOL   C34131991   1.297   3.977   0.607  0.1692  0.3304  0.2415
   76MOL   C34231992   1.305   3.827   0.573 -0.1994 -0.6854  0.2090
   76MOL   C34331993   1.176   3.753   0.559  0.0178 -0.1774 -0.7360
   76MOL   C34431994   1.101   3.779   0.426  0.4604  0.6707 -0.1705
   76MOL   H34531995   1.637   4.182   0.683 -1.6622 -2.8099 -2.2772
   76MOL   H34631996   1.573   4.348   0.704  1.0531  0.2912  2.0471
   76MOL   H34731997   1.347   4.213   0.694 -0.7566  1.2899 -1.0135
   76MOL   H34831998   1.494   4.001   0.547 -1.8045 -0.7072 -0.3051
   76MOL   H34931999   1.473   3.978   0.719  1.1063  1.4349  0.1667
   76MOL   H35032000   1.245   4.026   0.526  0.7727 -1.9981 -1.6025
   76MOL   H35132001   1.236   3.993   0.696  0.6572 -1.6008  0.9616
   76MOL   H35232002   1.379   3.798   0.499  1.5800  0.5482  1.4488
   76MOL   H35332003   1.344   3.779   0.663 -0.7844 -0.3627  0.6340
   76MOL   H35432004   1.196   3.646   0.555  0.7876  0.0160 -2.4757
   76MOL   H35532005   1.108   3.778   0.640  1.3022  2.7157 -0.4984
   76MOL   H35632006   1.088   3.887   0.418  0.9876  0.5911 -2.4255
   76MOL   H35732007   1.000   3.740   0.416 -0.4739  3.2222 -1.1719
   76MOL   H35832008   1.146   3.740   0.335 -0.6797 -2.2952  0.4831
   76MOL   C35932009   1.431   4.251   0.500  0.0423  0.6852 -0.2450
   76MOL   C36032010   1.326   4.358   0.478 -0.0327 -0.2141 -0.1182
   76MOL   C36132011   1.335   4.482   0.578  0.3269  0.3748  0.0340
   76MOL   C36232012   1.446   4.587   0.560  0.2718 -0.6278 -0.6236
   76MOL   C36332013   1.471   4.670   0.683 -0.1062 -0.9780 -0.4630
   76MOL   C36432014   1.592   4.761   0.678 -0.2076  0.5136 -0.8405
   76MOL   C36532015   1.724   4.696   0.677 -0.1119  0.4414  0.0119
   76MOL   H36632016   1.417   4.170   0.428 -0.5348  1.4587 -1.0168
   76MOL   H36732017   1.528   4.285   0.463 -0.4156  1.4503 -0.7769
   76MOL   H36832018   1.234   4.305   0.499  1.2710 -2.1453  0.8733
   76MOL   H36932019   1.244   4.541   0.576  0.8427  1.1615 -0.9376
   76MOL   H37032020   1.346   4.442   0.679  0.7678  1.1216  0.2932
   76MOL   H37132021   1.538   4.532   0.538  0.7634 -0.0220 -0.1356
   76MOL   H37232022   1.435   4.653   0.474 -0.9009  0.4072  0.2999
   76MOL   H37332023   1.383   4.735   0.687 -0.0294 -0.9510  0.9303
   76MOL   H37432024   1.476   4.614   0.777  0.7948  0.4212  0.3329
   76MOL   H37532025   1.577   4.833   0.597 -1.2141  1.7421  0.4023
   76MOL   H37632026   1.581   4.820   0.769  0.2984 -1.7524  0.7403
   76MOL   H37732027   1.798   4.774   0.696  0.3871 -0.0509  0.1155
   76MOL   H37832028   1.730   4.629   0.763  0.9003 -0.8991 -1.0816
   76MOL   H37932029   1.755   4.643   0.587  1.1072  0.7775  0.2253
   76MOL   C38032030   1.328   4.403   0.332  0.4200  0.3496 -0.0193
   76MOL   C38132031   1.288   4.301   0.225 -0.5889 -0.1450  0.0673
   76MOL   C38232032   1.147   4.319   0.179 -0.1314 -0.0745  0.6458
   76MOL   C38332033   1.082   4.191   0.116  0.6525  1.0874 -0.5174
   76MOL   C38432034   0.936   4.194   0.078 -0.3518  0.7201  0.3130
   76MOL   C38532035   0.908   4.242   7.647  0.0885  0.2545  0.2879
   76MOL   C38632036   0.771   4.218   7.582 -0.4301 -0.4598 -0.3790
   76MOL   H38732037   1.254   4.483   0.332 -1.3883 -1.2634  1.3818
   76MOL   H38832038   1.419   4.457   0.309 -0.2577  1.2616 -0.5862
   76MOL   H38932039   1.276   4.199   0.262 -2.6494 -0.9298 -2.6727
   76MOL   H39032040   1.142   4.410   0.119 -0.7463 -1.2342 -1.0736
   76MOL   H39132041   1.085   4.333   0.267 -0.8186 -1.3425  0.3678
   76MOL   H39232042   1.140   4.167   0.027  1.1094  0.1773  0.0137
   76MOL   H39332043   1.102   4.105   0.180  0.4099  4.2475  4.0844
   76MOL   H39432044   0.884   4.100   0.094  0.3099  0.0458 -1.3647
   76MOL   H39532045   0.892   4.269   0.144 -0.8863  0.1043  0.6624
   76MOL   H39632046   0.986   4.195   7.586  0.5331  1.4080 -0.0536
   76MOL   H39732047   0.923   4.349   7.636 -1.0326  0.3612 -0.2636
   76MOL   H39832048   0.737   4.117   7.601 -2.6160  0.5563  1.3824
   76MOL   H39932049   0.774   4.244   7.476  1.9018  2.2300  0.2560
   76MOL   H40032050   0.697   4.284   7.628 -0.4860  0.0892 -1.2371
   76MOL   C40132051   1.390   4.308   0.109 -0.0788 -0.1429  0.1270
   76MOL   C40232052   1.512   4.219   0.155 -0.4011  0.0277  0.2025
   76MOL   C40332053   1.634   4.218   0.051  0.5049  0.4176 -0.6966
   76MOL   C40432054   1.723   4.096   0.087 -0.0007 -0.1295  1.1217
   76MOL   C40532055   1.862   4.091   0.019  0.2987 -0.1720  0.0903
   76MOL   C40632056   1.955   3.976   0.062  0.1594  0.0938 -0.1617
   76MOL   C40732057   2.081   3.974   7.687  0.1245 -0.2940  0.2389
   76MOL   H40832058   1.413   4.415   0.102 -0.9924  0.1733  1.7271
   76MOL   H40932059   1.338   4.271   0.021 -1.3034 -1.8409  1.5336
   76MOL   H41032060   1.481   4.117   0.178  1.8907 -1.0143 -1.0987
   76MOL   H41132061   1.705   4.300   0.055  1.9281 -0.8130 -0.1301
   76MOL   H41232062   1.603   4.212   7.660 -1.8616  2.7555 -0.1656
   76MOL   H41332063   1.669   4.006   0.057  0.9198 -0.4270  0.3396
   76MOL   H41432064   1.753   4.094   0.192  2.2535 -1.5345  0.4766
   76MOL   H41532065   1.832   4.103   7.629  3.7004 -0.3176 -0.9558
   76MOL   H41632066   1.908   4.185   0.049 -1.1219  0.3151  0.8099
   76MOL   H41732067   1.985   3.978   0.167 -0.1933 -1.7207 -0.0096
   76MOL   H41832068   1.898   3.884   0.048  2.8337 -1.2162 -2.9742
   76MOL   H41932069   2.148   3.893   0.005  0.8398  0.5144  0.8319
   76MOL   H42032070   2.130   4.072   7.688  1.1018 -0.7056 -2.8186
   76MOL   H42132071   2.058   3.945   7.585  4.0577  2.0675 -1.4406
   76MOL   H42232072   1.553   4.243   0.253 -1.7472 -1.6901  1.2292
   77MOL     C132073   4.767   4.847   1.726 -0.1144  0.2628  0.3362
   77MOL     C232074   4.658   4.769   1.661  0.6185 -0.0867 -0.6258
   77MOL     C332075   4.612   4.824   1.524 -0.5062  0.7595  0.7282
   77MOL     C432076   4.580   4.972   1.519 -0.4434 -0.2266 -0.4811
   77MOL     C532077   4.520   5.017   1.376  0.0582 -0.6933 -0.1660
   77MOL     C632078   4.517   5.171   1.357 -0.2510  0.5331  0.4575
   77MOL     C732079   4.474   5.215   1.218  0.3174 -0.3028 -0.4653
   77MOL     H832080   4.732   4.946   1.758 -0.9517 -0.4609  1.7110
   77MOL     H932081   4.857   4.857   1.666 -0.6590  0.0101 -0.5416
   77MOL    H1032082   4.692   4.668   1.641 -1.1506 -0.7551 -0.3067
   77MOL    H1132083   4.694   4.812   1.453 -1.0474  0.2405  0.1883
   77MOL    H1232084   4.540   4.758   1.476  1.0301 -2.3805  2.6100
   77MOL    H1332085   4.518   5.010   1.600 -0.1594  0.0856 -0.4068
   77MOL    H1432086   4.671   5.031   1.535 -0.8837 -0.3722  2.9703
   77MOL    H1532087   4.421   4.973   1.372  0.2824 -1.2499  0.5445
   77MOL    H1632088   4.575   4.980   1.290  2.8246  0.4291  1.0520
   77MOL    H1732089   4.607   5.225   1.387  0.6196 -0.2030 -0.7962
   77MOL    H1832090   4.447   5.207   1.432  1.8395  3.1344  1.2450
   77MOL    H1932091   4.526   5.171   1.133 -0.4376 -1.2249 -0.4712
   77MOL    H2032092   4.484   5.321   1.199 -0.5177  0.5379  3.3170
   77MOL    H2132093   4.370   5.187   1.202  0.2835  1.1283 -3.0333
   77MOL    H2232094   4.803   4.795   1.815  1.8943  2.4334  0.8575
   77MOL    C2332095   4.525   4.755   1.743  0.2537 -0.6836 -0.0349
   77MOL    C2432096   4.544   4.731   1.895  0.6827 -0.9138 -0.0446
   77MOL    C2532097   4.609   4.589   1.920 -0.2100 -1.4919 -0.2155
   77MOL    C2632098   4.678   4.576   2.057  0.1075 -0.0168 -0.6547
   77MOL    C2732099   4.778   4.460   2.077 -0.0484 -0.4563  0.5527
   77MOL    C2832100   4.867   4.478   2.201  0.0991  0.0923  0.6610
   77MOL    C2932101   4.936   4.345   2.239 -0.4331  0.1215  0.5175
   77MOL    H3032102   4.457   4.839   1.731 -1.0562 -1.7790 -0.4858
   77MOL    H3132103   4.464   4.675   1.701 -0.5096  0.6209 -1.4548
   77MOL    H3232104   4.611   4.808   1.933  1.9719 -1.8813 -0.3186
   77MOL    H3332105   4.688   4.569   1.849  1.8385  3.5460  0.4092
   77MOL    H3432106   4.529   4.515   1.909 -3.0507  1.1333  1.9173
   77MOL    H3532107   4.608   4.583   2.140 -0.5437  0.0553 -1.2080
   77MOL    H3632108   4.734   4.668   2.073 -0.6536  0.0749  1.6470
   77MOL    H3732109   4.845   4.455   1.991 -1.7577 -3.2992 -0.6739
   77MOL    H3832110   4.720   4.368   2.082  2.4521 -2.1203 -0.3964
   77MOL    H3932111   4.814   4.510   2.291 -0.2567 -1.4046  0.9902
   77MOL    H4032112   4.940   4.554   2.174  0.0520 -0.3920 -0.8498
   77MOL    H4132113   4.860   4.273   2.269 -2.0699  1.2860 -0.7511
   77MOL    H4232114   5.001   4.300   2.164 -0.4656  1.2044 -0.1801
   77MOL    H4332115   4.996   4.353   2.330 -0.0594 -1.1733  0.3839
   77MOL    C4432116   4.409   4.731   1.969  0.1442 -0.8023  0.0182
   77MOL    C4532117   4.364   4.879   2.012  0.2083  0.3852  0.4596
   77MOL    C4632118   4.210   4.887   2.042  0.8030 -0.7546 -1.0821
   77MOL    C4732119   4.166   4.789   2.154  0.1750 -0.4599 -0.7035
   77MOL    C4832120   4.019   4.835   2.191  0.4051 -0.4983  0.7062
   77MOL    C4932121   3.956   4.762   2.311 -0.5113  0.2550  0.2218
   77MOL    C5032122   4.035   4.775   2.442 -1.1201  0.2485 -0.3607
   77MOL    H5132123   4.413   4.665   2.055 -0.7007  2.3285  2.5723
   77MOL    H5232124   4.336   4.694   1.897 -0.2554 -0.6047  0.3202
   77MOL    H5332125   4.363   4.938   1.921  1.3241 -0.1558  0.0894
   77MOL    H5432126   4.148   4.866   1.955 -2.0249  1.1068  0.4198
   77MOL    H5532127   4.182   4.992   2.053  1.6546 -0.4445 -1.8061
   77MOL    H5632128   4.170   4.685   2.124  0.0544 -0.6449 -0.0785
   77MOL    H5732129   4.231   4.799   2.242 -0.9868 -1.2494  0.2542
   77MOL    H5832130   3.960   4.825   2.100 -0.5340  1.6086  1.0628
   77MOL    H5932131   4.027   4.941   2.213  0.1756 -0.1004 -1.0891
   77MOL    H6032132   3.952   4.656   2.288  0.1074 -0.1519  1.9229
   77MOL    H6132133   3.853   4.797   2.322 -0.3884  1.4700 -2.1474
   77MOL    H6232134   4.087   4.869   2.461 -0.8368 -0.0320  0.2938
   77MOL    H6332135   4.111   4.698   2.457 -0.6458  0.1194 -3.1323
   77MOL    H6432136   3.963   4.770   2.524 -1.0145  1.3823 -0.1964
   77MOL    C6532137   4.447   4.948   2.124 -0.1830  0.7654 -0.0658
   77MOL    C6632138   4.525   5.078   2.075  0.6215  0.4670 -0.4216
   77MOL    C6732139   4.653   5.109   2.164 -0.3582 -0.4625 -0.7437
   77MOL    C6832140   4.777   5.025   2.139 -0.2195  0.0323  0.0708
   77MOL    C6932141   4.891   5.020   2.244 -1.1270 -0.2951  0.3676
   77MOL    C7032142   4.853   4.957   2.381 -0.2473 -0.4106  0.6812
   77MOL    C7132143   4.890   4.811   2.391 -0.0159  0.5608  0.0658
   77MOL    H7232144   4.391   4.979   2.212  1.2491  2.9972  0.1085
   77MOL    H7332145   4.525   4.882   2.161  1.2707  3.3433  1.6782
   77MOL    H7432146   4.556   5.058   1.973  1.3078 -0.6839 -0.0086
   77MOL    H7532147   4.689   5.209   2.140  0.9525 -0.3115  1.7763
   77MOL    H7632148   4.622   5.107   2.268  1.5273  0.5314 -0.1388
   77MOL    H7732149   4.753   4.921   2.116 -1.0526  0.4814 -1.1489
   77MOL    H7832150   4.807   5.052   2.038 -1.5522 -0.6733 -0.5208
   77MOL    H7932151   4.983   4.973   2.210  0.6534  2.3928  1.2694
   77MOL    H8032152   4.921   5.122   2.268  0.6995 -0.9251  0.8789
   77MOL    H8132153   4.745   4.963   2.392 -0.3069  0.0161 -0.0651
   77MOL    H8232154   4.916   5.006   2.455  0.8433 -0.8085  0.0344
   77MOL    H8332155   4.997   4.788   2.384  0.1294  1.0375  0.6572
   77MOL    H8432156   4.851   4.761   2.480 -0.7288  0.0878 -0.5138
   77MOL    H8532157   4.844   4.758   2.308  2.8604 -0.2815 -1.0653
   77MOL    C8632158   4.425   5.190   2.073  0.3040  0.0502  0.2470
   77MOL    C8732159   4.462   5.326   2.015 -0.2624 -0.3677  0.0306
   77MOL    C8832160   4.504   5.312   1.870 -0.2348  0.4679  0.2935
   77MOL    C8932161   4.536   5.436   1.786  0.1852 -0.4323 -0.0504
   77MOL    C9032162   4.600   5.414   1.646  0.1860  0.3935 -1.0084
   77MOL    C9132163   4.637   5.555   1.577 -0.3843  0.2808  0.0692
   77MOL    C9232164   4.710   5.540   1.444  0.0383 -0.2340  0.4710
   77MOL    H9332165   4.341   5.144   2.021  0.0236 -0.0954  0.8132
   77MOL    H9432166   4.390   5.201   2.176 -1.8334 -3.7801  0.0142
   77MOL    H9532167   4.539   5.374   2.075  0.1515  0.0149 -0.7979
   77MOL    H9632168   4.594   5.250   1.869  1.2303  2.5471  0.7344
   77MOL    H9732169   4.428   5.253   1.817 -1.2217  2.4327 -0.5491
   77MOL    H9832170   4.445   5.485   1.753 -1.3387 -3.0082  0.1583
   77MOL    H9932171   4.595   5.501   1.850 -0.3143 -0.1972  0.1697
   77MOL   H10032172   4.532   5.354   1.585  2.7959 -1.0788 -2.5609
   77MOL   H10132173   4.700   5.372   1.652 -0.3983 -1.5112 -3.7757
   77MOL   H10232174   4.551   5.619   1.553  0.3413  2.2269  2.3848
   77MOL   H10332175   4.705   5.615   1.638  0.9752 -1.8423  0.6857
   77MOL   H10432176   4.652   5.489   1.367 -0.3140  1.8338 -0.6740
   77MOL   H10532177   4.791   5.467   1.454  1.7051  1.3552 -1.1359
   77MOL   H10632178   4.741   5.637   1.407  1.2195 -0.6026  0.4946
   77MOL   C10732179   4.342   5.419   2.027 -0.7095  0.0282 -0.3993
   77MOL   C10832180   4.287   5.454   2.170 -0.1243 -0.9665  0.3136
   77MOL   C10932181   4.359   5.575   2.236 -0.8954  0.5961  0.7658
   77MOL   C11032182   4.510   5.585   2.250  0.0374  0.4102 -0.6811
   77MOL   C11132183   4.564   5.482   2.357 -0.3106 -0.6152  0.3210
   77MOL   C11232184   4.700   5.534   2.413  0.2086 -0.1179 -0.3932
   77MOL   C11332185   4.725   5.490   2.560  0.2082 -0.1148 -0.1511
   77MOL   H11432186   4.265   5.373   1.965 -0.7876  0.0687 -0.3318
   77MOL   H11532187   4.367   5.513   1.980  0.4368  1.7727  3.4808
   77MOL   H11632188   4.287   5.367   2.237  2.5717 -0.7055  0.6726
   77MOL   H11732189   4.325   5.580   2.340 -1.6169  2.1992  0.4720
   77MOL   H11832190   4.342   5.663   2.174  0.2611  1.2416  1.3417
   77MOL   H11932191   4.566   5.578   2.157 -1.1274 -1.1127 -1.2996
   77MOL   H12032192   4.534   5.688   2.275  0.0277  0.6977 -1.8271
   77MOL   H12132193   4.576   5.380   2.321 -1.0872 -0.1686 -1.2910
   77MOL   H12232194   4.497   5.479   2.443 -1.3780  1.0713 -0.4175
   77MOL   H12332195   4.788   5.502   2.356 -0.5255 -3.4480  0.2558
   77MOL   H12432196   4.695   5.643   2.418 -2.2650 -0.2257 -0.0175
   77MOL   H12532197   4.763   5.388   2.568  0.8840  0.1704  0.3643
   77MOL   H12632198   4.792   5.557   2.614 -0.3314 -0.0203  0.3998
   77MOL   H12732199   4.632   5.469   2.613  1.0807 -2.9990  0.3370
   77MOL   C12832200   4.141   5.491   2.157  0.1153  0.1524  0.2715
   77MOL   C12932201   4.035   5.379   2.161 -0.0510 -0.2268 -0.1410
   77MOL   C13032202   4.032   5.300   2.297 -0.7367 -0.5070  0.8898
   77MOL   C13132203   3.893   5.240   2.319  0.2469 -0.0727 -0.0059
   77MOL   C13232204   3.884   5.173   2.460 -0.4156 -0.6914 -0.0587
   77MOL   C13332205   3.765   5.090   2.490 -0.3389  0.2574  0.0221
   77MOL   C13432206   3.627   5.161   2.492  0.1473  0.0565 -0.7227
   77MOL   H13532207   4.116   5.554   2.242  1.8905  0.6644  0.4412
   77MOL   H13632208   4.129   5.551   2.066  0.3848  0.0279  0.1517
   77MOL   H13732209   3.942   5.435   2.151 -0.2844 -0.6719 -0.5355
   77MOL   H13832210   4.064   5.364   2.380 -1.4022 -1.1812  1.6856
   77MOL   H13932211   4.105   5.219   2.302 -0.5486 -0.4523 -0.8640
   77MOL   H14032212   3.850   5.176   2.241  0.9086  0.9332 -1.2257
   77MOL   H14132213   3.814   5.314   2.313  0.8158  0.6598  1.4492
   77MOL   H14232214   3.905   5.251   2.533  0.2859 -1.5484  0.6778
   77MOL   H14332215   3.963   5.098   2.467  0.7374  0.4415 -0.5982
   77MOL   H14432216   3.773   5.054   2.593 -2.8472  0.2651  0.2477
   77MOL   H14532217   3.765   5.002   2.426 -1.7401 -2.6777  3.8788
   77MOL   H14632218   3.546   5.091   2.511 -0.5843  0.9736 -0.4823
   77MOL   H14732219   3.610   5.206   2.394  1.7504  1.8144 -0.2300
   77MOL   H14832220   3.618   5.242   2.564 -2.1282  0.0604 -0.9841
   77MOL   C14932221   4.046   5.276   2.047  0.1805  0.6012  0.5923
   77MOL   C15032222   4.022   5.329   1.901 -0.2692 -0.9667  0.1859
   77MOL   C15132223   3.864   5.325   1.880  0.2143  0.3703  0.3093
   77MOL   C15232224   3.818   5.444   1.788 -0.3886  0.1356  0.8435
   77MOL   C15332225   3.833   5.585   1.842  0.2532  0.3948  0.2401
   77MOL   C15432226   3.735   5.612   1.960  1.2696  0.6911 -0.4416
   77MOL   C15532227   3.765   5.738   2.049  0.4848  0.3095  0.4953
   77MOL   H15632228   4.138   5.218   2.054 -0.3033 -0.2323  0.1214
   77MOL   H15732229   3.969   5.200   2.064  0.5750 -0.4152 -1.9506
   77MOL   H15832230   4.057   5.431   1.886 -0.4713 -0.7384  1.2325
   77MOL   H15932231   3.828   5.224   1.861  0.6688  0.4609 -1.1301
   77MOL   H16032232   3.807   5.336   1.972 -0.9438  4.1877 -0.7749
   77MOL   H16132233   3.720   5.415   1.748  0.4425 -0.7932 -0.5461
   77MOL   H16232234   3.876   5.458   1.697  0.0936  0.4680  1.1997
   77MOL   H16332235   3.808   5.653   1.760  0.1309 -0.5381 -0.4995
   77MOL   H16432236   3.937   5.606   1.867  0.8219 -0.9504 -0.9312
   77MOL   H16532237   3.734   5.522   2.021 -0.7961  0.6110 -0.5690
   77MOL   H16632238   3.634   5.624   1.923  1.3451  2.7275 -0.0699
   77MOL   H16732239   3.872   5.749   2.063  0.2982  0.5577  1.7443
   77MOL   H16832240   3.724   5.732   2.150  0.1212  0.6267  0.3700
   77MOL   H16932241   3.725   5.828   2.001  2.2029  0.2575 -1.0881
   77MOL   C17032242   4.086   5.231   1.805  0.1809 -0.2758  0.3895
   77MOL   C17132243   4.084   5.257   1.654  0.0867  0.3481  0.8680
   77MOL   C17232244   4.174   5.375   1.619  0.0550 -0.0536 -0.4477
   77MOL   C17332245   4.137   5.468   1.502 -0.2590 -0.4638 -0.2325
   77MOL   C17432246   4.241   5.573   1.492 -0.5994  0.0706 -0.1655
   77MOL   C17532247   4.217   5.667   1.374  0.2246  0.6564 -0.0832
   77MOL   C17632248   4.285   5.804   1.397 -0.4318 -0.0940 -0.5518
   77MOL   H17732249   4.045   5.131   1.821 -0.5819  0.0649  0.5719
   77MOL   H17832250   4.189   5.210   1.833 -0.1927  0.1057  2.0776
   77MOL   H17932251   3.985   5.295   1.631 -0.6325 -0.1693  2.9081
   77MOL   H18032252   4.275   5.335   1.609  0.0034  0.4800 -3.3549
   77MOL   H18132253   4.185   5.437   1.708 -0.1956  0.4933 -0.7985
   77MOL   H18232254   4.037   5.506   1.526  0.0654  1.5169 -1.8730
   77MOL   H18332255   4.138   5.418   1.405  0.4537  0.5041 -0.7336
   77MOL   H18432256   4.344   5.537   1.493 -0.0055  1.7281  1.7066
   77MOL   H18532257   4.233   5.622   1.590  0.9506 -3.2508  1.7123
   77MOL   H18632258   4.109   5.676   1.361 -0.1588 -2.3755  0.6167
   77MOL   H18732259   4.257   5.628   1.280  0.4324  3.3014 -1.1341
   77MOL   H18832260   4.257   5.892   1.338 -0.7431  0.0941 -0.1206
   77MOL   H18932261   4.394   5.807   1.393 -0.3791  1.4327  1.3540
   77MOL   H19032262   4.255   5.834   1.497  1.9268  0.0228  0.1450
   77MOL   C19132263   4.115   5.141   1.559 -0.1032 -0.3722  0.0847
   77MOL   C19232264   4.023   5.006   1.577 -0.1533 -0.5421 -0.7634
   77MOL   C19332265   3.878   5.021   1.531 -0.0415 -0.1400  1.1078
   77MOL   C19432266   3.861   5.046   1.382 -0.0219  0.0351 -0.4100
   77MOL   C19532267   3.716   5.072   1.343 -0.8483 -0.8582  0.7007
   77MOL   C19632268   3.614   4.956   1.355 -0.4243  0.0192  0.0237
   77MOL   C19732269   3.481   5.012   1.311  0.5664  0.1320 -0.1533
   77MOL   H19832270   4.219   5.115   1.578 -0.5089 -2.1479  0.0057
   77MOL   H19932271   4.112   5.168   1.453  2.1885  0.6681  0.2599
   77MOL   H20032272   4.017   4.988   1.685 -1.2748  2.1275 -0.3417
   77MOL   H20132273   3.813   5.081   1.594 -2.1787  1.3800 -2.4177
   77MOL   H20232274   3.825   4.929   1.556 -0.8171 -0.1186 -0.4016
   77MOL   H20332275   3.888   4.958   1.323  1.0320 -0.8952  1.4014
   77MOL   H20432276   3.928   5.127   1.353 -0.7005  0.4680 -0.7635
   77MOL   H20532277   3.687   5.160   1.401 -0.4887  2.3170 -3.6833
   77MOL   H20632278   3.723   5.106   1.240  0.6191 -0.0279  1.0483
   77MOL   H20732279   3.602   4.928   1.460 -2.3458  0.2282 -0.1143
   77MOL   H20832280   3.638   4.866   1.300 -1.7772 -0.0520 -0.4809
   77MOL   H20932281   3.420   4.946   1.249  3.0665 -0.4503 -2.0829
   77MOL   H21032282   3.495   5.108   1.260  2.0003  0.8435  1.5208
   77MOL   H21132283   3.427   5.039   1.401  1.7110  2.0374 -0.0028
   77MOL   C21232284   4.092   4.877   1.516 -0.3418  0.1459 -0.1060
   77MOL   C21332285   4.032   4.736   1.541 -0.3086 -0.2176  0.1595
   77MOL   C21432286   4.117   4.628   1.468 -0.5080 -0.0110  0.1591
   77MOL   C21532287   4.241   4.566   1.531 -0.2361 -0.4650 -0.2128
   77MOL   C21632288   4.275   4.430   1.475 -0.1666 -0.2839  0.2749
   77MOL   C21732289   4.394   4.360   1.534  0.1227 -0.2502  0.0359
   77MOL   C21832290   4.427   4.214   1.485  0.1026  0.5538  0.3721
   77MOL   H21932291   4.192   4.869   1.559  0.0256 -2.3950 -1.3546
   77MOL   H22032292   4.100   4.882   1.408  1.1558  0.2192 -0.0014
   77MOL   H22132293   3.939   4.740   1.485 -0.5138  2.0948  0.6248
   77MOL   H22232294   4.055   4.544   1.440  0.0514 -0.7449  1.1088
   77MOL   H22332295   4.132   4.669   1.368  1.0019  0.5939  0.6107
   77MOL   H22432296   4.240   4.551   1.639 -1.7517  2.2989  0.2295
   77MOL   H22532297   4.326   4.634   1.523  1.7470 -3.0294 -1.5201
   77MOL   H22632298   4.183   4.371   1.484 -0.6731  0.3782 -0.5734
   77MOL   H22732299   4.303   4.457   1.374 -1.1515 -1.5248 -0.3428
   77MOL   H22832300   4.482   4.423   1.523  0.4622 -0.6774  0.2770
   77MOL   H22932301   4.394   4.342   1.642 -1.7260 -0.0967  0.0716
   77MOL   H23032302   4.482   4.162   1.563  0.9766  1.2747  0.2464
   77MOL   H23132303   4.482   4.214   1.391  0.6829 -1.8846  0.6971
   77MOL   H23232304   4.338   4.151   1.475  0.2649  0.4876 -0.7457
   77MOL   C23332305   4.009   4.701   1.689 -0.1490 -0.5216 -0.6901
   77MOL   C23432306   3.944   4.566   1.723 -0.0377 -0.7111 -0.8191
   77MOL   C23532307   3.945   4.527   1.871 -0.3234 -0.0469  0.3221
   77MOL   C23632308   4.071   4.472   1.920  0.4187  0.3380  0.0398
   77MOL   C23732309   4.058   4.417   2.058  0.1912  0.5180  0.1820
   77MOL   C23832310   4.196   4.386   2.122  0.0838 -0.0136 -0.0561
   77MOL   C23932311   4.287   4.288   2.051 -0.4344 -0.5544  0.3827
   77MOL   H24032312   3.942   4.776   1.730  2.0074  0.8895  0.3403
   77MOL   H24132313   4.103   4.702   1.745 -1.3170  2.2642  1.3592
   77MOL   H24232314   3.989   4.488   1.661  0.5479  0.7048 -2.1907
   77MOL   H24332315   3.867   4.452   1.884 -0.0673 -0.3444  0.1553
   77MOL   H24432316   3.921   4.613   1.933 -0.0456 -0.5882  1.1753
   77MOL   H24532317   4.148   4.546   1.937 -1.5370  2.4948 -0.2073
   77MOL   H24632318   4.106   4.381   1.870  2.9828  1.0611  0.4879
   77MOL   H24732319   3.999   4.326   2.049 -1.7468  1.5194  2.1638
   77MOL   H24832320   4.000   4.482   2.123 -1.8215 -0.8991 -0.1443
   77MOL   H24932321   4.253   4.479   2.135  0.8942 -0.3879 -0.8598
   77MOL   H25032322   4.175   4.345   2.221 -1.7307 -1.4992 -1.0421
   77MOL   H25132323   4.311   4.324   1.951  0.1591 -1.4000  0.2160
   77MOL   H25232324   4.382   4.266   2.100 -0.6086 -2.1893 -0.0069
   77MOL   H25332325   4.245   4.188   2.043  0.2109 -0.7533 -0.5640
   77MOL   C25432326   3.798   4.572   1.671  0.0134  0.0234 -0.3135
   77MOL   C25532327   3.736   4.435   1.634  0.2155 -0.3439  0.2684
   77MOL   C25632328   3.782   4.382   1.495  0.1642  0.3995  0.8850
   77MOL   C25732329   3.729   4.453   1.372  0.1125  0.0780 -0.9128
   77MOL   C25832330   3.798   4.416   1.245  0.7343 -0.0260  0.1040
   77MOL   C25932331   3.736   4.502   1.129  0.4926  0.1536  0.6321
   77MOL   C26032332   3.809   4.640   1.120  0.6434 -0.1286  0.4427
   77MOL   H26132333   3.783   4.645   1.592 -0.5382  2.6273  2.0892
   77MOL   H26232334   3.735   4.608   1.753 -1.5834  1.2493 -2.0282
   77MOL   H26332335   3.783   4.360   1.698  1.3249  0.2693  0.1962
   77MOL   H26432336   3.763   4.275   1.487  1.8554  0.1512  0.1368
   77MOL   H26532337   3.890   4.390   1.498  0.1276  0.9771  0.6974
   77MOL   H26632338   3.622   4.435   1.359  0.4270 -2.6597  0.1130
   77MOL   H26732339   3.729   4.562   1.376 -0.7794  0.0682 -0.3910
   77MOL   H26832340   3.779   4.311   1.220 -0.9465  0.2569  0.1176
   77MOL   H26932341   3.906   4.431   1.246  0.7800 -0.1298 -1.9891
   77MOL   H27032342   3.763   4.449   1.037  0.0286 -2.3983  1.9080
   77MOL   H27132343   3.627   4.505   1.131  0.3411  2.4398 -3.9403
   77MOL   H27232344   3.770   4.695   1.205  1.1038 -0.1024  0.6398
   77MOL   H27332345   3.918   4.634   1.119  0.6420 -0.3203  1.1277
   77MOL   H27432346   3.771   4.701   1.038  0.5178  0.4494  0.9228
   77MOL   C27532347   3.586   4.426   1.659 -0.4596 -1.3496  0.8015
   77MOL   C27632348   3.551   4.339   1.782 -0.0923  0.5377 -0.4158
   77MOL   C27732349   3.580   4.187   1.752 -0.3677  0.4866 -0.3033
   77MOL   C27832350   3.579   4.082   1.863  0.4729 -0.4288 -0.4650
   77MOL   C27932351   3.660   4.113   1.981 -0.7112  0.2979  0.7787
   77MOL   C28032352   3.656   3.993   2.084  0.2802 -0.5188  0.2992
   77MOL   C28132353   3.767   4.012   2.189  0.3592 -0.4394 -0.2386
   77MOL   H28232354   3.535   4.392   1.569 -2.7537  3.1397  0.2592
   77MOL   H28332355   3.555   4.530   1.668  0.9169 -0.8696  0.1113
   77MOL   H28432356   3.622   4.369   1.860 -0.1948  0.1198 -0.1618
   77MOL   H28532357   3.505   4.159   1.678 -1.1023  2.4301 -0.3180
   77MOL   H28632358   3.676   4.180   1.701  0.3147  1.9907  0.7274
   77MOL   H28732359   3.605   3.984   1.824 -0.9600 -1.0124 -0.0014
   77MOL   H28832360   3.475   4.065   1.891 -0.1803  0.2429 -2.3772
   77MOL   H28932361   3.633   4.209   2.026 -0.8685  0.7288 -0.2112
   77MOL   H29032362   3.761   4.138   1.948 -0.8152  3.0673  2.3430
   77MOL   H29132363   3.560   3.992   2.134  0.8101  1.4931  1.4023
   77MOL   H29232364   3.666   3.894   2.039  0.6949  0.0108 -0.7643
   77MOL   H29332365   3.767   4.102   2.250  1.4401 -0.9722  0.5738
   77MOL   H29432366   3.858   4.008   2.129  1.3640  1.1074  1.1454
   77MOL   H29532367   3.742   3.934   2.260 -1.3190  1.6524  1.5441
   77MOL   C29632368   3.415   4.361   1.837 -0.6255 -0.0156 -0.5135
   77MOL   C29732369   3.392   4.502   1.905  0.0982 -0.4411 -0.8967
   77MOL   C29832370   3.482   4.529   2.025 -0.0239 -0.4916 -0.7949
   77MOL   C29932371   3.453   4.447   2.147  0.1267  0.7531  0.2403
   77MOL   C30032372   3.541   4.471   2.276 -0.1492  0.3905 -0.0731
   77MOL   C30132373   3.692   4.460   2.251  0.0991 -0.6208  0.4045
   77MOL   C30232374   3.778   4.453   2.384  0.2067  0.0458 -0.2965
   77MOL   H30332375   3.340   4.353   1.758  0.3952 -0.1318 -1.4913
   77MOL   H30432376   3.391   4.274   1.899  0.0530 -1.0857 -1.7091
   77MOL   H30532377   3.420   4.575   1.829 -2.3393  1.9607  0.4046
   77MOL   H30632378   3.585   4.499   2.000  0.6719  0.3260  1.0328
   77MOL   H30732379   3.483   4.630   2.064 -0.9937 -0.1580 -1.6127
   77MOL   H30832380   3.467   4.341   2.128  0.3476  0.6797  0.8015
   77MOL   H30932381   3.350   4.458   2.180  1.0855  1.9002  3.0379
   77MOL   H31032382   3.509   4.420   2.367 -0.6502  0.9227  0.0491
   77MOL   H31132383   3.531   4.575   2.305 -1.0193  0.1316  0.5837
   77MOL   H31232384   3.713   4.367   2.199 -1.3691  0.6491 -2.5306
   77MOL   H31332385   3.730   4.528   2.175 -2.4173  2.2789  1.6293
   77MOL   H31432386   3.882   4.444   2.352  0.6560  2.5406  0.3334
   77MOL   H31532387   3.778   4.549   2.436 -1.2353 -0.4230  0.5989
   77MOL   H31632388   3.748   4.379   2.459 -2.4497  1.5206  0.1460
   77MOL   C31732389   3.239   4.526   1.933  1.0281 -0.2345  0.3381
   77MOL   C31832390   3.182   4.665   1.938 -0.1923 -0.6116  0.2804
   77MOL   C31932391   3.151   4.723   1.793 -0.3910  0.5393 -0.5957
   77MOL   C32032392   3.126   4.882   1.797  0.5459  0.2254  0.0091
   77MOL   C32132393   3.075   4.945   1.666 -0.5348  0.0679 -0.2309
   77MOL   C32232394   3.180   4.941   1.550  0.7215 -0.2673 -0.1143
   77MOL   C32332395   3.115   5.012   1.429  0.2602  0.6974 -0.5215
   77MOL   H32432396   3.213   4.469   2.022  0.3234 -0.8395 -0.2415
   77MOL   H32532397   3.184   4.462   1.864 -0.9423  0.5965  1.1161
   77MOL   H32632398   3.261   4.732   1.973 -0.0491  0.2232 -1.6276
   77MOL   H32732399   3.070   4.659   1.759 -1.1988 -0.0576  2.2576
   77MOL   H32832400   3.232   4.703   1.724  0.4967  3.3110 -0.4177
   77MOL   H32932401   3.214   4.938   1.831 -0.5253  1.5865  0.5870
   77MOL   H33032402   3.054   4.910   1.875  1.9810 -0.7982  1.7323
   77MOL   H33132403   3.042   5.043   1.702 -0.4429 -0.1940  0.5787
   77MOL   H33232404   2.987   4.884   1.644 -0.2748 -0.4143  0.0688
   77MOL   H33332405   3.224   4.843   1.530  2.2204  0.5137 -0.7425
   77MOL   H33432406   3.254   5.016   1.580 -0.3044  0.7045 -0.0036
   77MOL   H33532407   3.041   4.941   1.395  1.5735 -0.1136 -1.7663
   77MOL   H33632408   3.200   5.023   1.361  1.8888  0.3444  1.3892
   77MOL   H33732409   3.068   5.105   1.461 -0.6847 -0.1815  0.6611
   77MOL   C33832410   3.061   4.683   2.037 -0.0644  0.0907 -0.0569
   77MOL   C33932411   3.099   4.717   2.186 -0.3894 -0.4349  0.8029
   77MOL   C34032412   2.993   4.666   2.288  0.1565 -0.6643 -0.6460
   77MOL   C34132413   3.001   4.521   2.327  0.4554 -0.2686 -0.7505
   77MOL   C34232414   2.885   4.466   2.404 -0.1933  0.0093 -0.0923
   77MOL   C34332415   2.888   4.315   2.442 -0.0137 -0.4742  0.2205
   77MOL   C34432416   2.766   4.277   2.523  0.4757 -0.4405 -0.2146
   77MOL   H34532417   2.989   4.602   2.043 -0.0795  0.2041  1.7378
   77MOL   H34632418   3.000   4.762   1.992 -0.1093 -0.1734 -0.4607
   77MOL   H34732419   3.196   4.671   2.203 -0.0930 -0.0526  0.1848
   77MOL   H34832420   3.003   4.720   2.382 -0.3439 -1.1517 -0.3028
   77MOL   H34932421   2.893   4.682   2.247 -0.0416  1.0445  0.4472
   77MOL   H35032422   3.095   4.507   2.381 -0.0657  0.0263  0.2443
   77MOL   H35132423   3.012   4.468   2.233  3.2418 -1.2946  0.0960
   77MOL   H35232424   2.875   4.530   2.492 -2.0672 -1.0636  0.4875
   77MOL   H35332425   2.794   4.481   2.347 -0.2933  0.9852  0.3171
   77MOL   H35432426   2.901   4.255   2.352 -0.1343 -0.6692  0.3327
   77MOL   H35532427   2.987   4.294   2.484  0.3105 -1.6433 -1.0908
   77MOL   H35632428   2.762   4.334   2.616  1.5201  1.8252 -1.5205
   77MOL   H35732429   2.769   4.171   2.547  0.0900  0.2720  3.2632
   77MOL   H35832430   2.677   4.288   2.461 -0.4134  3.7203  1.6726
   77MOL   C35932431   3.119   4.868   2.192  0.0835 -0.3327  0.2383
   77MOL   C36032432   3.210   4.921   2.305 -0.3910  0.4984  0.3080
   77MOL   C36132433   3.358   4.900   2.290 -0.8073  0.0969 -0.0056
   77MOL   C36232434   3.438   4.984   2.193 -0.3317  0.0135 -0.7857
   77MOL   C36332435   3.578   4.914   2.177  0.1919  0.1555  0.0019
   77MOL   C36432436   3.674   4.974   2.068 -0.0298 -0.4466 -0.1020
   77MOL   C36532437   3.661   4.884   1.938 -0.2329 -0.2389 -0.2845
   77MOL   H36632438   3.020   4.913   2.207 -0.7629 -1.5597 -1.4557
   77MOL   H36732439   3.157   4.914   2.101  0.0767  2.3285  1.5099
   77MOL   H36832440   3.191   4.861   2.394  0.1142  0.7717  0.6035
   77MOL   H36932441   3.416   4.904   2.382 -1.0195  1.2888  0.0801
   77MOL   H37032442   3.378   4.798   2.258 -3.1879 -0.0107 -1.2915
   77MOL   H37132443   3.389   4.988   2.095  0.3177 -0.9706 -1.1527
   77MOL   H37232444   3.446   5.086   2.230  1.6796  0.1841 -1.6306
   77MOL   H37332445   3.629   4.923   2.273  1.4058  1.4872 -0.7350
   77MOL   H37432446   3.580   4.806   2.165  2.0331  0.4383 -2.6819
   77MOL   H37532447   3.652   5.078   2.044 -1.7122 -0.5932  0.7449
   77MOL   H37632448   3.776   4.973   2.106 -0.3022 -2.4155  0.6507
   77MOL   H37732449   3.727   4.919   1.859  0.4467  0.5946  0.6329
   77MOL   H37832450   3.682   4.778   1.956  1.8073  0.0142 -1.0494
   77MOL   H37932451   3.558   4.887   1.904 -0.3880 -0.9454  0.1023
   77MOL   C38032452   3.170   5.065   2.338  0.6432  0.4846 -0.6249
   77MOL   C38132453   3.029   5.089   2.404  0.1474 -0.6478 -1.1994
   77MOL   C38232454   3.035   5.136   2.552 -0.3215 -0.0522  0.6485
   77MOL   C38332455   3.095   5.038   2.652 -0.4039  0.2427 -0.0081
   77MOL   C38432456   3.028   4.906   2.677  0.2362  0.1004  0.4530
   77MOL   C38532457   2.904   4.911   2.770 -0.0387 -0.2842 -0.6587
   77MOL   C38632458   2.926   4.956   2.916  0.4090 -0.1443 -0.3905
   77MOL   H38732459   3.250   5.107   2.399 -0.4253  2.3489 -0.4570
   77MOL   H38832460   3.176   5.125   2.247  0.3718  0.6407 -0.5425
   77MOL   H38932461   2.971   4.997   2.414 -0.0365 -0.4850 -0.7180
   77MOL   H39032462   2.933   5.161   2.583 -0.9971  0.2956 -1.7114
   77MOL   H39132463   3.090   5.230   2.558  0.9455 -0.5058 -2.5085
   77MOL   H39232464   3.195   5.027   2.610 -0.2997 -0.9087  0.5361
   77MOL   H39332465   3.108   5.086   2.749 -1.5552  0.3938  0.0744
   77MOL   H39432466   2.987   4.863   2.586 -0.2903  3.0407 -0.7379
   77MOL   H39532467   3.098   4.833   2.717 -1.4397 -0.2993  2.7923
   77MOL   H39632468   2.860   4.811   2.777  0.7016 -0.6326 -0.9132
   77MOL   H39732469   2.826   4.972   2.725 -1.5797  0.4603  2.8256
   77MOL   H39832470   2.962   5.059   2.921 -0.4927  0.0752  1.6854
   77MOL   H39932471   3.004   4.901   2.969 -0.7271 -1.3233  0.0970
   77MOL   H40032472   2.835   4.953   2.976 -1.3858 -0.0101 -3.0254
   77MOL   C40132473   2.948   5.203   2.326  0.2006  0.4016  0.3240
   77MOL   C40232474   2.891   5.160   2.192  0.1011 -0.2453  0.3426
   77MOL   C40332475   2.812   5.267   2.121  0.4309 -0.2384  0.4372
   77MOL   C40432476   2.753   5.225   1.983 -0.2777  0.7744 -0.3082
   77MOL   C40532477   2.857   5.255   1.868 -0.2054  1.1415  0.3849
   77MOL   C40632478   2.794   5.223   1.729 -0.5034 -0.0476 -0.1026
   77MOL   C40732479   2.868   5.301   1.618 -0.2250  0.2475  0.4662
   77MOL   H40832480   3.017   5.287   2.317 -1.4085  1.5750 -1.4003
   77MOL   H40932481   2.862   5.235   2.384 -1.0327 -1.1437 -0.6123
   77MOL   H41032482   2.822   5.076   2.202  0.4707 -0.2836  2.6361
   77MOL   H41132483   2.890   5.339   2.095 -0.8141  0.1060 -2.5003
   77MOL   H41232484   2.742   5.326   2.179 -0.8216 -2.6508  1.4257
   77MOL   H41332485   2.664   5.282   1.958 -0.7452  0.1215 -0.1582
   77MOL   H41432486   2.724   5.120   1.986 -1.6955  1.1394 -0.9333
   77MOL   H41532487   2.868   5.363   1.872 -0.2366  1.2154 -1.1278
   77MOL   H41632488   2.957   5.213   1.868 -1.3024 -1.5783  1.2018
   77MOL   H41732489   2.776   5.119   1.705 -2.2182 -0.1204  1.4764
   77MOL   H41832490   2.694   5.266   1.735  0.1151  1.6662 -1.5852
   77MOL   H41932491   2.963   5.250   1.605 -1.2301 -1.5357 -0.0386
   77MOL   H42032492   2.894   5.403   1.647  1.0461  0.7760 -2.3758
   77MOL   H42132493   2.811   5.300   1.526  0.9350 -1.2336 -0.2662
   77MOL   H42232494   2.977   5.124   2.135 -0.9155 -1.3005 -0.5607
   78MOL     C132495   1.299   1.714   7.317 -0.6254 -0.6378  0.1663
   78MOL     C232496   1.179   1.663   7.230  0.1625 -0.4849  0.7932
   78MOL     C332497   1.240   1.610   7.099 -0.0794 -0.1132  0.3187
   78MOL     C432498   1.298   1.717   7.008  0.1159 -0.5695  0.1586
   78MOL     C532499   1.360   1.654   6.879 -0.3496 -0.1991  0.6277
   78MOL     C632500   1.406   1.758   6.781 -0.4418 -0.3720 -0.0510
   78MOL     C732501   1.503   1.862   6.841 -0.0564  0.0155  0.3575
   78MOL     H832502   1.345   1.804   7.277  1.7979 -1.2114  1.5882
   78MOL     H932503   1.387   1.654   7.341  0.5289  1.0945  0.3734
   78MOL    H1032504   1.118   1.588   7.279 -0.9427  1.1376  1.9439
   78MOL    H1132505   1.311   1.532   7.124 -1.2203 -0.0954  4.0057
   78MOL    H1232506   1.158   1.566   7.043  0.4631  0.9005 -1.2962
   78MOL    H1332507   1.223   1.792   6.985  0.5858  0.3455  1.5319
   78MOL    H1432508   1.381   1.772   7.052  0.2723  0.7978 -1.7946
   78MOL    H1532509   1.282   1.592   6.835  0.1656 -1.0797  0.9549
   78MOL    H1632510   1.436   1.578   6.898 -1.1145 -1.1413 -0.0670
   78MOL    H1732511   1.317   1.802   6.737  0.1143  2.0668  1.1683
   78MOL    H1832512   1.455   1.707   6.698 -0.7175  1.8950 -1.6614
   78MOL    H1932513   1.532   1.931   6.761 -0.9518 -4.2145 -3.8691
   78MOL    H2032514   1.587   1.812   6.890  0.5378 -1.0220 -1.6540
   78MOL    H2132515   1.462   1.908   6.930  2.3022  0.4727  1.2588
   78MOL    H2232516   1.266   1.744   7.416 -2.7868  0.3481 -0.8248
   78MOL    C2332517   1.074   1.779   7.217  0.2910 -0.0347  0.3553
   78MOL    C2432518   0.963   1.782   7.326  0.8816 -1.0068  0.5268
   78MOL    C2532519   1.009   1.826   7.465  0.5645 -0.0302  0.4583
   78MOL    C2632520   1.075   1.964   7.466  0.2983  0.2871  0.2526
   78MOL    C2732521   1.121   2.006   7.606 -0.1372 -0.0711 -0.7940
   78MOL    C2832522   1.140   2.155   7.623  0.1497  0.1431  0.2174
   78MOL    C2932523   1.275   2.206   7.584  0.0733  0.0343 -0.2734
   78MOL    H3032524   1.131   1.871   7.203  0.6767 -0.6184 -2.2145
   78MOL    H3132525   1.027   1.759   7.121  2.7744  0.1155 -0.9524
   78MOL    H3232526   0.894   1.857   7.290 -0.0553 -1.2914  1.6948
   78MOL    H3332527   1.073   1.753   7.515 -0.1394 -0.2690  1.0285
   78MOL    H3432528   0.925   1.822   7.534 -1.9176 -0.8748 -2.5018
   78MOL    H3532529   1.012   2.042   7.422  0.2941 -1.0715 -2.2073
   78MOL    H3632530   1.164   1.955   7.404 -0.7299 -0.5713 -1.1228
   78MOL    H3732531   1.211   1.955   7.640 -0.8190  0.5838  2.1692
   78MOL    H3832532   1.054   1.967   7.683  0.7532 -0.1660 -0.0472
   78MOL    H3932533   1.124   2.180   0.014  0.9750 -0.1699  0.4208
   78MOL    H4032534   1.055   2.201   7.572  1.6744  3.4847  0.5559
   78MOL    H4132535   1.351   2.205   7.662 -2.5337  0.2502  2.3476
   78MOL    H4232536   1.306   2.156   7.492  0.5932 -3.1619  1.5637
   78MOL    H4332537   1.262   2.313   7.570  1.6935  0.4113  0.9523
   78MOL    C4432538   0.869   1.659   7.350  0.3136  0.2247 -0.7760
   78MOL    C4532539   0.836   1.572   7.229 -0.1643  0.3036  0.1643
   78MOL    C4632540   0.771   1.437   7.275 -0.3989  0.8101 -0.1757
   78MOL    C4732541   0.837   1.308   7.217 -0.0515 -0.2190  0.2677
   78MOL    C4832542   0.795   1.175   7.297 -0.6547 -0.0113 -0.2921
   78MOL    C4932543   0.902   1.060   7.292  0.3224 -0.2394 -0.3475
   78MOL    C5032544   1.034   1.091   7.363  0.4507  0.4386  0.1108
   78MOL    H5132545   0.791   1.698   7.417  1.2417 -0.0779  0.5035
   78MOL    H5232546   0.929   1.596   7.416 -0.3282  0.3284 -0.0824
   78MOL    H5332547   0.928   1.552   7.175 -1.2004  0.4509 -1.6698
   78MOL    H5432548   0.663   1.443   7.270 -0.4702  0.6346  0.9167
   78MOL    H5532549   0.773   1.425   7.383  0.1809  3.3564  0.1342
   78MOL    H5632550   0.825   1.290   7.110  2.3908 -0.0208 -0.0598
   78MOL    H5732551   0.943   1.323   7.236  0.2469 -0.7401 -0.9178
   78MOL    H5832552   0.703   1.127   7.261 -0.6742 -0.9130  0.9429
   78MOL    H5932553   0.771   1.206   7.398  0.8102 -1.7302  0.5980
   78MOL    H6032554   0.928   1.023   7.193  0.4669 -3.1654  0.7464
   78MOL    H6132555   0.867   0.964   7.328  3.1611 -1.9607 -1.9213
   78MOL    H6232556   1.095   1.000   7.362 -0.4810 -0.1894 -1.4301
   78MOL    H6332557   1.016   1.143   7.457  1.8180 -0.7362  1.0499
   78MOL    H6432558   1.081   1.164   7.297 -1.8534  0.4115 -1.5905
   78MOL    C6532559   0.747   1.654   7.140  0.5023 -0.4832  0.2017
   78MOL    C6632560   0.697   1.580   7.010  0.0819 -0.5082 -0.5152
   78MOL    C6732561   0.805   1.536   6.913  1.5833 -0.6013 -0.1671
   78MOL    C6832562   0.862   1.650   6.835 -0.0865 -0.4455 -0.3361
   78MOL    C6932563   0.980   1.596   6.749 -0.4160  0.1211  0.2481
   78MOL    C7032564   1.016   1.683   6.626 -0.3314 -0.0780  0.3128
   78MOL    C7132565   1.016   1.835   6.639  0.0818  0.4640 -0.1777
   78MOL    H7232566   0.667   1.689   7.205 -0.1376  0.1958 -0.9304
   78MOL    H7332567   0.795   1.746   7.108 -0.4381 -0.1390 -0.2348
   78MOL    H7432568   0.658   1.482   7.037  0.6410 -0.3993  0.7503
   78MOL    H7532569   0.882   1.480   6.967 -0.3532 -2.0678  1.1452
   78MOL    H7632570   0.759   1.471   6.840 -1.1240 -0.3685  1.2729
   78MOL    H7732571   0.802   1.705   6.762  1.7365  0.5533 -1.1009
   78MOL    H7832572   0.896   1.724   6.908 -2.9419  0.5211  0.1036
   78MOL    H7932573   1.069   1.576   6.808  0.4161  2.2576 -0.2109
   78MOL    H8032574   0.967   1.498   6.704  2.8822 -0.5540  0.6591
   78MOL    H8132575   0.948   1.645   6.550  1.5550 -1.3494 -0.8022
   78MOL    H8232576   1.118   1.670   6.590 -1.1357 -1.2901 -1.6060
   78MOL    H8332577   1.036   1.883   6.544  0.2182  2.0572  0.6422
   78MOL    H8432578   0.920   1.874   6.674  0.7309  0.1317  2.0600
   78MOL    H8532579   1.093   1.875   6.704  0.9115  1.2382 -1.6125
   78MOL    C8632580   0.583   1.667   6.944 -0.1218 -0.4281 -0.7347
   78MOL    C8732581   0.489   1.596   6.846  0.6079 -0.7985  0.4702
   78MOL    C8832582   0.403   1.487   6.920 -0.2291 -0.2619  0.0905
   78MOL    C8932583   0.323   1.385   6.835  0.7666  0.9059  0.3312
   78MOL    C9032584   0.245   1.278   6.923  0.1792  0.3649  0.6242
   78MOL    C9132585   0.123   1.213   6.866 -0.8257 -0.3694 -0.3706
   78MOL    C9232586   0.158   1.124   6.751 -0.4237  0.2222 -0.1950
   78MOL    H9332587   0.514   1.697   7.023  0.3305 -0.0463 -0.4844
   78MOL    H9432588   0.615   1.761   6.900 -1.5811  1.6278  2.4117
   78MOL    H9532589   0.564   1.560   6.776  1.9486  1.0103  0.9350
   78MOL    H9632590   0.474   1.431   6.980 -0.4753  1.0399  1.6658
   78MOL    H9732591   0.341   1.551   6.984  0.7088  0.3607  0.3954
   78MOL    H9832592   0.245   1.428   6.772 -1.3672  0.5487  2.6138
   78MOL    H9932593   0.398   1.328   6.781 -0.0777  1.1121 -1.0654
   78MOL   H10032594   0.197   1.321   7.011 -0.5056  1.2072 -0.1463
   78MOL   H10132595   0.308   1.201   6.967 -0.1928 -0.7117 -0.7304
   78MOL   H10232596   0.084   1.135   6.931 -1.1490 -0.0996 -0.2341
   78MOL   H10332597   0.047   1.285   6.833  0.2041  0.8550 -0.1373
   78MOL   H10432598   0.231   1.176   6.689 -0.4256  0.4224 -0.0321
   78MOL   H10532599   0.071   1.097   6.692 -0.2169 -2.5325  0.7171
   78MOL   H10632600   0.203   1.030   6.782 -2.3924 -0.3094  1.1719
   78MOL   C10732601   0.409   1.691   6.755  0.2432 -0.0815  0.5180
   78MOL   C10832602   0.487   1.762   6.637 -0.1888 -0.4896  0.1290
   78MOL   C10932603   0.525   1.669   6.524 -0.3503 -0.5248  0.2710
   78MOL   C11032604   0.641   1.719   6.432  0.4163 -0.1856 -0.3681
   78MOL   C11132605   0.663   1.628   6.309  0.9789  0.2404  0.3807
   78MOL   C11232606   0.720   1.701   6.188 -0.1640  0.2822 -0.4243
   78MOL   C11332607   0.872   1.748   6.187 -0.5290  0.3164  0.0031
   78MOL   H11432608   0.363   1.765   6.820  1.1225 -0.6335  1.8017
   78MOL   H11532609   0.331   1.628   6.712 -0.3056 -1.0606  2.9014
   78MOL   H11632610   0.586   1.789   6.675 -0.4259  0.6691 -0.0362
   78MOL   H11732611   0.436   1.647   6.465  0.1230 -2.4751  0.2632
   78MOL   H11832612   0.547   1.571   6.565 -2.6209 -1.2041 -0.1104
   78MOL   H11932613   0.619   1.819   6.394  0.0202 -0.2745 -0.3667
   78MOL   H12032614   0.728   1.730   6.497 -1.3098 -0.8863  2.1236
   78MOL   H12132615   0.568   1.580   6.287  0.8603  0.9612 -0.7188
   78MOL   H12232616   0.729   1.544   6.331  1.5175  0.4119 -0.5573
   78MOL   H12332617   0.696   1.639   6.102  1.5380 -0.8022 -0.1511
   78MOL   H12432618   0.666   1.796   6.181  0.1078  0.3443 -1.8122
   78MOL   H12532619   0.941   1.679   6.140 -1.3460 -0.7346  0.3293
   78MOL   H12632620   0.863   1.830   6.116  0.1766 -0.0179 -0.4682
   78MOL   H12732621   0.896   1.777   6.290 -1.2463 -0.6047  0.4325
   78MOL   C12832622   0.412   1.887   6.579  0.0274  0.5149 -0.0183
   78MOL   C12932623   0.444   2.012   6.657 -0.5672  0.1185 -0.0185
   78MOL   C13032624   0.347   2.124   6.621 -1.0687 -0.5951  0.5005
   78MOL   C13132625   0.211   2.112   6.681 -0.6908 -0.5635  0.0879
   78MOL   C13232626   0.122   2.227   6.666 -0.1727 -0.5479 -0.0620
   78MOL   C13332627   0.157   2.351   6.748 -0.0049 -0.0365  0.1654
   78MOL   C13432628   0.039   2.460   6.743 -0.2492  0.1704  0.6213
   78MOL   H13532629   0.420   1.896   6.471  2.8407 -1.3538 -0.0140
   78MOL   H13632630   0.310   1.852   6.596  0.1079 -0.7353 -2.0107
   78MOL   H13732631   0.449   1.987   6.763 -2.6229 -0.8517 -0.1161
   78MOL   H13832632   0.338   2.142   6.514 -0.7132 -1.2251  0.3603
   78MOL   H13932633   0.379   2.216   6.670 -1.1749 -0.1516 -0.2561
   78MOL   H14032634   0.236   2.092   6.786 -0.4167 -0.2807  0.0771
   78MOL   H14132635   0.155   2.026   6.646  4.0181 -3.2493 -1.2604
   78MOL   H14232636   0.024   2.200   6.707 -0.4900  0.5345 -0.0822
   78MOL   H14332637   0.109   2.256   6.562 -2.1086  1.7706  0.7869
   78MOL   H14432638   0.251   2.402   6.727 -0.1482 -0.9290 -2.8600
   78MOL   H14532639   0.165   2.328   6.854  0.8553  0.7036  0.2680
   78MOL   H14632640   0.017   2.489   6.641 -0.1772 -0.2681  0.4799
   78MOL   H14732641   0.076   2.550   6.791  1.5576 -1.1041  1.6920
   78MOL   H14832642   7.660   2.426   6.791 -0.1102 -0.1876  0.6426
   78MOL   C14932643   0.580   2.059   6.605 -0.0143  0.5493 -0.1651
   78MOL   C15032644   0.659   2.168   6.672 -0.5128  0.5710  0.4610
   78MOL   C15132645   0.802   2.185   6.610  0.0659 -0.1555 -0.9988
   78MOL   C15232646   0.808   2.218   6.460 -0.4459 -0.5443  0.0282
   78MOL   C15332647   0.950   2.240   6.404  0.0832 -0.1260 -0.0591
   78MOL   C15432648   0.953   2.302   6.262  0.1622 -1.2745  0.4624
   78MOL   C15532649   0.918   2.198   6.152  0.1063 -0.2190 -0.4138
   78MOL   H15632650   0.645   1.971   6.602 -0.7316 -0.1103  2.0965
   78MOL   H15732651   0.566   2.086   6.501 -1.2031  1.5039  0.2406
   78MOL   H15832652   0.593   2.251   6.647 -0.2005  0.7147  0.0883
   78MOL   H15932653   0.842   2.270   6.666 -2.1925 -0.6630  1.4472
   78MOL   H16032654   0.863   2.101   6.640 -0.6169  0.4681  2.2888
   78MOL   H16132655   0.741   2.300   6.435 -0.0291 -0.4368 -0.7799
   78MOL   H16232656   0.775   2.137   6.395  0.3313 -0.5328 -0.3961
   78MOL   H16332657   1.012   2.150   6.408 -0.8656 -0.9349 -2.4106
   78MOL   H16432658   0.994   2.316   6.468 -2.0371  0.3640  0.8256
   78MOL   H16532659   1.054   2.337   6.240 -0.3537 -1.1872 -1.8933
   78MOL   H16632660   0.889   2.389   6.250  0.5074 -1.0491  0.2316
   78MOL   H16732661   0.960   2.101   6.180 -0.0680 -0.3886 -0.7326
   78MOL   H16832662   0.942   2.231   6.051  1.5172  1.6331  0.4866
   78MOL   H16932663   0.810   2.184   6.156  0.4972 -3.2791  0.5210
   78MOL   C17032664   0.670   2.146   6.823  0.6072 -0.2700  0.7490
   78MOL   C17132665   0.726   2.270   6.906  0.2308  1.0599 -0.7095
   78MOL   C17232666   0.643   2.393   6.894 -0.5808 -0.1789 -0.2808
   78MOL   C17332667   0.507   2.407   6.975 -0.7570 -1.0211  0.2156
   78MOL   C17432668   0.448   2.535   6.933  0.0745 -0.5139  0.1401
   78MOL   C17532669   0.308   2.561   6.994  0.5831 -0.4502 -0.0736
   78MOL   C17632670   0.303   2.577   7.154  0.0374 -0.2010  0.1939
   78MOL   H17732671   0.731   2.057   6.842 -0.6394 -1.3955 -0.3445
   78MOL   H17832672   0.572   2.119   6.865  0.3743 -0.2024  0.2513
   78MOL   H17932673   0.823   2.287   6.860 -0.3867  1.4715 -1.8985
   78MOL   H18032674   0.614   2.412   6.791  1.0869 -0.7575 -0.8702
   78MOL   H18132675   0.718   2.469   6.916 -1.1114 -0.1221  1.4152
   78MOL   H18232676   0.520   2.401   7.083 -1.5499 -2.4128  0.2495
   78MOL   H18332677   0.431   2.332   6.952 -0.3813 -0.5127 -2.9065
   78MOL   H18432678   0.408   2.544   6.832 -1.1888 -0.8733  0.5999
   78MOL   H18532679   0.524   2.612   6.948 -1.1356  1.1221 -1.8441
   78MOL   H18632680   0.243   2.478   6.964 -1.7149  0.0732  3.2018
   78MOL   H18732681   0.263   2.656   6.966 -1.3761 -1.1719  0.5003
   78MOL   H18832682   0.204   2.614   7.180  0.8907  2.0355  0.4026
   78MOL   H18932683   0.392   2.626   7.195  0.5576 -0.8219 -0.1919
   78MOL   H19032684   0.319   2.478   7.197  0.1242  0.7954  2.5361
   78MOL   C19132685   0.755   2.235   7.052 -0.1618 -0.3492  0.1167
   78MOL   C19232686   0.840   2.328   7.138 -0.4174  0.1491 -0.5233
   78MOL   C19332687   0.824   2.296   7.293 -0.0786  0.3910 -0.2953
   78MOL   C19432688   0.687   2.360   7.341 -0.6952 -0.2565  0.0496
   78MOL   C19532689   0.674   2.348   7.492 -0.4813 -0.7989 -0.0377
   78MOL   C19632690   0.564   2.439   7.546 -0.2301  0.2630  0.3027
   78MOL   C19732691   0.529   2.411   7.696  0.6106  0.4690 -0.4934
   78MOL   H19832692   0.782   2.132   7.074 -2.0495 -0.5312  1.6971
   78MOL   H19932693   0.655   2.227   7.095 -0.1173 -2.6012 -0.1575
   78MOL   H20032694   0.803   2.430   7.132  0.8787  0.6012 -0.8573
   78MOL   H20132695   0.900   2.344   7.354 -0.7064  2.7131 -1.2811
   78MOL   H20232696   0.839   2.189   7.309  0.0745  0.4394 -0.1223
   78MOL   H20332697   0.594   2.326   7.295 -0.6263  0.7333 -0.8591
   78MOL   H20432698   0.682   2.466   7.316 -1.1741 -0.0778  0.8868
   78MOL   H20532699   0.649   2.245   7.521 -0.1122 -1.2953 -1.4723
   78MOL   H20632700   0.771   2.364   7.538 -0.8132 -1.8885  1.0703
   78MOL   H20732701   0.482   2.413   7.480  0.3418 -0.8161  0.0066
   78MOL   H20832702   0.588   2.543   7.523 -0.7634  0.4004  0.3600
   78MOL   H20932703   0.621   2.431   0.038  0.1289  1.1345  0.0858
   78MOL   H21032704   0.509   2.305   7.712 -0.4660  0.9823  1.8475
   78MOL   H21132705   0.446   2.466   0.027 -1.1986 -1.6955 -1.0884
   78MOL   C21232706   0.993   2.323   7.097 -0.0529 -0.2886  0.4751
   78MOL   C21332707   1.079   2.444   7.141  0.8607  0.8928 -0.2924
   78MOL   C21432708   1.198   2.415   7.237  0.3867 -0.1240  0.4716
   78MOL   C21532709   1.321   2.377   7.161 -0.1743  0.4813  0.1164
   78MOL   C21632710   1.432   2.342   7.250 -0.1076 -0.4198  0.1486
   78MOL   C21732711   1.559   2.307   7.180  0.5636 -0.3887  0.0536
   78MOL   C21832712   1.540   2.192   7.085 -0.2685 -1.2586 -0.1549
   78MOL   H21932713   0.989   2.309   6.989  0.9423  1.5714  0.1838
   78MOL   H22032714   1.035   2.240   7.153  1.9563  1.0277  0.9812
   78MOL   H22132715   1.016   2.502   7.208  1.1674  1.7255 -0.7167
   78MOL   H22232716   1.220   2.504   7.295  1.4338  1.0611 -1.7109
   78MOL   H22332717   1.168   2.341   7.312  0.4345  0.5272  1.1327
   78MOL   H22432718   1.362   2.460   7.103 -0.2742  0.5771  0.1817
   78MOL   H22532719   1.293   2.305   7.085 -3.1520  1.6459  0.0262
   78MOL   H22632720   1.449   2.423   7.322 -0.7291  0.5127 -0.7282
   78MOL   H22732721   1.406   2.261   7.318  1.1838 -1.1942 -0.2569
   78MOL   H22832722   1.597   2.400   7.138 -2.9289  1.0156 -0.1548
   78MOL   H22932723   1.628   2.286   7.262 -0.9572 -0.6979  1.2754
   78MOL   H23032724   1.637   2.168   7.040 -1.1253 -0.5299 -2.4517
   78MOL   H23132725   1.473   2.208   7.000  2.3773  1.7829 -1.8013
   78MOL   H23232726   1.497   2.107   7.137 -4.3032  0.7432 -0.0246
   78MOL   C23332727   1.120   2.535   7.023 -0.0107  0.2268 -0.7423
   78MOL   C23432728   1.005   2.611   6.953 -0.4563  0.3678 -0.0821
   78MOL   C23532729   0.942   2.735   7.035 -0.1824 -0.5044  0.3003
   78MOL   C23632730   0.793   2.767   7.023  0.0250 -0.1502 -0.5791
   78MOL   C23732731   0.770   2.919   7.058  0.0305 -0.1882  0.3068
   78MOL   C23832732   0.629   2.964   7.046  0.1000  0.2775  0.4239
   78MOL   C23932733   0.590   3.110   7.060  0.2402 -0.1962 -0.6310
   78MOL   H24032734   1.180   2.467   6.962 -0.6941 -1.5194  0.4675
   78MOL   H24132735   1.188   2.614   7.054  1.9762 -1.3506 -0.9709
   78MOL   H24232736   0.932   2.533   6.931  1.7621 -1.0928 -2.6667
   78MOL   H24332737   0.999   2.822   7.002 -0.8408  0.0033  0.4966
   78MOL   H24432738   0.964   2.729   7.142 -0.6252  2.8631  0.6316
   78MOL   H24532739   0.722   2.711   7.084  0.5110 -1.8744 -1.5277
   78MOL   H24632740   0.758   2.741   6.922  2.5561 -1.1200 -1.2394
   78MOL   H24732741   0.833   2.982   6.994 -0.6326  0.4281  0.2628
   78MOL   H24832742   0.818   2.935   7.155 -2.5243  0.1144  1.5603
   78MOL   H24932743   0.594   2.949   6.944  1.2949  0.4663 -0.0293
   78MOL   H25032744   0.567   2.904   7.112 -1.7294  0.2914 -1.2590
   78MOL   H25132745   0.483   3.123   7.069  0.1577 -1.3283  0.0940
   78MOL   H25232746   0.639   3.167   7.139 -2.2183  1.8447 -0.5163
   78MOL   H25332747   0.621   3.164   6.970 -0.0263  0.2488 -0.4565
   78MOL   C25432748   1.066   2.675   6.824  0.0656 -0.2586  0.3222
   78MOL   C25532749   0.974   2.746   6.716 -0.2571 -0.1610  0.2629
   78MOL   C25632750   0.876   2.641   6.654 -0.0051 -0.8665 -0.4398
   78MOL   C25732751   0.752   2.694   6.577 -0.7014 -0.3035 -0.3475
   78MOL   C25832752   0.650   2.774   6.656  0.3543  0.1801 -0.2727
   78MOL   C25932753   0.556   2.847   6.567  0.4029  0.3044 -0.1893
   78MOL   C26032754   0.459   2.935   6.652  0.1098  1.0853  0.3982
   78MOL   H26132755   1.103   2.585   6.776 -0.2049  0.5404 -1.4289
   78MOL   H26232756   1.146   2.743   6.854 -0.6437  1.2807 -1.1841
   78MOL   H26332757   0.906   2.810   6.773  0.2391  0.3442  0.2866
   78MOL   H26432758   0.825   2.595   6.738 -0.5603 -1.7885 -1.2771
   78MOL   H26532759   0.920   2.562   6.594 -1.8572 -0.6523 -2.1216
   78MOL   H26632760   0.797   2.762   6.504 -1.4538  0.2826 -0.2691
   78MOL   H26732761   0.697   2.623   6.515 -1.0902  1.0369 -1.5606
   78MOL   H26832762   0.694   2.833   6.736 -0.3404  1.0977 -0.5741
   78MOL   H26932763   0.599   2.704   6.723  0.5479  0.2378 -0.0669
   78MOL   H27032764   0.614   2.919   6.509  0.2322 -0.8233 -1.7799
   78MOL   H27132765   0.502   2.779   6.502  2.4042 -1.6949  0.1929
   78MOL   H27232766   0.387   2.989   6.590 -1.5755 -0.8231  0.6525
   78MOL   H27332767   0.398   2.880   6.724  3.0410 -0.9724  1.4106
   78MOL   H27432768   0.517   3.005   6.712 -0.8229  2.4097 -0.2097
   78MOL   C27532769   1.059   2.830   6.621  0.6290  0.0628  0.3482
   78MOL   C27632770   1.094   2.974   6.676 -0.3773 -0.2385 -0.0350
   78MOL   C27732771   0.975   3.065   6.666 -0.0944 -0.3986  0.0856
   78MOL   C27832772   0.989   3.196   6.743  0.1766  0.1960 -0.2383
   78MOL   C27932773   0.988   3.191   6.896 -0.3228 -0.3306  0.8614
   78MOL   C28032774   1.033   3.325   6.948 -0.3586 -0.1717  0.0352
   78MOL   C28132775   1.026   3.324   7.104 -0.0093 -0.0285  0.4038
   78MOL   H28232776   1.016   2.835   6.521  0.7997 -1.2028  0.2039
   78MOL   H28332777   1.151   2.774   6.607  1.8829  2.3948 -1.1017
   78MOL   H28432778   1.132   2.967   6.778 -1.2534  0.0056  0.3163
   78MOL   H28532779   0.959   3.088   6.561 -0.3209 -3.5401 -0.6162
   78MOL   H28632780   0.879   3.021   6.695 -0.4289  1.7382  2.4879
   78MOL   H28732781   0.897   3.249   6.718 -0.6335 -1.6732 -1.3529
   78MOL   H28832782   1.065   3.262   6.701 -0.8074  1.7014  0.2889
   78MOL   H28932783   1.038   3.103   6.937  1.3786  0.8724  1.4176
   78MOL   H29032784   0.884   3.182   6.929  0.6507 -1.4393  3.7109
   78MOL   H29132785   1.136   3.339   6.913 -0.5483  0.3175 -0.3366
   78MOL   H29232786   0.974   3.403   6.900 -0.4111 -1.6234 -2.3540
   78MOL   H29332787   1.046   3.419   7.152 -0.5446  1.6703 -2.6155
   78MOL   H29432788   1.095   3.248   7.141  0.7046 -1.4951 -3.6467
   78MOL   H29532789   0.935   3.279   7.143  0.4245 -2.4810 -1.2264
   78MOL   C29632790   1.215   3.023   6.595 -0.4903 -0.7214 -0.0658
   78MOL   C29732791   1.359   2.949   6.606  0.6226 -0.3057 -0.5977
   78MOL   C29832792   1.444   3.013   6.716 -0.0397 -0.5336  0.6708
   78MOL   C29932793   1.410   2.988   6.863  0.2548  0.2707  0.0794
   78MOL   C30032794   1.370   3.117   6.938  0.0053 -0.8069  0.5159
   78MOL   C30132795   1.497   3.199   6.969  0.0869 -0.6257 -0.1864
   78MOL   C30232796   1.464   3.346   6.998 -0.3294 -0.0733 -0.3779
   78MOL   H30332797   1.174   3.016   6.495 -1.2218  1.5012  0.0359
   78MOL   H30432798   1.236   3.127   6.622  1.6475 -1.3336  0.7163
   78MOL   H30532799   1.352   2.840   6.615  1.8088 -0.3816 -0.5068
   78MOL   H30632800   1.544   2.969   6.715  0.8706  1.5075 -0.5744
   78MOL   H30732801   1.449   3.118   6.687  0.3286 -0.5918  0.5225
   78MOL   H30832802   1.506   2.964   6.907  0.5817 -0.4357 -0.9900
   78MOL   H30932803   1.351   2.902   6.894 -0.3240  0.7787  0.3917
   78MOL   H31032804   1.329   3.076   7.030 -2.1417 -1.4925 -0.7273
   78MOL   H31132805   1.291   3.178   6.893 -0.2411 -2.5942 -1.5173
   78MOL   H31232806   1.548   3.151   7.053  1.0629  2.4666  1.0393
   78MOL   H31332807   1.569   3.193   6.887 -0.7079  2.5413 -1.1894
   78MOL   H31432808   1.552   3.394   7.039 -0.7031  0.8763 -0.6663
   78MOL   H31532809   1.436   3.407   6.912 -1.7709  0.2045  0.2820
   78MOL   H31632810   1.384   3.355   7.072  2.0662 -0.5670  2.3609
   78MOL   C31732811   1.442   2.967   6.474  0.5004 -0.5520  0.0651
   78MOL   C31832812   1.399   2.910   6.336 -0.6240  0.0024  0.0353
   78MOL   C31932813   1.511   2.936   6.230  0.6445 -0.5582  0.5042
   78MOL   C32032814   1.538   3.081   6.202 -0.1842 -0.2267  0.6297
   78MOL   C32132815   1.423   3.155   6.146 -0.0199 -0.2679 -0.4830
   78MOL   C32232816   1.452   3.285   6.068  0.0501 -0.3046 -0.1919
   78MOL   C32332817   1.529   3.390   6.147 -0.1417  0.1750 -1.0683
   78MOL   H32432818   1.545   2.933   6.486  0.1623 -1.6838 -0.2125
   78MOL   H32532819   1.442   3.075   6.463  0.4316 -0.5632 -0.0483
   78MOL   H32632820   1.310   2.964   6.303 -2.1660 -1.3072  2.0093
   78MOL   H32732821   1.480   2.896   6.134  0.6311 -0.7445  0.5860
   78MOL   H32832822   1.609   2.894   6.251  2.4695  2.5707 -1.4378
   78MOL   H32932823   1.623   3.085   6.133  0.0632  2.8571  1.0142
   78MOL   H33032824   1.578   3.126   6.293 -1.1105 -1.1592  1.5046
   78MOL   H33132825   1.358   3.186   6.228  0.3743  0.7588 -0.5486
   78MOL   H33232826   1.368   3.080   6.088 -1.8834  0.1319  0.7311
   78MOL   H33332827   1.349   3.314   6.051 -1.1834 -3.3637  1.5946
   78MOL   H33432828   1.503   3.275   5.972  2.6827 -1.5376  1.2698
   78MOL   H33532829   1.630   3.349   6.147  0.4094  1.3666  2.3778
   78MOL   H33632830   1.485   3.400   6.246  0.7915 -0.5421 -0.5751
   78MOL   H33732831   1.535   3.490   6.102  1.2229  0.9211  0.7293
   78MOL   C33832832   1.363   2.764   6.344 -0.0614  0.1435 -0.8172
   78MOL   C33932833   1.316   2.684   6.218 -0.4125 -0.4306 -0.2642
   78MOL   C34032834   1.217   2.757   6.130  0.3389  0.5515 -0.6829
   78MOL   C34132835   1.080   2.777   6.197 -0.8946  0.1344  0.2593
   78MOL   C34232836   0.998   2.849   6.090 -0.3150  0.3832 -0.6218
   78MOL   C34332837   0.871   2.903   6.151  0.0494 -0.8795 -0.1778
   78MOL   C34432838   0.894   3.023   6.243  0.2693  0.6582  0.4028
   78MOL   H34532839   1.289   2.760   6.424 -0.1858  0.1869 -0.9299
   78MOL   H34632840   1.438   2.709   6.401 -0.9984 -0.6507 -0.3318
   78MOL   H34732841   1.413   2.670   6.169 -0.9475  0.1299 -1.5157
   78MOL   H34832842   1.268   2.844   6.088  2.5904 -0.0058  0.8234
   78MOL   H34932843   1.203   2.693   6.044 -0.8080 -0.3565  0.1631
   78MOL   H35032844   1.089   2.847   6.280 -1.0093  3.3228 -2.2762
   78MOL   H35132845   1.020   2.690   6.223 -1.0149  0.7622  2.0956
   78MOL   H35232846   1.057   2.924   6.038 -0.5954  0.6278 -0.5873
   78MOL   H35332847   0.966   2.784   6.009  0.9986 -0.2142 -0.6797
   78MOL   H35432848   0.811   2.929   6.064 -1.0493  0.4198  0.9292
   78MOL   H35532849   0.809   2.832   6.208 -1.3055 -1.3415 -2.1855
   78MOL   H35632850   0.990   3.072   6.229 -0.6378  2.1794 -0.5859
   78MOL   H35732851   0.872   2.994   6.346  0.0588 -0.1423  0.1377
   78MOL   H35832852   0.811   3.090   6.222 -1.4181 -1.5872 -0.3072
   78MOL   C35932853   1.276   2.536   6.239  0.1095  0.1285  0.1845
   78MOL   C36032854   1.392   2.443   6.282  0.0308 -0.6921 -0.3458
   78MOL   C36132855   1.342   2.313   6.363  0.4435 -0.0824 -0.2257
   78MOL   C36232856   1.314   2.342   6.515 -0.5956 -1.1225 -0.1475
   78MOL   C36332857   1.271   2.218   6.589  0.0933 -0.2690  0.4381
   78MOL   C36432858   1.260   2.248   6.740  0.5512 -0.0184 -0.2151
   78MOL   C36532859   1.211   2.130   6.822  0.1341 -0.2949 -0.5793
   78MOL   H36632860   1.231   2.497   6.147  1.5512 -1.1232 -0.0250
   78MOL   H36732861   1.204   2.530   6.321  0.5465  0.1927  0.5747
   78MOL   H36832862   1.455   2.487   6.359  0.6852  2.2595 -2.4899
   78MOL   H36932863   1.250   2.274   6.319  0.4568  0.7926 -1.0533
   78MOL   H37032864   1.411   2.230   6.351  0.1481 -0.3671  0.0515
   78MOL   H37132865   1.405   2.387   6.555 -0.4438 -2.0416  0.5602
   78MOL   H37232866   1.236   2.417   6.523  0.7050  0.3331 -0.9918
   78MOL   H37332867   1.178   2.177   6.551 -0.7885  1.3989  0.7842
   78MOL   H37432868   1.344   2.139   6.569 -0.4469 -1.4720  2.9452
   78MOL   H37532869   1.357   2.282   6.774 -0.1191  0.0136  1.7192
   78MOL   H37632870   1.190   2.331   6.753 -1.7319 -1.7391 -1.2653
   78MOL   H37732871   1.198   2.167   6.924 -1.1618 -1.2697 -0.3764
   78MOL   H37832872   1.108   2.104   6.798 -0.1951  2.8191 -2.7069
   78MOL   H37932873   1.265   2.035   6.827  0.9870  0.2836  1.9999
   78MOL   C38032874   1.474   2.397   6.159 -0.2385  0.1529 -0.6757
   78MOL   C38132875   1.614   2.344   6.186  0.1708 -0.0777  0.0092
   78MOL   C38232876   1.665   2.225   6.092 -0.8465 -1.2142 -0.5825
   78MOL   C38332877   1.610   2.095   6.140 -0.6769 -0.8705 -0.4653
   78MOL   C38432878   1.654   1.983   6.046  0.3990  0.3219 -0.2189
   78MOL   C38532879   1.603   1.843   6.072  0.4023  0.0898  1.3373
   78MOL   C38632880   1.668   1.773   6.192 -0.9651  0.1204  0.1234
   78MOL   H38732881   1.418   2.317   6.110  0.6019 -2.1441  1.9350
   78MOL   H38832882   1.480   2.471   6.080 -0.2154  1.2279  0.3298
   78MOL   H38932883   1.616   2.302   6.287 -1.6488  0.3209  0.2395
   78MOL   H39032884   1.773   2.221   6.107 -0.5443  1.1004 -1.9933
   78MOL   H39132885   1.639   2.251   5.990 -2.1827  0.1138  0.0636
   78MOL   H39232886   1.658   2.083   6.238  0.5111 -3.0420 -1.2689
   78MOL   H39332887   1.502   2.105   6.157 -0.0356  3.1072  1.8237
   78MOL   H39432888   1.625   2.008   5.944  1.0052 -1.2112 -0.7836
   78MOL   H39532889   1.762   1.971   6.045  0.2273 -1.3306 -1.8530
   78MOL   H39632890   1.614   1.785   5.980 -1.4852  0.5554  0.7758
   78MOL   H39732891   1.496   1.843   6.096  0.2458 -1.2556  0.6502
   78MOL   H39832892   1.637   1.669   6.210 -0.2851  0.0457  0.8940
   78MOL   H39932893   1.660   1.825   6.287  1.6297 -0.6002  0.7575
   78MOL   H40032894   1.772   1.763   6.163 -1.6291  1.0511 -2.7683
   78MOL   C40132895   1.715   2.464   6.189  0.2937 -0.6333  0.2846
   78MOL   C40232896   1.732   2.534   6.055 -0.2247 -0.1030  0.1959
   78MOL   C40332897   1.852   2.631   6.056 -0.1365  0.0078  0.5840
   78MOL   C40432898   1.992   2.575   6.063  0.5461  0.7562 -0.0091
   78MOL   C40532899   2.109   2.675   6.048  0.7311 -0.0186 -0.2205
   78MOL   C40632900   2.093   2.792   6.149  0.7275 -0.1383 -0.1693
   78MOL   C40732901   2.208   2.888   6.124  0.2628 -0.0324  0.1107
   78MOL   H40832902   1.816   2.436   6.219  1.2110  0.0525 -2.0842
   78MOL   H40932903   1.680   2.542   6.257  2.2363  3.4239 -3.1154
   78MOL   H41032904   1.646   2.598   6.038  0.2697  0.5623  0.1805
   78MOL   H41132905   1.840   2.709   6.131  1.0759  0.7922 -0.0104
   78MOL   H41232906   1.853   2.681   5.959  1.0316  0.7202  0.9549
   78MOL   H41332907   2.011   2.491   5.996  0.1251 -1.5629  2.6712
   78MOL   H41432908   2.001   2.533   6.164 -2.4261  2.3938  0.9879
   78MOL   H41532909   2.197   2.621   6.082  0.3735 -0.3643  0.1542
   78MOL   H41632910   2.117   2.703   5.943  3.1254 -0.3865 -0.1564
   78MOL   H41732911   1.994   2.831   6.124  1.0464 -0.0253 -1.2571
   78MOL   H41832912   2.100   2.757   6.252 -3.8649 -0.3871  0.1426
   78MOL   H41932913   2.199   2.957   6.208  1.3189 -1.4852  1.4586
   78MOL   H42032914   2.203   2.934   6.025  0.3380  2.2992  1.1678
   78MOL   H42132915   2.302   2.835   6.144 -0.9598 -2.0319  0.7262
   78MOL   H42232916   1.731   2.470   5.967  1.8059 -0.4417  0.4012
   79MOL     C132917   5.664   1.848   2.677 -0.0301  0.4354 -0.1056
   79MOL     C232918   5.803   1.783   2.721 -0.4673  0.8262  0.7424
   79MOL     C332919   5.788   1.666   2.821 -0.0026  0.3860  0.2550
   79MOL     C432920   5.718   1.698   2.949 -0.4612 -0.3215 -0.4148
   79MOL     C532921   5.720   1.576   3.051 -0.2683  0.4922 -0.4563
   79MOL     C632922   5.663   1.599   3.183  0.4899 -0.0101  0.6884
   79MOL     C732923   5.727   1.711   3.257  0.0386 -0.1569 -0.3880
   79MOL     H832924   5.693   1.935   2.619  0.0814 -0.8205 -1.9815
   79MOL     H932925   5.602   1.891   2.756  1.0601  0.8874  0.5155
   79MOL    H1032926   5.845   1.745   2.628  2.5776  0.7146  2.1198
   79MOL    H1132927   5.739   1.578   2.779 -0.0059  0.6360 -0.2750
   79MOL    H1232928   5.887   1.633   2.851  0.7784  0.3531 -2.1784
   79MOL    H1332929   5.756   1.790   2.994 -0.5657  0.0601 -1.1110
   79MOL    H1432930   5.613   1.723   2.935 -1.2773 -1.2640  3.4226
   79MOL    H1532931   5.825   1.550   3.061  0.3430  2.7808 -0.4720
   79MOL    H1632932   5.665   1.492   3.009  1.2028 -0.4347 -0.5802
   79MOL    H1732933   5.669   1.507   3.241  1.3050  0.9171  2.0897
   79MOL    H1832934   5.559   1.622   3.162  0.7991 -0.6650 -1.7225
   79MOL    H1932935   5.685   1.716   3.358 -3.1642  1.6658 -1.7642
   79MOL    H2032936   5.689   1.803   3.214  1.3687  1.0283  0.9148
   79MOL    H2132937   5.836   1.708   3.254  0.0008  0.3406 -2.5439
   79MOL    H2232938   5.603   1.779   2.620 -1.8710  2.2506 -0.3824
   79MOL    C2332939   5.905   1.895   2.766  0.2120  0.2225 -0.2106
   79MOL    C2432940   6.055   1.851   2.802  0.0213  0.0707 -0.0440
   79MOL    C2532941   6.135   1.976   2.856 -0.4483  0.8663  0.3018
   79MOL    C2632942   6.103   1.996   2.999  0.2237 -0.5248  0.4738
   79MOL    C2732943   6.157   2.124   3.066 -0.2207 -0.5438 -0.4635
   79MOL    C2832944   6.103   2.133   3.210  0.1677  0.2724 -0.7152
   79MOL    C2932945   6.122   2.276   3.272 -0.1412  0.2437 -1.1505
   79MOL    H3032946   5.906   1.976   2.693  0.8123 -1.3134 -1.9319
   79MOL    H3132947   5.871   1.948   2.855 -2.8274  1.7759 -2.2107
   79MOL    H3232948   6.064   1.772   2.876  1.1667 -0.7447 -1.0322
   79MOL    H3332949   6.105   2.064   2.798 -0.1967 -0.1729 -1.4556
   79MOL    H3432950   6.244   1.967   2.848 -0.5320 -0.1562  0.2128
   79MOL    H3532951   6.151   1.915   3.055 -0.0925  0.1754  1.7719
   79MOL    H3632952   5.996   1.989   3.017 -0.5422  2.1011 -2.6276
   79MOL    H3732953   6.132   2.216   3.014  0.3337 -0.0771  0.0842
   79MOL    H3832954   6.266   2.114   3.070 -0.3019 -0.7287  2.1644
   79MOL    H3932955   6.158   2.066   3.277 -0.4449  2.5134  2.1076
   79MOL    H4032956   5.997   2.110   3.211  0.5375 -1.7053  2.8209
   79MOL    H4132957   6.096   2.273   3.378  1.2561  0.9103 -0.7866
   79MOL    H4232958   6.226   2.304   3.262  0.7529 -2.4666  0.1352
   79MOL    H4332959   6.057   2.354   3.232 -1.3924  0.5416  1.3268
   79MOL    C4432960   6.119   1.791   2.676 -0.8684 -0.3448  1.0635
   79MOL    C4532961   6.268   1.754   2.671  0.2461  0.3238  0.1598
   79MOL    C4632962   6.312   1.663   2.783  0.1331  0.1029 -0.2051
   79MOL    C4732963   6.239   1.520   2.774 -0.6199  0.0040  0.7888
   79MOL    C4832964   6.291   1.414   2.875  0.3635  0.2160 -0.5521
   79MOL    C4932965   6.300   1.457   3.027  0.4735  0.4444  0.3133
   79MOL    C5032966   6.174   1.520   3.092  1.3198  0.0910 -0.3589
   79MOL    H5132967   6.109   1.861   2.593  2.7615 -1.0488 -0.0735
   79MOL    H5232968   6.073   1.701   2.635  0.5184 -0.8182  0.5209
   79MOL    H5332969   6.332   1.842   2.680  2.1063 -1.0623  0.8397
   79MOL    H5432970   6.308   1.707   2.882 -0.1323 -1.0310  0.2911
   79MOL    H5532971   6.419   1.647   2.771  0.3708 -0.2747  2.2556
   79MOL    H5632972   6.132   1.538   2.781 -0.0608  3.2044  1.7012
   79MOL    H5732973   6.249   1.481   2.672 -1.1814  0.4264  0.5762
   79MOL    H5832974   6.391   1.382   2.848  0.0011 -1.0149 -0.4504
   79MOL    H5932975   6.233   1.322   2.869 -0.7142  0.7598  1.2712
   79MOL    H6032976   6.385   1.517   3.059  1.7069 -1.3254  0.4261
   79MOL    H6132977   6.318   1.363   3.078 -1.9175 -0.2379 -0.0585
   79MOL    H6232978   6.164   1.628   3.085  0.1669  0.1100  1.3373
   79MOL    H6332979   6.168   1.495   3.198 -0.6277 -0.6689 -0.6170
   79MOL    H6432980   6.091   1.467   3.046  0.5761  0.5109  0.4726
   79MOL    C6532981   6.311   1.702   2.536 -0.5532  0.0131 -0.0495
   79MOL    C6632982   6.302   1.804   2.423 -0.1403 -0.3762  0.0551
   79MOL    C6732983   6.192   1.762   2.321  0.0805  0.6121 -0.7614
   79MOL    C6832984   6.124   1.879   2.235 -0.0449 -0.1125  0.5149
   79MOL    C6932985   6.033   1.968   2.315  0.2720  0.2866 -0.1035
   79MOL    C7032986   5.965   2.073   2.226  0.7847  0.0379  0.1443
   79MOL    C7132987   5.844   2.019   2.147 -0.0546  0.2600 -0.1017
   79MOL    H7232988   6.414   1.668   2.533  0.4292  2.8749 -1.1494
   79MOL    H7332989   6.244   1.618   2.516 -3.5441  2.0675  1.0357
   79MOL    H7432990   6.268   1.894   2.474 -0.7645 -0.8800  0.5289
   79MOL    H7532991   6.246   1.698   2.251  2.9037  0.0887  1.8058
   79MOL    H7632992   6.114   1.697   2.361  0.4349  0.0774 -0.9486
   79MOL    H7732993   6.209   1.932   2.191  1.1080 -0.2251  2.5412
   79MOL    H7832994   6.068   1.833   2.153 -1.1846  0.5554  0.9074
   79MOL    H7932995   5.965   1.892   2.352  1.3898 -0.4349  0.4738
   79MOL    H8032996   6.090   2.011   2.396 -1.4108  0.9368  0.7681
   79MOL    H8132997   6.037   2.124   2.162  0.3771 -1.0143 -1.1835
   79MOL    H8232998   5.927   2.147   2.297 -2.8617 -2.7868  1.2998
   79MOL    H8332999   5.788   2.101   2.102 -0.6843  0.4063  0.9366
   79MOL    H8433000   5.878   1.949   2.070  3.3999 -0.8557  2.3028
   79MOL    H8533001   5.770   1.963   2.205  0.8935 -2.3333 -1.2946
   79MOL    C8633002   6.435   1.832   2.358  0.4617 -0.0583  0.0031
   79MOL    C8733003   6.526   1.929   2.445 -0.3200 -0.5469  0.1730
   79MOL    C8833004   6.675   1.921   2.389  0.4499  0.3890  0.1639
   79MOL    C8933005   6.742   1.787   2.418 -1.0169  0.7028 -0.4244
   79MOL    C9033006   6.891   1.776   2.381 -0.7567  0.3579  0.0971
   79MOL    C9133007   6.939   1.625   2.390  0.9298 -0.1566  0.2337
   79MOL    C9233008   7.074   1.594   2.339 -0.2173 -0.8635  0.1221
   79MOL    H9333009   6.486   1.736   2.354 -1.1514 -0.9969  1.3248
   79MOL    H9433010   6.419   1.873   2.258  0.2557  1.1326  0.5134
   79MOL    H9533011   6.528   1.894   2.548 -0.1083 -1.1727 -0.0432
   79MOL    H9633012   6.681   1.932   2.281 -1.1031  3.8804  0.3903
   79MOL    H9733013   6.729   2.004   2.434  0.6837  1.4461 -2.0170
   79MOL    H9833014   6.725   1.768   2.524 -0.4577 -0.5253 -0.5410
   79MOL    H9933015   6.688   1.708   2.366  0.3536 -0.3900 -0.2003
   79MOL   H10033016   6.955   1.832   2.450  1.6556 -0.9477 -1.0004
   79MOL   H10133017   6.914   1.811   2.280 -2.5444 -1.0081 -0.7964
   79MOL   H10233018   6.937   1.591   2.494 -2.8450 -0.1075  0.2572
   79MOL   H10333019   6.864   1.561   2.342  2.5425 -1.8070 -0.1423
   79MOL   H10433020   7.155   1.630   2.403  0.9114  0.6771 -2.0837
   79MOL   H10533021   7.087   1.631   2.237  0.3009 -0.6335  0.2678
   79MOL   H10633022   7.093   1.488   2.324 -0.4643 -0.9627  0.5112
   79MOL   C10733023   6.471   2.079   2.455 -0.3495  0.5819 -0.2043
   79MOL   C10833024   6.507   2.174   2.568 -0.0788 -0.1867  0.2687
   79MOL   C10933025   6.448   2.312   2.546  0.6526  0.3987 -0.1927
   79MOL   C11033026   6.533   2.424   2.618  0.2420  0.1024  0.9998
   79MOL   C11133027   6.653   2.478   2.539 -0.3263  0.2102  0.5981
   79MOL   C11233028   6.747   2.567   2.624 -0.6008 -0.2614 -0.2537
   79MOL   C11333029   6.868   2.629   2.549  0.0144  0.0762 -0.4110
   79MOL   H11433030   6.364   2.064   2.470 -0.3467  0.7518 -0.0136
   79MOL   H11533031   6.464   2.123   2.355  0.6526  1.3681  0.0671
   79MOL   H11633032   6.614   2.192   2.558 -0.2771  1.4120  0.7742
   79MOL   H11733033   6.345   2.314   2.582  0.6140 -1.9724 -0.1040
   79MOL   H11833034   6.431   2.330   2.440 -1.7893  1.0250  0.2567
   79MOL   H11933035   6.466   2.506   2.643  0.3933 -0.1451  2.2655
   79MOL   H12033036   6.557   2.385   2.717 -0.2333 -0.1789  1.0068
   79MOL   H12133037   6.618   2.532   2.451 -1.3897 -1.4261 -0.0052
   79MOL   H12233038   6.711   2.394   2.501 -1.2045 -0.7953  1.4133
   79MOL   H12333039   6.686   2.649   2.664  1.2041  0.4748  1.0864
   79MOL   H12433040   6.769   2.502   2.708 -0.0723 -1.4804 -1.3263
   79MOL   H12533041   6.954   2.641   2.615  0.5848 -0.2276 -1.0936
   79MOL   H12633042   6.903   2.565   2.468  0.5213 -0.3928  0.1727
   79MOL   H12733043   6.847   2.726   2.504 -0.0884  0.3258  0.1715
   79MOL   C12833044   6.481   2.110   2.707  0.1985  0.5874  0.2658
   79MOL   C12933045   6.608   2.060   2.769  0.2152  0.3434  0.1430
   79MOL   C13033046   6.572   1.954   2.874 -0.0128  0.1127  0.7105
   79MOL   C13133047   6.541   2.009   3.015 -1.0880 -0.4086  0.1759
   79MOL   C13233048   6.499   1.913   3.121  0.4103  0.9919  0.0540
   79MOL   C13333049   6.614   1.815   3.154 -0.3043 -0.5663  0.2331
   79MOL   C13433050   6.590   1.720   3.272 -0.7061  0.9163 -0.4060
   79MOL   H13533051   6.446   2.183   2.780 -3.7252  0.2051 -1.1020
   79MOL   H13633052   6.398   2.039   2.702  0.2119  0.5627  0.3958
   79MOL   H13733053   6.651   2.003   2.686 -0.0878  0.8821 -0.3839
   79MOL   H13833054   6.654   1.883   2.872 -0.5423 -0.4791 -2.3517
   79MOL   H13933055   6.491   1.890   2.839  1.6006 -1.1434 -0.7514
   79MOL   H14033056   6.466   2.088   3.014 -0.6316  0.0370  0.6043
   79MOL   H14133057   6.627   2.062   3.056 -2.3637  2.5366 -0.8352
   79MOL   H14233058   6.399   1.877   3.094 -0.1174  0.4432  2.6561
   79MOL   H14333059   6.485   1.966   3.215  1.1661  0.9684  0.1821
   79MOL   H14433060   6.706   1.874   3.160 -0.0745 -1.0924  1.9547
   79MOL   H14533061   6.614   1.762   3.058 -0.3040 -3.7016  1.9184
   79MOL   H14633062   6.505   1.652   3.261 -0.7645  1.0094 -0.5324
   79MOL   H14733063   6.581   1.774   3.367  1.5817 -1.0973  0.9781
   79MOL   H14833064   6.673   1.651   3.265 -0.9178  0.6164  0.0524
   79MOL   C14933065   6.714   2.160   2.816  0.2235 -0.0363  0.6155
   79MOL   C15033066   6.849   2.095   2.867 -0.3749 -0.0506 -0.1211
   79MOL   C15133067   6.920   2.184   2.976 -0.5209  0.0047  0.0939
   79MOL   C15233068   6.967   2.329   2.933  0.2490  1.3979  0.0703
   79MOL   C15333069   6.952   2.439   3.039 -0.8874 -0.5482 -0.3010
   79MOL   C15433070   7.001   2.579   2.987  0.1566  0.6742  0.0788
   79MOL   C15533071   7.019   2.689   3.096  0.1978 -0.1779  0.7909
   79MOL   H15633072   6.738   2.232   2.739  0.7092 -0.0811  0.7246
   79MOL   H15733073   6.656   2.222   2.885 -0.4793 -0.0492  0.0412
   79MOL   H15833074   6.821   2.007   2.925  0.9358 -2.0328 -2.4284
   79MOL   H15933075   6.857   2.198   3.064  0.6960  1.6963  0.7200
   79MOL   H16033076   7.007   2.136   3.020 -0.0998  1.3552  0.7597
   79MOL   H16133077   6.910   2.352   2.843  0.7031 -0.7094 -0.7786
   79MOL   H16233078   7.069   2.311   2.900  0.1308  0.4080  0.2263
   79MOL   H16333079   7.011   2.409   3.125 -0.3524  2.2983  0.3669
   79MOL   H16433080   6.847   2.440   3.067 -0.9693 -0.3600 -0.6129
   79MOL   H16533081   6.937   2.620   2.909  0.4001 -2.0793 -1.6070
   79MOL   H16633082   7.097   2.562   2.939 -0.1340  0.2654 -0.3536
   79MOL   H16733083   6.932   2.681   3.161 -0.3449 -0.2181  0.0716
   79MOL   H16833084   7.035   2.786   3.050 -1.8236  1.0526  2.5964
   79MOL   H16933085   7.110   2.660   3.148  1.1425 -0.8004 -1.1493
   79MOL   C17033086   6.930   2.047   2.751  0.3460 -0.1542 -0.0642
   79MOL   C17133087   7.053   1.959   2.788  0.2657 -0.5221  0.0776
   79MOL   C17233088   7.006   1.837   2.868 -0.3954  0.0692 -0.0021
   79MOL   C17333089   6.921   1.739   2.784  0.2267 -0.2149  0.2414
   79MOL   C17433090   6.876   1.623   2.875 -0.2777 -0.4392 -0.1775
   79MOL   C17533091   6.822   1.505   2.795  0.9986  0.2179 -0.6853
   79MOL   C17633092   6.673   1.530   2.755  0.6980 -0.0177  0.3701
   79MOL   H17733093   6.960   2.132   2.689 -2.4735 -0.5760 -2.1282
   79MOL   H17833094   6.879   1.989   2.674  2.0530 -2.0541  0.1920
   79MOL   H17933095   7.114   2.015   2.859  0.3355 -0.1063 -0.3138
   79MOL   H18033096   6.959   1.855   2.965  1.4984 -1.8252  1.3203
   79MOL   H18133097   7.091   1.780   2.905 -0.9712 -1.4220 -0.9477
   79MOL   H18233098   6.978   1.698   2.701 -0.0541  1.9324 -1.0441
   79MOL   H18333099   6.833   1.789   2.744 -0.0229 -0.4034  0.5494
   79MOL   H18433100   6.797   1.652   2.945 -0.0438  0.7658 -0.4036
   79MOL   H18533101   6.943   1.581   2.950 -1.6760  1.7201  2.3849
   79MOL   H18633102   6.830   1.426   2.869  1.7890  0.5964 -0.3639
   79MOL   H18733103   6.888   1.485   2.711  2.0869 -1.9749  0.6524
   79MOL   H18833104   6.655   1.618   2.694 -0.6796  0.6098  1.6313
   79MOL   H18933105   6.620   1.558   2.846  0.2842 -0.2396  0.1991
   79MOL   H19033106   6.622   1.440   2.719  2.5590 -0.6267 -0.8275
   79MOL   C19133107   7.145   1.929   2.663  0.4149  0.4297 -0.2366
   79MOL   C19233108   7.156   2.039   2.555  0.5169  0.3500 -0.8725
   79MOL   C19333109   7.222   2.169   2.603 -0.6224 -0.4885  0.3229
   79MOL   C19433110   7.371   2.165   2.634 -0.0198  0.7273 -0.5995
   79MOL   C19533111   7.413   2.297   2.698  0.3632  0.2314  0.1712
   79MOL   C19633112   7.563   2.310   2.721 -0.1086 -0.1635  0.1334
   79MOL   C19733113   7.598   2.400   2.841  0.3618 -0.1264  0.4371
   79MOL   H19833114   7.098   1.845   2.613 -1.0745 -0.0998  2.0012
   79MOL   H19933115   7.244   1.892   2.689 -1.6536 -3.3282  2.5638
   79MOL   H20033116   7.057   2.056   2.513 -0.0978 -1.5063 -0.2371
   79MOL   H20133117   7.174   2.213   2.691  1.7673 -0.2534  1.5514
   79MOL   H20233118   7.215   2.247   2.527 -1.6807  0.4600  1.3711
   79MOL   H20333119   7.435   2.151   2.546 -2.0574 -0.9155 -1.8753
   79MOL   H20433120   7.392   2.091   2.711  1.9430  0.8804 -0.9464
   79MOL   H20533121   7.383   2.370   2.623 -0.4630  0.1099  0.3778
   79MOL   H20633122   7.364   2.310   2.795 -0.5359  0.4749 -0.3072
   79MOL   H20733123   7.620   2.351   2.638 -0.2970  0.6182  0.3877
   79MOL   H20833124   7.610   2.214   2.742  0.2001  0.0395  0.3709
   79MOL   H20933125   7.557   2.350   2.928 -1.6135 -0.7115 -0.8087
   79MOL   H21033126   7.556   2.500   2.843  1.3292  0.2957  0.1538
   79MOL   H21133127   7.706   2.412   2.849 -0.0274  4.5370  0.0328
   79MOL   C21233128   7.223   1.979   2.431 -0.4525  0.6440  0.0055
   79MOL   C21333129   7.222   2.056   2.296 -0.3074  0.3744 -0.0363
   79MOL   C21433130   7.313   1.978   2.190 -0.2183  0.0054  0.5914
   79MOL   C21533131   7.463   1.985   2.217 -0.2909  0.2803 -0.1224
   79MOL   C21633132   7.542   1.941   2.091  0.1603  0.6789  0.3800
   79MOL   C21733133   7.691   1.927   2.111  0.4193  0.0621 -0.4445
   79MOL   C21833134   0.070   1.914   1.985 -0.2476  0.0988  0.3291
   79MOL   H21933135   7.195   1.875   2.412 -1.2102  1.1147 -1.5815
   79MOL   H22033136   7.327   1.962   2.456 -0.4168 -0.5309 -0.8634
   79MOL   H22133137   7.272   2.151   2.315  1.1093 -0.1852 -0.8193
   79MOL   H22233138   7.272   1.877   2.186 -1.1800  0.3886  0.5182
   79MOL   H22333139   7.297   2.013   2.088 -2.9275 -0.5808  0.7762
   79MOL   H22433140   7.467   1.909   2.295  0.1153 -0.3514 -0.7539
   79MOL   H22533141   7.500   2.084   2.245  0.5817  0.0292 -0.3857
   79MOL   H22633142   7.502   1.843   2.064  1.1304 -0.4413  2.8170
   79MOL   H22733143   7.517   2.017   2.018  2.5367  1.0794 -0.0770
   79MOL   H22833144   0.006   2.008   2.178  1.2498 -1.6238  1.2539
   79MOL   H22933145   7.706   1.838   2.171 -1.2160 -1.3619 -2.0711
   79MOL   H23033146   0.078   1.807   1.966  1.2285  0.6279 -2.2429
   79MOL   H23133147   0.162   1.967   2.009 -1.0774  1.5893  0.3197
   79MOL   H23233148   0.029   1.955   1.892 -0.5390  0.1556  0.4801
   79MOL   C23333149   7.079   2.074   2.238  0.2078 -0.0683 -0.0867
   79MOL   C23433150   7.055   2.203   2.148 -0.1557 -0.0382 -0.4799
   79MOL   C23533151   6.935   2.191   2.046 -0.1119 -0.3040 -0.5721
   79MOL   C23633152   6.801   2.251   2.089  0.2016  0.2410  0.1097
   79MOL   C23733153   6.699   2.247   1.966 -0.5943 -0.0308  0.6677
   79MOL   C23833154   6.570   2.323   1.993  0.4292  0.2917  0.5708
   79MOL   C23933155   6.490   2.249   2.095 -0.1332  0.0411 -0.2129
   79MOL   H24033156   6.999   2.091   2.310 -0.1113  0.5914 -0.5989
   79MOL   H24133157   7.050   1.982   2.186 -1.2546  0.3997 -0.1311
   79MOL   H24233158   7.147   2.201   2.090 -0.5594 -3.5494 -1.1379
   79MOL   H24333159   6.922   2.090   2.008  0.6242 -0.8559  0.6171
   79MOL   H24433160   6.969   2.245   1.958 -0.0511  0.3279 -0.1617
   79MOL   H24533161   6.808   2.352   2.130  1.7376  0.5193 -0.7979
   79MOL   H24633162   6.761   2.198   2.175 -1.8871  1.2213 -0.2107
   79MOL   H24733163   6.687   2.142   1.940  1.2205 -0.8302  2.8761
   79MOL   H24833164   6.753   2.276   1.876  1.4276  0.1647  1.9005
   79MOL   H24933165   6.593   2.428   2.005 -1.2119  0.6810  0.4017
   79MOL   H25033166   6.518   2.309   1.899  1.9698 -1.0468 -0.1079
   79MOL   H25133167   6.490   2.141   2.081  0.4441  0.0705 -0.4635
   79MOL   H25233168   6.546   2.266   2.187  1.9817 -2.1817 -1.0424
   79MOL   H25333169   6.386   2.280   2.104 -0.4033 -0.2304 -2.2539
   79MOL   C25433170   7.047   2.328   2.242  0.0350 -0.1777  0.3856
   79MOL   C25533171   7.105   2.462   2.182 -0.2951  0.0506  0.2800
   79MOL   C25633172   7.064   2.512   2.041 -0.6306  0.3605  0.0580
   79MOL   C25733173   7.099   2.650   2.002  0.1901 -0.3657  0.5646
   79MOL   C25833174   7.076   2.692   1.857  0.4223 -0.2842 -0.6238
   79MOL   C25933175   7.090   2.841   1.839  0.4888 -0.6917 -0.2439
   79MOL   C26033176   7.070   2.899   1.701 -0.0369 -0.5312  0.3960
   79MOL   H26133177   7.093   2.305   2.338 -1.5342  1.7444  1.6522
   79MOL   H26233178   6.944   2.344   2.276 -1.0932 -0.8441 -2.5379
   79MOL   H26333179   7.065   2.542   2.244 -1.2323 -0.3564  0.2077
   79MOL   H26433180   6.956   2.500   2.028 -0.7259  0.7350  0.5073
   79MOL   H26533181   7.106   2.444   1.967 -1.2845  0.1323 -0.1042
   79MOL   H26633182   7.038   2.711   2.068  0.9375 -1.0200  1.8756
   79MOL   H26733183   7.203   2.671   2.024 -0.0352  0.8044  0.5510
   79MOL   H26833184   6.971   2.669   1.835 -0.0022  1.4050 -0.4514
   79MOL   H26933185   7.140   2.641   1.786  0.8510  0.4671 -0.7803
   79MOL   H27033186   7.014   2.882   1.906  1.5821  1.9798 -0.6097
   79MOL   H27133187   7.192   2.858   1.873 -0.9075  1.2366  3.1949
   79MOL   H27233188   6.969   2.869   1.671 -1.3305  3.7118  0.2502
   79MOL   H27333189   7.074   3.007   1.713  0.1613 -0.6738  1.7012
   79MOL   H27433190   7.140   2.863   1.626 -0.5043 -1.0723  0.2103
   79MOL   C27533191   7.264   2.453   2.189 -0.2695  0.1028 -0.1862
   79MOL   C27633192   7.340   2.485   2.322 -0.0522 -1.4694 -0.0471
   79MOL   C27733193   7.318   2.629   2.372 -0.1083 -0.2908 -0.5856
   79MOL   C27833194   7.291   2.633   2.520 -0.0541 -0.7634  0.0713
   79MOL   C27933195   7.256   2.772   2.576 -0.3316 -0.5029  0.3370
   79MOL   C28033196   7.199   2.767   2.726  0.4346 -0.7358 -0.0629
   79MOL   C28133197   7.200   2.910   2.788 -0.0227 -0.3829  0.3838
   79MOL   H28233198   7.305   2.522   2.115  0.7691  0.4001  0.6490
   79MOL   H28333199   7.288   2.350   2.162  2.1553  0.6659 -0.2894
   79MOL   H28433200   7.286   2.419   2.390 -4.0037  1.1890 -0.4404
   79MOL   H28533201   7.404   2.691   2.345  0.2499  0.1868  1.5989
   79MOL   H28633202   7.238   2.685   2.323  0.4621  1.2495  0.1940
   79MOL   H28733203   7.364   2.587   2.586 -0.9113 -1.4762  0.5431
   79MOL   H28833204   7.205   2.570   2.543 -0.8345  1.0418  2.2413
   79MOL   H28933205   7.178   2.806   2.508 -0.8036 -2.5093 -0.1313
   79MOL   H29033206   7.334   2.845   2.551 -0.5108 -0.7437 -0.9306
   79MOL   H29133207   7.098   2.728   2.729  0.2099 -0.1115  0.6151
   79MOL   H29233208   7.255   2.699   2.791  0.6701  0.7068  1.2774
   79MOL   H29333209   7.295   2.955   2.760 -0.1033 -0.7229 -0.4608
   79MOL   H29433210   7.193   2.909   2.897 -1.5801 -0.1153  0.2968
   79MOL   H29533211   7.116   2.970   2.752  1.1117 -0.0402 -1.7515
   79MOL   C29633212   7.486   2.432   2.320  0.1072 -0.6392  1.0037
   79MOL   C29733213   7.575   2.471   2.201  0.0171 -0.0416 -0.9661
   79MOL   C29833214   7.692   2.380   2.196 -0.5654  0.1848 -0.7839
   79MOL   C29933215   0.081   2.383   2.313  0.4486 -0.5737  0.0169
   79MOL   C30033216   0.188   2.277   2.301 -0.2219  0.1538  0.0324
   79MOL   C30133217   0.286   2.292   2.417  0.5657  0.3517 -0.2402
   79MOL   C30233218   0.412   2.218   2.389 -0.1629  0.7259  0.3377
   79MOL   H30333219   7.531   2.447   2.418  1.4182 -1.1480  0.4902
   79MOL   H30433220   7.482   2.323   2.318  2.1933 -0.7427  1.0750
   79MOL   H30533221   7.521   2.455   2.107  1.4187  2.6267 -2.2962
   79MOL   H30633222   7.649   2.281   2.192  1.0332 -0.5015 -1.3525
   79MOL   H30733223   0.030   2.383   2.099  1.3647  3.1796  0.2369
   79MOL   H30833224   0.024   2.356   2.402  0.7097 -0.2907  0.2668
   79MOL   H30933225   0.119   2.483   2.333 -1.1181 -0.3151  1.7760
   79MOL   H31033226   0.238   2.282   2.205 -1.7671  1.7525 -0.7207
   79MOL   H31133227   0.141   2.179   2.304  0.3572 -0.1249  0.0717
   79MOL   H31233228   0.311   2.398   2.419  0.3810  0.3796  0.5113
   79MOL   H31333229   0.235   2.264   2.509  0.5518  0.1233 -0.3177
   79MOL   H31433230   0.389   2.114   2.367  0.6443  0.7340 -0.6075
   79MOL   H31533231   0.467   2.257   2.303  1.1677 -1.2582  0.2619
   79MOL   H31633232   0.485   2.227   2.469  0.3712  2.1550 -0.2931
   79MOL   C31733233   7.611   2.625   2.198 -0.5231 -0.2142 -0.0906
   79MOL   C31833234   0.017   2.665   2.104  0.3216 -0.3688  0.9902
   79MOL   C31933235   7.679   2.735   1.978  0.1667  0.0961  0.0051
   79MOL   C32033236   7.575   2.658   1.895 -0.2234 -0.1139  0.4138
   79MOL   C32133237   7.526   2.740   1.779 -0.1114 -0.0256 -0.1510
   79MOL   C32233238   7.459   2.656   1.672  0.4290 -0.2013  0.3007
   79MOL   C32333239   7.444   2.724   1.536  0.1902 -0.1145  0.0900
   79MOL   H32433240   7.637   2.651   2.301  0.9932  2.2265 -1.0433
   79MOL   H32533241   7.524   2.683   2.169 -0.5146 -0.4495 -0.5900
   79MOL   H32633242   0.078   2.584   2.065 -0.1840  0.1262 -0.8942
   79MOL   H32733243   0.050   2.752   1.910 -1.8057 -0.9565 -2.7618
   79MOL   H32833244   7.640   2.835   1.998  1.2712  0.0584  2.5806
   79MOL   H32933245   7.494   2.647   1.967  0.2615 -2.2192  0.6782
   79MOL   H33033246   7.611   2.561   1.859  1.2186  0.7181 -0.3881
   79MOL   H33133247   7.617   2.789   1.744 -0.0122  1.3230  1.8956
   79MOL   H33233248   7.456   2.820   1.804 -1.0124 -0.5698 -0.9369
   79MOL   H33333249   7.364   2.624   1.714  0.9078 -0.9440  0.8525
   79MOL   H33433250   7.527   2.570   1.665  3.8593  2.4405 -0.1335
   79MOL   H33533251   7.372   2.806   1.540  0.8004  0.3550  2.0840
   79MOL   H33633252   7.404   2.660   1.457  1.2205 -0.9945  0.2724
   79MOL   H33733253   7.540   2.764   1.507  0.6981 -0.0063  1.8462
   79MOL   C33833254   0.120   2.752   2.179  0.0331 -0.2990 -0.0756
   79MOL   C33933255   0.256   2.772   2.110  0.5340 -0.1378  0.1596
   79MOL   C34033256   0.352   2.659   2.128 -0.7402 -0.2165  0.2696
   79MOL   C34133257   0.451   2.648   2.008 -0.2158 -0.1784  0.1889
   79MOL   C34233258   0.575   2.556   2.034 -0.1613  0.3482  0.2772
   79MOL   C34333259   0.686   2.578   1.925 -0.2354 -0.4954 -0.4273
   79MOL   C34433260   0.791   2.470   1.902 -0.3838 -0.1707 -0.1068
   79MOL   H34533261   0.141   2.697   2.271 -1.4866  0.0442  0.4774
   79MOL   H34633262   0.081   2.850   2.205  0.2506 -0.2591  0.0958
   79MOL   H34733263   0.231   2.788   2.005 -1.2609 -1.9843  0.2775
   79MOL   H34833264   0.403   2.651   2.224 -1.6930 -0.8215  0.7235
   79MOL   H34933265   0.307   2.560   2.135  1.1358 -1.1088  0.0276
   79MOL   H35033266   0.490   2.748   1.986  0.6122 -1.0544 -2.5885
   79MOL   H35133267   0.393   2.618   1.920  0.5381  1.4000 -0.8756
   79MOL   H35233268   0.619   2.590   2.128  1.4776  0.3730 -0.4985
   79MOL   H35333269   0.540   2.453   2.044  0.9954 -0.0927 -0.2377
   79MOL   H35433270   0.640   2.600   1.828  1.5552 -0.9750 -1.3949
   79MOL   H35533271   0.738   2.673   1.939 -1.3933  0.0523  0.2549
   79MOL   H35633272   0.828   2.428   1.996  1.0125  0.4104 -0.3775
   79MOL   H35733273   0.883   2.505   1.854  0.8675 -0.9565  1.6489
   79MOL   H35833274   0.756   2.390   1.838 -2.4405  0.9694 -0.4510
   79MOL   C35933275   0.335   2.894   2.164  0.4338 -0.0197  0.1953
   79MOL   C36033276   0.287   3.037   2.133  0.2270  0.8677 -0.2413
   79MOL   C36133277   0.356   3.144   2.228 -0.0106  0.0848  0.2153
   79MOL   C36233278   0.311   3.156   2.379  0.7649  0.1480  0.1366
   79MOL   C36333279   0.225   3.273   2.425 -0.3279  0.7950  0.2685
   79MOL   C36433280   0.171   3.256   2.568  0.0171  0.4072  0.4841
   79MOL   C36533281   0.083   3.374   2.614  0.0516 -0.0540 -0.5481
   79MOL   H36633282   0.438   2.889   2.126  0.7555 -2.2981  1.2520
   79MOL   H36733283   0.352   2.887   2.271  0.4847 -1.4632  0.1086
   79MOL   H36833284   0.180   3.039   2.156  0.4396 -0.9743  1.1024
   79MOL   H36933285   0.463   3.125   2.230  0.0720  0.5466  0.1897
   79MOL   H37033286   0.342   3.243   2.186 -0.4322 -0.3818 -0.7765
   79MOL   H37133287   0.262   3.060   2.393  3.1501 -1.4136 -1.8439
   79MOL   H37233288   0.397   3.155   2.445  1.1816 -1.3674 -0.4113
   79MOL   H37333289   0.282   3.364   2.406  1.1946 -0.3738 -0.8422
   79MOL   H37433290   0.143   3.293   2.357 -0.1816 -0.4844 -0.2997
   79MOL   H37533291   0.110   3.169   2.590 -1.0325  1.2210  0.8022
   79MOL   H37633292   0.259   3.253   2.632 -0.0103 -0.2567  0.4989
   79MOL   H37733293   0.011   3.397   2.536  1.2020  0.6859 -1.3973
   79MOL   H37833294   0.036   3.342   2.707  0.6336 -1.9309 -0.8633
   79MOL   H37933295   0.138   3.464   2.642 -0.8514  0.1914  0.4698
   79MOL   C38033296   0.307   3.073   1.988 -0.1378  1.3561 -0.9072
   79MOL   C38133297   0.228   3.197   1.936 -0.2966  0.0651  0.9002
   79MOL   C38233298   0.307   3.290   1.842 -0.3358  0.1354  0.1203
   79MOL   C38333299   0.421   3.371   1.911 -0.5205 -0.4497 -0.0083
   79MOL   C38433300   0.455   3.492   1.828 -0.4043 -0.2822  0.3530
   79MOL   C38533301   0.589   3.556   1.881 -0.4272 -0.0469  0.0777
   79MOL   C38633302   0.600   3.698   1.832  0.0772 -0.5141  0.8202
   79MOL   H38733303   0.414   3.082   1.974  0.4835 -1.3041  1.5677
   79MOL   H38833304   0.292   2.983   1.929  1.3903 -1.0013  2.1617
   79MOL   H38933305   0.198   3.252   2.026 -0.8752  0.9202  0.1849
   79MOL   H39033306   0.246   3.369   1.798 -0.0958 -0.0434 -0.5330
   79MOL   H39133307   0.348   3.222   1.768  0.3048  0.7854 -0.1324
   79MOL   H39233308   0.402   3.394   2.016  1.3717  1.4477 -0.0332
   79MOL   H39333309   0.503   3.301   1.930 -2.5972 -3.2377 -1.0891
   79MOL   H39433310   0.469   3.467   1.723  1.9308 -0.6775  0.7207
   79MOL   H39533311   0.368   3.556   1.817  0.0946  0.6872  1.8775
   79MOL   H39633312   0.676   3.496   1.855  0.2232  0.0830  1.8622
   79MOL   H39733313   0.584   3.562   1.990  0.0400 -2.9592  0.2853
   79MOL   H39833314   0.623   3.700   1.726  0.5755  1.3631  0.9438
   79MOL   H39933315   0.689   3.741   1.879 -0.1049  1.5247 -0.6179
   79MOL   H40033316   0.514   3.763   1.850  0.9711  1.6414 -2.2623
   79MOL   C40133317   0.098   3.154   1.871 -0.8178  0.1471  0.0349
   79MOL   C40233318   7.685   3.230   1.913  0.0103  0.2661  0.2728
   79MOL   C40333319   7.542   3.175   1.870  0.0282 -0.2495  0.4384
   79MOL   C40433320   7.523   3.145   1.717 -1.3535  0.0700 -0.4086
   79MOL   C40533321   7.521   3.278   1.625  0.1660  0.6410  0.3997
   79MOL   C40633322   7.561   3.258   1.481  0.0643  0.1181 -0.5149
   79MOL   C40733323   7.713   3.228   1.480 -0.6764  0.0370 -0.0670
   79MOL   H40833324   0.077   3.048   1.883  3.1120 -0.5216  1.5959
   79MOL   H40933325   0.108   3.162   1.763  0.8779 -0.3267  0.1518
   79MOL   H41033326   7.702   3.334   1.885  1.4738  0.2663  1.0912
   79MOL   H41133327   7.466   3.240   1.914 -0.7959 -0.6665 -0.3507
   79MOL   H41233328   7.530   3.076   1.914 -2.0377 -0.8775 -1.4881
   79MOL   H41333329   7.429   3.090   1.710 -0.2812 -2.3040  2.8471
   79MOL   H41433330   7.603   3.078   1.686  0.5083  1.1172  1.9578
   79MOL   H41533331   7.421   3.320   1.622  0.1588  0.6273  0.4406
   79MOL   H41633332   7.588   3.354   1.666  1.5767 -0.2013 -0.2778
   79MOL   H41733333   7.504   3.178   1.435 -0.7561 -1.4685  3.0636
   79MOL   H41833334   7.534   3.343   1.419  0.3409  0.1443 -0.6014
   79MOL   H41933335   0.037   3.227   1.378  1.3075 -0.3505  0.6373
   79MOL   H42033336   0.037   3.140   1.533 -0.6941 -0.1553 -0.3713
   79MOL   H42133337   0.051   3.312   1.526 -0.0359 -0.1152 -0.5039
   79MOL   H42233338   7.684   3.243   2.021  1.5688 -1.4116  0.5194
   80MOL     C133339   0.331   2.740   7.481  0.6567 -0.4382  0.0463
   80MOL     C233340   0.370   2.889   7.467  0.0597  0.6500 -0.5949
   80MOL     C333341   0.460   2.921   7.591 -0.3914 -0.3177 -0.0560
   80MOL     C433342   0.608   2.870   7.572 -0.1171  0.4477 -0.3065
   80MOL     C533343   0.696   2.872   7.696  0.4914  0.7910 -0.0619
   80MOL     C633344   0.665   2.748   0.064  0.4922  0.4674 -0.2430
   80MOL     C733345   0.742   2.748   0.195  0.0003 -0.5881 -0.2208
   80MOL     H833346   0.421   2.681   7.503  1.3810  0.6457  0.0076
   80MOL     H933347   0.285   2.691   7.395 -1.1673  0.8252  0.2965
   80MOL    H1033348   0.420   2.906   7.371  0.9320  1.0124 -0.0824
   80MOL    H1133349   0.461   3.025   7.624 -2.5572 -0.8441  1.8681
   80MOL    H1233350   0.415   2.872   7.678  1.4175 -0.1577  1.0026
   80MOL    H1333351   0.609   2.765   7.541 -1.5630  0.5156 -0.6052
   80MOL    H1433352   0.655   2.925   7.491 -0.1066  1.2901  0.2678
   80MOL    H1533353   0.674   2.964   0.036 -0.1487  1.8376 -2.0430
   80MOL    H1633354   0.802   2.862   7.673  0.5538  0.4437  0.3738
   80MOL    H1733355   0.687   2.659   0.005  2.1511  0.9021 -0.3275
   80MOL    H1833356   0.558   2.739   0.082  0.2995  1.3782 -0.9524
   80MOL    H1933357   0.722   2.659   0.253  1.1687 -0.9114 -0.3150
   80MOL    H2033358   0.723   2.836   0.257  0.9224 -1.6667  1.6208
   80MOL    H2133359   0.850   2.740   0.199 -0.0499 -2.6185 -2.0367
   80MOL    H2233360   0.254   2.731   7.557  1.6433  1.0510  1.2442
   80MOL    C2333361   0.252   2.981   7.461  0.2062 -0.3187 -0.2806
   80MOL    C2433362   0.138   2.949   7.375 -0.3266  0.4507 -0.0652
   80MOL    C2533363   0.177   2.982   7.225 -0.4708  0.5920 -0.0321
   80MOL    C2633364   0.076   2.918   7.125  0.2694  0.2032 -0.1166
   80MOL    C2733365   0.132   2.933   6.983  0.0559 -0.5700  0.2403
   80MOL    C2833366   0.024   2.890   6.879  0.4166  0.2033 -0.0441
   80MOL    C2933367   0.082   2.895   6.742 -0.6294  0.2263 -0.7747
   80MOL    H3033368   0.206   2.986   7.560  1.4242 -1.1114  0.3435
   80MOL    H3133369   0.276   3.085   7.441 -2.3529 -0.0784 -2.4199
   80MOL    H3233370   0.118   2.842   7.383  1.8200 -0.0027 -0.3820
   80MOL    H3333371   0.282   2.955   7.211 -0.2033  1.4435  0.3329
   80MOL    H3433372   0.166   3.089   7.214 -0.1748  0.5073 -1.2597
   80MOL    H3533373   7.687   2.953   7.135 -0.3515 -1.8104  0.7763
   80MOL    H3633374   0.073   2.811   7.146  2.2814  0.6261  2.4976
   80MOL    H3733375   0.229   2.891   6.955  0.1702  0.4284 -0.9009
   80MOL    H3833376   0.150   3.040   6.971 -0.1134 -0.5040  0.5565
   80MOL    H3933377   7.646   2.949   6.894  0.8848  1.2928 -1.3777
   80MOL    H4033378   7.708   2.788   6.903 -0.6975  0.3321 -0.7965
   80MOL    H4133379   0.008   2.879   6.664 -3.0658  0.8703  1.3135
   80MOL    H4233380   0.111   2.999   6.727 -0.0838  0.0910 -0.6571
   80MOL    H4333381   0.169   2.831   6.732  0.5422  1.1908  2.6226
   80MOL    C4433382   0.007   3.029   7.417 -0.1864 -0.2641  0.0283
   80MOL    C4533383   7.635   2.956   7.521 -0.3319  0.3940  0.1485
   80MOL    C4633384   7.549   3.055   7.600 -0.3674 -0.0401 -0.8016
   80MOL    C4733385   7.628   3.095   0.007 -0.3827  0.5711 -0.0803
   80MOL    C4833386   7.551   3.188   0.102  0.6831 -0.5182 -0.2680
   80MOL    C4933387   7.613   3.189   0.247 -0.5803 -0.1230 -0.6264
   80MOL    C5033388   7.539   3.283   0.349  0.3981 -0.1349  0.3055
   80MOL    H5133389   7.651   3.037   7.333 -1.1520 -6.1697  0.0445
   80MOL    H5233390   0.035   3.129   7.451  0.9721 -0.2344 -0.9822
   80MOL    H5333391   7.707   2.912   7.589  0.7858  1.3562 -0.3906
   80MOL    H5433392   7.453   3.018   7.636 -0.4983  2.1883  1.1817
   80MOL    H5533393   7.532   3.132   7.525  0.5061  1.8993  0.9408
   80MOL    H5633394   7.656   3.004   0.059 -1.4272 -2.3318 -4.3313
   80MOL    H5733395   0.007   3.141   7.687  0.6089 -0.4206  1.2460
   80MOL    H5833396   7.443   3.172   0.096  0.7938 -1.6381  0.6316
   80MOL    H5933397   7.554   3.292   0.071  1.4181 -0.3401  0.3934
   80MOL    H6033398   0.002   3.224   0.236  0.6580 -2.2145  3.4530
   80MOL    H6133399   7.627   3.093   0.297  0.2906  0.8946  1.1215
   80MOL    H6233400   7.543   3.390   0.330  1.3022  0.3877  3.1832
   80MOL    H6333401   7.588   3.279   0.446  2.8290  2.7307 -0.7161
   80MOL    H6433402   7.436   3.255   0.366  0.0519 -0.5091 -2.1763
   80MOL    C6533403   7.549   2.847   7.452 -0.0357  0.0892  0.0537
   80MOL    C6633404   7.538   2.714   7.537  0.1516 -0.0503 -0.0158
   80MOL    C6733405   7.662   2.625   7.526 -0.6083  0.1928  0.2057
   80MOL    C6833406   7.671   2.525   7.406  0.4928  0.0456 -0.0191
   80MOL    C6933407   0.085   2.438   7.429 -0.0463 -0.0042 -0.2873
   80MOL    C7033408   0.069   2.313   7.512  0.6797 -0.2549  0.0796
   80MOL    C7133409   7.700   2.198   7.459  0.3003  0.1081 -0.4973
   80MOL    H7233410   7.448   2.888   7.443 -0.7969 -1.3028  1.6867
   80MOL    H7333411   7.575   2.830   7.348 -0.0724 -0.3956  0.1198
   80MOL    H7433412   7.542   2.755   7.638  3.2522  0.4480 -0.2866
   80MOL    H7533413   0.040   2.685   7.525 -0.3145 -0.2523 -0.4268
   80MOL    H7633414   7.663   2.565   7.616  0.9510 -0.6190 -0.3332
   80MOL    H7733415   7.578   2.470   7.415 -0.0568  0.9580 -0.0420
   80MOL    H7833416   7.674   2.577   7.310  1.3775  2.0311  1.0396
   80MOL    H7933417   0.123   2.404   7.332  3.2947 -0.9179  1.2671
   80MOL    H8033418   0.173   2.490   7.466  0.9962  0.0787 -2.7411
   80MOL    H8133419   0.048   2.335   7.616  0.1726 -1.9378  0.3572
   80MOL    H8233420   0.168   2.270   7.525  0.8662 -0.4155 -1.6957
   80MOL    H8333421   0.047   2.122   7.410 -1.8487 -2.0531  0.1624
   80MOL    H8433422   7.655   2.125   7.526 -0.3541  0.2588 -0.7657
   80MOL    H8533423   7.632   2.240   7.384  0.2312  0.5303 -0.2006
   80MOL    C8633424   7.410   2.627   7.526 -0.6977 -0.1213 -0.4304
   80MOL    C8733425   7.272   2.690   7.577 -0.5035 -0.0433  0.9713
   80MOL    C8833426   7.156   2.682   7.477 -0.2632  0.2865 -0.4908
   80MOL    C8933427   7.177   2.787   7.370  0.5946  0.5441  0.3797
   80MOL    C9033428   7.056   2.775   7.278 -0.5187 -0.4968 -0.3492
   80MOL    C9133429   7.025   2.894   7.187  0.3063 -0.4065  0.4528
   80MOL    C9233430   7.134   2.918   7.080  0.0866 -0.1525  0.1563
   80MOL    H9333431   7.403   2.594   7.422  1.5705 -0.4274 -0.5001
   80MOL    H9433432   7.433   2.537   7.584 -0.1308  1.0489  1.2137
   80MOL    H9533433   7.285   2.798   7.587  0.4029  0.0279 -0.7893
   80MOL    H9633434   7.142   2.580   7.441 -0.9069  0.1848  0.0208
   80MOL    H9733435   7.063   2.702   7.530  0.1959 -2.1012  1.3486
   80MOL    H9833436   7.181   2.887   7.414 -2.0469  0.9776 -0.3033
   80MOL    H9933437   7.272   2.787   7.316 -0.5997  2.2517 -1.7779
   80MOL   H10033438   6.970   2.765   7.345 -0.6664 -0.3736 -0.5224
   80MOL   H10133439   7.084   2.689   7.217 -2.2285 -0.7518 -0.7983
   80MOL   H10233440   6.930   2.867   7.141  0.6556  1.4625 -1.4646
   80MOL   H10333441   7.008   2.988   7.238  0.6627 -0.4898  0.7279
   80MOL   H10433442   7.114   2.982   6.994  1.6290  0.3300  0.1475
   80MOL   H10533443   7.172   2.823   7.041 -0.2453 -1.2198  2.3433
   80MOL   H10633444   7.215   2.963   7.137 -0.8235  0.7235  0.7509
   80MOL   C10733445   7.229   2.627   7.710 -0.0995 -0.0675 -0.3399
   80MOL   C10833446   7.326   2.642   0.115  0.0343  0.4927 -0.2442
   80MOL   C10933447   7.339   2.790   0.165 -0.1404 -0.2583  0.1764
   80MOL   C11033448   7.215   2.882   0.169 -0.8941  0.5385 -0.6207
   80MOL   C11133449   7.232   3.002   0.271  0.1592 -1.1811  0.0549
   80MOL   C11233450   7.101   3.079   0.303 -0.5392  0.7923 -0.1849
   80MOL   C11333451   7.130   3.193   0.398  0.8281 -0.1947  0.0961
   80MOL   H11433452   7.203   2.521   7.706 -1.7156  0.3498 -1.2278
   80MOL   H11533453   7.135   2.669   0.032  0.4742  1.0901 -0.1601
   80MOL   H11633454   7.420   2.596   0.086 -0.1499 -1.1156  1.5839
   80MOL   H11733455   7.415   2.841   0.105 -0.2858 -0.5320 -0.2468
   80MOL   H11833456   7.384   2.787   0.264 -0.8201 -1.6054  0.4545
   80MOL   H11933457   7.199   2.926   0.070  0.0479 -0.7812 -1.3898
   80MOL   H12033458   7.130   2.822   0.202  0.9325 -2.2932 -0.8473
   80MOL   H12133459   7.311   3.071   0.241  1.7575 -3.7402 -1.9170
   80MOL   H12233460   7.279   2.957   0.359  2.6347 -0.1578 -0.6793
   80MOL   H12333461   7.052   3.101   0.208  0.1146 -0.1109 -0.7490
   80MOL   H12433462   7.036   3.014   0.362  2.2488 -0.5567  1.5332
   80MOL   H12533463   7.190   3.152   0.479 -1.3016 -0.3088  1.6552
   80MOL   H12633464   7.193   3.256   0.336  0.0930  0.7717  0.3246
   80MOL   H12733465   7.034   3.240   0.419  0.7651 -0.4440  0.3696
   80MOL   C12833466   7.267   2.553   0.224 -0.0783 -0.1018  0.4288
   80MOL   C12933467   7.333   2.539   0.373 -1.0721 -0.0648 -0.3638
   80MOL   C13033468   7.472   2.475   0.370  0.4138  0.1464  0.2767
   80MOL   C13133469   7.479   2.353   0.279 -0.4838  0.0157 -0.2544
   80MOL   C13233470   7.621   2.308   0.272  0.1070 -0.2040 -0.0176
   80MOL   C13333471   7.639   2.191   0.183 -0.3804  0.2550 -0.2068
   80MOL   C13433472   0.063   2.131   0.197 -0.2743 -0.0175 -0.1853
   80MOL   H13533473   7.168   2.595   0.242  0.5813  1.2393  1.0017
   80MOL   H13633474   7.253   2.454   0.181 -0.8584  0.9059 -1.6904
   80MOL   H13733475   7.342   2.637   0.419 -3.7627  0.7835 -1.5531
   80MOL   H13833476   7.497   2.447   0.472 -2.4940 -0.6643  0.8156
   80MOL   H13933477   7.542   2.550   0.334 -0.7079  1.6054  1.1018
   80MOL   H14033478   7.447   2.384   0.180  0.3317 -0.0328 -0.5339
   80MOL   H14133479   7.419   2.265   0.304 -0.6968 -0.1236 -1.2539
   80MOL   H14233480   7.642   2.273   0.373  0.0085 -0.1113  0.0360
   80MOL   H14333481   7.684   2.391   0.243  1.0732  0.1124  2.8476
   80MOL   H14433482   7.607   2.208   0.080 -0.4062  2.2899  0.1205
   80MOL   H14533483   7.570   2.118   0.224 -0.3888  1.1817  1.4768
   80MOL   H14633484   0.087   2.121   0.303 -0.5786  3.1923  0.2239
   80MOL   H14733485   0.134   2.197   0.148 -0.1415 -0.0105  0.0161
   80MOL   H14833486   0.070   2.032   0.151 -2.5233 -0.5649  0.5998
   80MOL   C14933487   7.218   2.474   0.466 -0.6166  0.3083  0.3561
   80MOL   C15033488   7.117   2.569   0.542 -0.2477 -0.2638 -0.0492
   80MOL   C15133489   7.031   2.666   0.467  0.0248  0.7037  0.0931
   80MOL   C15233490   6.905   2.704   0.549 -0.0768  0.8247 -0.1192
   80MOL   C15333491   6.827   2.824   0.489  0.3990 -0.5501 -0.1317
   80MOL   C15433492   6.771   2.796   0.346 -0.1708  0.4036  0.2730
   80MOL   C15533493   6.681   2.674   0.346  0.4923 -0.0170 -0.2334
   80MOL   H15633494   7.152   2.411   0.407  1.1254 -2.5374  1.3523
   80MOL   H15733495   7.273   2.409   0.533  0.8115 -0.6301 -1.6726
   80MOL   H15833496   7.042   2.497   0.573 -1.7861  1.3399  0.0014
   80MOL   H15933497   7.084   2.745   0.414 -1.5019  0.5058 -1.7828
   80MOL   H16033498   6.986   2.615   0.382  0.2132  0.7000 -0.0024
   80MOL   H16133499   6.931   2.746   0.646  0.1582  1.3170 -0.3947
   80MOL   H16233500   6.847   2.614   0.572 -0.5256  0.5823 -2.0384
   80MOL   H16333501   6.893   2.910   0.482  1.3871 -1.2327  0.7464
   80MOL   H16433502   6.753   2.848   0.565  0.7906 -0.4175  0.2071
   80MOL   H16533503   6.859   2.783   0.282 -0.0193 -1.8409  0.8789
   80MOL   H16633504   6.726   2.890   0.314 -0.7614  0.9200  2.5576
   80MOL   H16733505   6.595   2.677   0.413 -0.6444 -1.6206 -1.5580
   80MOL   H16833506   6.736   2.583   0.368 -0.2114 -0.3651  0.1146
   80MOL   H16933507   6.645   2.656   0.244 -0.6207 -1.2486  0.3714
   80MOL   C17033508   7.187   2.623   0.669 -0.4234 -0.1239  0.6764
   80MOL   C17133509   7.168   2.542   0.799 -0.0039 -0.1206  0.0697
   80MOL   C17233510   7.213   2.394   0.800  0.3948 -0.7316  0.7760
   80MOL   C17333511   7.368   2.381   0.791  0.1621  0.6662 -0.4814
   80MOL   C17433512   7.410   2.233   0.765  0.0961 -0.0378 -0.4355
   80MOL   C17533513   7.561   2.213   0.733 -0.6134 -0.3790  0.2641
   80MOL   C17633514   7.581   2.074   0.667 -0.2562 -0.1233  0.3297
   80MOL   H17733515   7.132   2.716   0.680 -1.7235 -0.6822 -0.9194
   80MOL   H17833516   7.291   2.644   0.641 -1.3035 -0.1532 -2.8432
   80MOL   H17933517   7.060   2.530   0.810  0.0469 -2.2416 -1.4808
   80MOL   H18033518   7.168   2.346   0.714 -1.7147  0.0301  1.4225
   80MOL   H18133519   7.156   2.349   0.881  0.3840 -1.8398  0.1613
   80MOL   H18233520   7.426   2.403   0.881  1.0921 -0.0695 -0.8907
   80MOL   H18333521   7.406   2.446   0.713  2.4045  0.6999  0.5841
   80MOL   H18433522   7.348   2.204   0.680 -1.2191  0.9167  0.1827
   80MOL   H18533523   7.384   2.172   0.851 -2.0317  1.2127 -0.1379
   80MOL   H18633524   7.617   2.225   0.826  0.1270 -0.8032 -0.1184
   80MOL   H18733525   7.599   2.296   0.673  1.3711 -0.6973  1.0225
   80MOL   H18833526   7.688   2.052   0.659  0.0833  0.6727  2.4760
   80MOL   H18933527   7.526   2.082   0.573  1.1689  0.5728 -0.4707
   80MOL   H19033528   7.526   1.998   0.721 -0.1850 -3.8628 -4.5265
   80MOL   C19133529   7.228   2.611   0.929  0.0123  0.4215  0.9169
   80MOL   C19233530   7.167   2.752   0.962 -0.2610  0.7337 -0.2941
   80MOL   C19333531   7.014   2.749   1.005  0.4335  0.1150  0.0268
   80MOL   C19433532   6.941   2.886   0.983  0.4382  0.7437  0.0045
   80MOL   C19533533   6.927   2.947   0.846  0.3371  0.0344 -0.2359
   80MOL   C19633534   6.881   3.095   0.853 -0.3859 -0.7923 -0.2952
   80MOL   C19733535   6.904   3.155   0.716 -0.1475 -0.6905 -0.0677
   80MOL   H19833536   7.330   2.631   0.897 -0.3160 -1.7631 -1.6776
   80MOL   H19933537   7.222   2.542   1.013  0.9057 -0.3620  0.3534
   80MOL   H20033538   7.186   2.813   0.873  1.4149 -1.4769 -1.5189
   80MOL   H20133539   7.018   2.716   1.108 -1.1716 -2.1150 -0.5924
   80MOL   H20233540   6.950   2.690   0.939  0.7558  0.4608 -0.6041
   80MOL   H20333541   7.001   2.951   1.046 -0.1786 -0.3562  1.7660
   80MOL   H20433542   6.840   2.872   1.020  0.5394  2.5207  0.9946
   80MOL   H20533543   7.016   2.936   0.784  0.4429 -1.8718  0.2344
   80MOL   H20633544   6.852   2.885   0.797  0.3912 -0.0180 -0.2496
   80MOL   H20733545   6.941   3.142   0.932  0.3504 -1.9093 -0.1735
   80MOL   H20833546   6.777   3.095   0.886  0.1102 -0.7239  1.3540
   80MOL   H20933547   6.872   3.087   0.637  1.7680 -0.7300 -0.8353
   80MOL   H21033548   7.008   3.178   0.693 -0.7126  0.1586 -1.8048
   80MOL   H21133549   6.844   3.244   0.698  2.4689  1.2434  0.4503
   80MOL   C21233550   7.252   2.816   1.078  0.0425 -0.4949 -0.9216
   80MOL   C21333551   7.362   2.905   1.019  0.0723 -0.2525 -0.5096
   80MOL   C21433552   7.298   3.040   0.970 -0.7186 -0.2113 -0.1114
   80MOL   C21533553   7.388   3.106   0.867  0.1065  0.1686  0.1052
   80MOL   C21633554   7.333   3.242   0.819 -0.2414 -0.1740  0.1746
   80MOL   C21733555   7.420   3.291   0.701  1.2444  0.5743 -0.5907
   80MOL   C21833556   7.367   3.415   0.635 -0.0416  0.4438  0.1703
   80MOL   H21933557   7.298   2.733   1.132 -0.8120 -1.7250 -2.0296
   80MOL   H22033558   7.187   2.862   1.152  0.9462  1.6979 -1.4757
   80MOL   H22133559   7.407   2.840   0.944 -0.2281 -0.7930 -0.2252
   80MOL   H22233560   7.195   3.040   0.934 -1.5583  1.0046  2.1620
   80MOL   H22333561   7.285   3.100   1.060 -0.3795 -0.7898  0.3305
   80MOL   H22433562   7.390   3.050   0.773 -3.1878  0.7416 -0.3969
   80MOL   H22533563   7.491   3.108   0.900 -0.1709  0.7118  0.9465
   80MOL   H22633564   7.228   3.238   0.788 -0.7939  1.8661  1.6761
   80MOL   H22733565   7.347   3.310   0.903  0.0667 -0.4007  0.3069
   80MOL   H22833566   7.524   3.298   0.732  1.4524 -0.4367 -1.0326
   80MOL   H22933567   7.422   3.214   0.624  2.0347  0.1505 -0.1510
   80MOL   H23033568   7.440   3.464   0.571  0.3670  2.4347  2.1273
   80MOL   H23133569   7.331   3.493   0.702 -0.1288  2.0195 -1.6606
   80MOL   H23233570   7.278   3.393   0.577 -1.0042  0.0924  1.7500
   80MOL   C23333571   7.478   2.934   1.116 -0.6996  0.1855  0.0010
   80MOL   C23433572   7.609   2.861   1.095  0.2261  0.7957  0.7027
   80MOL   C23533573   0.016   2.912   1.172  0.6995  0.3085  0.0780
   80MOL   C23633574   0.016   2.888   1.334  0.1613 -0.2963  0.2539
   80MOL   C23733575   0.156   2.913   1.394  0.1829 -0.1243 -0.6017
   80MOL   C23833576   0.148   2.879   1.547  0.6896  0.2576 -0.4182
   80MOL   C23933577   0.277   2.907   1.628  0.4161 -0.2071  0.7108
   80MOL   H24033578   7.450   2.930   1.222 -0.8465 -1.6479 -0.0793
   80MOL   H24133579   7.503   3.040   1.114 -0.2075  0.1238  1.8845
   80MOL   H24233580   7.642   2.891   0.995  0.0579  0.6571  0.6055
   80MOL   H24333581   0.028   3.020   1.157  0.5037  0.4705  1.0607
   80MOL   H24433582   0.105   2.869   1.126  0.8080 -0.4595  0.9945
   80MOL   H24533583   7.697   2.785   1.351 -0.2293 -0.3794 -0.9518
   80MOL   H24633584   7.655   2.949   1.384 -1.0086 -1.7755  0.3351
   80MOL   H24733585   0.182   3.016   1.370 -2.4349  0.6125 -0.4356
   80MOL   H24833586   0.222   2.842   1.344  0.1937 -0.2190 -0.4529
   80MOL   H24933587   0.064   2.933   1.591  0.3955 -1.1698  0.7868
   80MOL   H25033588   0.127   2.773   1.557 -1.0989  0.7198  1.0784
   80MOL   H25133589   0.298   3.013   1.619 -2.0140  0.1082 -1.9255
   80MOL   H25233590   0.254   2.878   1.731 -1.4208 -0.3925  0.2616
   80MOL   H25333591   0.370   2.857   1.602  0.3736 -0.6240  1.3366
   80MOL   C25433592   7.597   2.704   1.118 -0.5605 -0.1886  0.5304
   80MOL   C25533593   0.007   2.616   1.080 -0.0877 -0.2281 -0.4720
   80MOL   C25633594   0.063   2.642   0.940  0.3375  0.3317  0.1125
   80MOL   C25733595   7.682   2.638   0.814 -0.9855  0.2367 -0.8532
   80MOL   C25833596   0.033   2.650   0.677 -0.1270  0.0890  0.5640
   80MOL   C25933597   0.095   2.790   0.649 -0.2125 -0.6939 -0.4327
   80MOL   C26033598   7.710   2.908   0.649 -0.9490 -0.3841  0.0107
   80MOL   H26133599   7.514   2.669   1.056  2.1836 -0.8878 -2.9027
   80MOL   H26233600   7.588   2.684   1.225  1.4955 -0.3578  0.6913
   80MOL   H26333601   0.081   2.648   1.153  1.0392 -0.6947 -1.3908
   80MOL   H26433602   0.134   2.563   0.915 -0.3022  0.0431 -0.7957
   80MOL   H26533603   0.127   2.730   0.931  1.1593 -0.2721  0.0034
   80MOL   H26633604   7.624   2.546   0.812  1.5821 -1.4433  0.4915
   80MOL   H26733605   7.602   2.712   0.821 -0.4364  0.9463 -2.1044
   80MOL   H26833606   7.671   2.616   0.606  0.5562 -1.1622  0.4254
   80MOL   H26933607   0.108   2.571   0.675 -1.2318 -0.9975  1.2274
   80MOL   H27033608   0.169   2.829   0.719  0.1636 -1.9285 -0.1464
   80MOL   H27133609   0.147   2.780   0.554  1.7078 -1.4673  0.6687
   80MOL   H27233610   0.036   2.989   0.589 -1.0671  0.8069  1.5010
   80MOL   H27333611   7.615   2.860   0.625 -0.9036  0.1611 -1.2607
   80MOL   H27433612   7.707   2.932   0.756  1.6555  0.3562 -0.0678
   80MOL   C27533613   7.705   2.465   1.111  0.1406 -0.2760 -0.1941
   80MOL   C27633614   7.664   2.423   1.253  0.1769  0.3221 -0.2599
   80MOL   C27733615   0.060   2.442   1.360  0.4215  0.1225 -0.2583
   80MOL   C27833616   0.037   2.469   1.508 -0.2666 -0.1681 -0.2958
   80MOL   C27933617   0.169   2.459   1.593 -0.6115  0.1254 -0.0858
   80MOL   C28033618   0.142   2.451   1.747  0.1137  0.2012  0.2653
   80MOL   C28133619   0.262   2.404   1.820 -0.4544  0.5311 -0.1139
   80MOL   H28233620   0.085   2.412   1.091  0.7286  0.3166  0.9315
   80MOL   H28333621   7.639   2.416   1.039  1.2159 -0.9414 -0.7449
   80MOL   H28433622   7.581   2.485   1.287 -0.9132 -0.7191 -0.9702
   80MOL   H28533623   0.136   2.363   1.359  2.1121  1.6174  2.6931
   80MOL   H28633624   0.113   2.531   1.327 -0.1753  1.4861  2.3361
   80MOL   H28733625   7.684   2.391   1.542  1.1583 -0.8441  0.9775
   80MOL   H28833626   7.696   2.563   1.520 -0.1810 -0.4278  2.4766
   80MOL   H28933627   0.227   2.550   1.575 -0.9029  0.1066 -1.1918
   80MOL   H29033628   0.229   2.374   1.561 -1.9107 -0.0984 -2.0113
   80MOL   H29133629   0.096   2.537   1.794 -5.3353 -1.8499 -0.9220
   80MOL   H29233630   0.074   2.366   1.752  0.3167 -0.0618 -1.3041
   80MOL   H29333631   0.263   2.423   1.928 -3.7442 -0.0907  0.0592
   80MOL   H29433632   0.353   2.446   1.778 -0.2682 -0.3527 -0.6084
   80MOL   H29533633   0.284   2.298   1.805  0.6593  1.1305 -3.0762
   80MOL   C29633634   7.616   2.270   1.247 -0.1923 -0.3893  0.3439
   80MOL   C29733635   7.489   2.234   1.167  0.1983 -0.8756 -0.0955
   80MOL   C29833636   7.380   2.339   1.174  0.1004  0.4001  0.1092
   80MOL   C29933637   7.312   2.340   1.315  0.5973 -0.3171  0.7801
   80MOL   C30033638   7.219   2.459   1.324  0.3554  0.4171 -0.0456
   80MOL   C30133639   7.160   2.472   1.464 -0.4679  0.2028  0.1997
   80MOL   C30233640   7.035   2.562   1.468  0.9092 -0.1802 -0.5253
   80MOL   H30333641   7.695   2.210   1.203  1.7108  1.2334  1.5165
   80MOL   H30433642   7.597   2.235   1.348 -1.8046 -1.4699 -0.3064
   80MOL   H30533643   7.518   2.239   1.062  0.5427 -0.3376  0.0215
   80MOL   H30633644   7.405   2.440   1.142  0.3034  0.4164  0.3194
   80MOL   H30733645   7.304   2.301   1.105 -0.2263  1.4948 -0.1461
   80MOL   H30833646   7.386   2.351   1.394 -0.4591  2.4146  1.4470
   80MOL   H30933647   7.255   2.250   1.335  0.8547 -0.4052  1.1204
   80MOL   H31033648   7.138   2.447   1.253  1.1102  0.8836 -0.9913
   80MOL   H31133649   7.283   2.545   1.303  1.2403  0.1152  1.2882
   80MOL   H31233650   7.140   2.372   1.502  1.6674 -0.9131 -1.5310
   80MOL   H31333651   7.231   2.505   1.540 -0.2664 -0.7743  0.4325
   80MOL   H31433652   6.962   2.551   1.388  1.1695 -0.7607 -0.6876
   80MOL   H31533653   6.987   2.539   1.563  1.2718 -0.7428 -0.4764
   80MOL   H31633654   7.061   2.668   1.463  1.1182 -0.2620 -1.2355
   80MOL   C31733655   7.439   2.090   1.195  1.0461 -0.1211  0.1859
   80MOL   C31833656   7.533   1.968   1.153  0.0303 -0.6798 -0.8452
   80MOL   C31933657   7.565   1.972   1.000  0.1227  0.6350 -0.0994
   80MOL   C32033658   7.614   1.839   0.951  0.0633 -0.8072  0.3886
   80MOL   C32133659   7.509   1.719   0.969  0.5614 -0.2450 -0.0616
   80MOL   C32233660   7.583   1.586   0.951  0.1559  0.1500 -0.2871
   80MOL   C32333661   7.483   1.475   0.989  0.1031  0.1226 -0.1792
   80MOL   H32433662   7.343   2.071   1.146 -0.1090 -1.1458  2.7689
   80MOL   H32533663   7.407   2.099   1.299 -0.6854  2.1157 -0.4928
   80MOL   H32633664   7.465   1.886   1.177  0.1130 -0.8532 -1.1947
   80MOL   H32733665   7.632   2.056   0.984 -2.0098  2.2141 -0.9029
   80MOL   H32833666   7.469   1.987   0.950  0.0874  0.1434 -0.1809
   80MOL   H32933667   0.003   1.827   0.985  0.1529 -0.9350  0.0792
   80MOL   H33033668   7.620   1.847   0.842 -0.1169  0.1431  0.4475
   80MOL   H33133669   7.427   1.726   0.897  0.1462  0.8034  0.5020
   80MOL   H33233670   7.482   1.721   1.075  0.3917  1.0752 -0.1220
   80MOL   H33333671   7.675   1.581   1.009  0.5961  1.2276 -0.8693
   80MOL   H33433672   7.615   1.583   0.846  1.1552 -1.5037  0.0448
   80MOL   H33533673   7.444   1.476   1.090  0.4706 -1.2547 -0.0103
   80MOL   H33633674   7.515   1.372   0.975 -0.9134 -0.2398  0.1275
   80MOL   H33733675   7.395   1.481   0.925 -0.4292 -1.1646  0.4172
   80MOL   C33833676   7.647   1.935   1.247  0.2519 -0.3447  0.1373
   80MOL   C33933677   7.624   1.919   1.399 -0.1160 -0.4027  0.7839
   80MOL   C34033678   0.040   1.921   1.477 -0.1742  0.3750  0.3780
   80MOL   C34133679   0.098   2.061   1.487 -0.4211 -0.0641  0.0181
   80MOL   C34233680   0.216   2.063   1.591  0.0049  0.0597 -0.1457
   80MOL   C34333681   0.355   2.012   1.543 -0.8418 -0.0191 -0.7968
   80MOL   C34433682   0.410   2.075   1.411 -0.5042  0.2572 -0.2192
   80MOL   H34533683   0.012   2.009   1.230 -0.5414  0.9714  1.9762
   80MOL   H34633684   7.682   1.839   1.210  2.5350  0.0253  1.3028
   80MOL   H34733685   7.564   2.006   1.427 -2.4756 -1.1090 -1.7427
   80MOL   H34833686   0.031   1.896   1.582 -1.9379 -0.5204  0.0342
   80MOL   H34933687   0.107   1.843   1.439 -2.2709 -2.1399  1.6864
   80MOL   H35033688   0.015   2.124   1.517  0.3714  0.2342  1.6212
   80MOL   H35133689   0.136   2.105   1.395 -1.0299  1.7618  0.6142
   80MOL   H35233690   0.234   2.169   1.610  0.4861 -0.1239  0.4121
   80MOL   H35333691   0.187   2.026   1.689 -0.3465  1.7018  0.3870
   80MOL   H35433692   0.421   2.034   1.626 -2.3606 -0.0415  0.4344
   80MOL   H35533693   0.350   1.903   1.540  2.3076 -0.2231 -0.5172
   80MOL   H35633694   0.332   2.077   1.336 -0.9303 -1.6796  0.1604
   80MOL   H35733695   0.491   2.010   1.378  0.2654  1.0818  0.0240
   80MOL   H35833696   0.447   2.177   1.421  1.9910 -0.4847 -1.5317
   80MOL   C35933697   7.540   1.784   1.431 -0.1358 -0.2904 -0.4577
   80MOL   C36033698   7.483   1.771   1.575 -0.7193  0.4798  0.7966
   80MOL   C36133699   7.398   1.899   1.606  0.3172  0.1340  0.8461
   80MOL   C36233700   7.465   2.008   1.696  0.4652  0.0348 -0.0244
   80MOL   C36333701   7.380   2.132   1.708  0.3782  0.1591 -0.5722
   80MOL   C36433702   7.439   2.244   1.797  0.6991  0.0605  0.3107
   80MOL   C36533703   7.333   2.342   1.842 -0.3406  0.8850  0.6627
   80MOL   H36633704   7.595   1.693   1.406 -0.9392 -0.6257 -1.0317
   80MOL   H36733705   7.455   1.773   1.363 -0.4957 -0.3706  0.0068
   80MOL   H36833706   7.557   1.745   1.650  0.0679  0.5513  0.0427
   80MOL   H36933707   7.360   1.945   1.514  1.8939 -1.1215 -0.4617
   80MOL   H37033708   7.318   1.865   1.672 -1.3589  0.6803 -0.8662
   80MOL   H37133709   7.481   1.966   1.796  2.5518  0.0572 -0.3398
   80MOL   H37233710   7.566   2.031   1.662  0.2908 -0.7231 -1.0783
   80MOL   H37333711   7.362   2.170   1.607  0.8878  2.7507  0.2697
   80MOL   H37433712   7.283   2.099   1.746  0.1377  0.8529 -0.5640
   80MOL   H37533713   7.486   2.194   1.883 -0.1282 -1.9617 -0.3707
   80MOL   H37633714   7.514   2.294   1.736  1.2695 -2.0349 -0.7609
   80MOL   H37733715   7.245   2.280   1.861  0.9791 -1.2516 -0.0689
   80MOL   H37833716   7.362   2.393   1.934  2.1829 -1.3286  1.1389
   80MOL   H37933717   7.310   2.428   1.777 -1.9980  1.3080  1.7777
   80MOL   C38033718   7.391   1.650   1.589 -0.5805  0.1438  0.3825
   80MOL   C38133719   7.386   1.592   1.738  0.3754  0.0784 -0.0831
   80MOL   C38233720   7.251   1.541   1.762  0.5456  0.0179  0.4005
   80MOL   C38333721   7.233   1.478   1.905 -0.0730 -0.1400  0.4016
   80MOL   C38433722   7.085   1.483   1.950 -0.4569 -1.0827  0.1050
   80MOL   C38533723   7.013   1.348   1.918 -0.3817 -0.3330 -0.2069
   80MOL   C38633724   6.865   1.347   1.902  0.0676  0.1108  0.0406
   80MOL   H38733725   7.293   1.685   1.557 -0.4599  2.3039  2.2636
   80MOL   H38833726   7.423   1.581   1.511  2.3979  0.4615  1.2772
   80MOL   H38933727   7.401   1.666   1.816 -0.6485 -2.1903  2.3147
   80MOL   H39033728   7.226   1.472   1.681  1.9136  0.6074 -0.5521
   80MOL   H39133729   7.180   1.624   1.755  1.9849  1.3092  0.7222
   80MOL   H39233730   7.280   1.382   1.927  1.6851  0.6549  0.1885
   80MOL   H39333731   7.281   1.554   1.967  2.0441 -0.8373 -0.3356
   80MOL   H39433732   7.084   1.493   2.059 -2.7017 -1.0440  0.1047
   80MOL   H39533733   7.028   1.569   1.915 -0.3180 -1.0132  0.0503
   80MOL   H39633734   7.043   1.279   1.997 -1.1548  1.5467  1.7925
   80MOL   H39733735   7.049   1.304   1.825  0.5167 -0.4505  0.1837
   80MOL   H39833736   6.845   1.418   1.822 -0.5127  0.5591  0.5808
   80MOL   H39933737   6.828   1.364   2.003 -1.9131 -1.9572 -0.2981
   80MOL   H40033738   6.832   1.246   1.875  0.4162  0.2900 -1.0861
   80MOL   C40133739   7.498   1.477   1.749  0.3508 -0.4226 -0.0558
   80MOL   C40233740   7.640   1.524   1.725  0.0551  0.0066 -0.2932
   80MOL   C40333741   0.019   1.408   1.749  0.4753 -0.1246 -0.2088
   80MOL   C40433742   0.163   1.448   1.720  1.3501  0.2365  0.3967
   80MOL   C40533743   0.228   1.508   1.844 -0.3753  0.1575  0.4723
   80MOL   C40633744   0.357   1.590   1.808 -0.0951  0.0003 -0.0606
   80MOL   C40733745   0.438   1.619   1.929  0.0168 -0.0748  0.5348
   80MOL   H40833746   7.469   1.392   1.687  1.5680 -1.6136  0.9758
   80MOL   H40933747   7.487   1.445   1.853  0.7066 -0.7810 -0.1266
   80MOL   H41033748   7.670   1.611   1.783 -1.1597  0.2608 -0.0336
   80MOL   H41133749   0.010   1.331   1.672  0.6291 -1.5095  1.1431
   80MOL   H41233750   0.009   1.358   1.845 -1.5850 -0.4453 -0.5754
   80MOL   H41333751   0.164   1.512   1.632 -1.9186  1.6769  1.3304
   80MOL   H41433752   0.221   1.359   1.696  0.6350 -0.2360  0.3986
   80MOL   H41533753   0.157   1.579   1.887 -1.5460  0.0883 -1.3110
   80MOL   H41633754   0.256   1.428   1.912 -3.3833  0.4136  2.0898
   80MOL   H41733755   0.417   1.531   1.739 -1.8795 -1.6692 -0.2361
   80MOL   H41833756   0.337   1.682   1.752  0.9316 -0.9186 -1.9783
   80MOL   H41933757   0.377   1.701   1.968 -2.4607 -0.3510 -2.5294
   80MOL   H42033758   0.542   1.641   1.907 -0.4462 -0.1849 -1.9570
   80MOL   H42133759   0.440   1.545   2.009 -0.4904  2.3431  2.8629
   80MOL   H42233760   7.649   1.558   1.622 -0.7965 -0.0397 -0.3858
   81MOL     C133761   3.889   2.419   7.336 -0.0260  0.6225 -0.1476
   81MOL     C233762   3.990   2.468   7.230 -0.5453  0.7625 -0.0543
   81MOL     C333763   3.918   2.497   7.096 -0.1017 -0.2878  0.6723
   81MOL     C433764   3.963   2.625   7.020 -0.0974  0.0792 -0.0437
   81MOL     C533765   3.870   2.661   6.899 -0.8112 -0.4168  0.4849
   81MOL     C633766   3.903   2.792   6.814  0.1195  0.3949 -0.0065
   81MOL     C733767   4.039   2.791   6.737  0.2922 -0.0670  0.1825
   81MOL     H833768   3.834   2.499   7.385 -1.6253 -0.3322 -0.3588
   81MOL     H933769   3.937   2.364   7.417  0.3443 -0.3844 -1.0389
   81MOL    H1033770   4.033   2.560   7.270  1.4096  0.0567 -0.4877
   81MOL    H1133771   3.938   2.409   7.035 -1.9375  0.3586 -0.9293
   81MOL    H1233772   3.809   2.496   7.109  0.1153 -0.0327  2.7245
   81MOL    H1333773   3.963   2.716   7.079  1.9103  0.2389 -0.2633
   81MOL    H1433774   4.070   2.625   6.998  0.3109  0.0450  1.9032
   81MOL    H1533775   3.763   2.661   6.920 -0.8327 -0.3064  0.3738
   81MOL    H1633776   3.872   2.577   6.830 -1.0796 -1.0948  1.3032
   81MOL    H1733777   3.891   2.873   6.887  0.5662  0.7861 -0.3668
   81MOL    H1833778   3.825   2.821   6.743 -0.2281 -0.9409 -0.1866
   81MOL    H1933779   4.062   2.702   6.677  1.7872  1.6375 -1.8716
   81MOL    H2033780   4.114   2.785   6.815 -0.4451  1.9662  1.0727
   81MOL    H2133781   4.061   2.873   6.668 -1.9933  1.4697  1.2622
   81MOL    H2233782   3.812   2.358   7.288  0.6125 -0.0688 -0.3097
   81MOL    C2333783   4.109   2.362   7.233  0.7275  0.0330  0.5313
   81MOL    C2433784   4.241   2.409   7.170  0.2795  0.6293  0.7292
   81MOL    C2533785   4.311   2.279   7.123  0.2456  0.5616  0.1150
   81MOL    C2633786   4.251   2.230   6.987  0.0669 -1.2851 -1.0576
   81MOL    C2733787   4.313   2.095   6.951  0.3477  0.4101  0.5404
   81MOL    C2833788   4.288   2.057   6.802  0.4042  0.0773  0.3544
   81MOL    C2933789   4.142   2.033   6.774 -0.8320 -0.2460  0.4106
   81MOL    H3033790   4.131   2.339   7.337  0.3847  1.2285  0.8751
   81MOL    H3133791   4.072   2.272   7.183 -0.9001  1.7950 -1.5085
   81MOL    H3233792   4.205   2.461   7.081  0.3324 -0.0671  0.2898
   81MOL    H3333793   4.308   2.196   7.194 -1.9412 -1.6399 -2.4264
   81MOL    H3433794   4.417   2.300   7.113 -0.1035  2.2916 -0.0971
   81MOL    H3533795   4.293   2.292   6.908  0.1296 -0.3787 -0.3295
   81MOL    H3633796   4.142   2.226   6.987 -0.0499  0.5930  1.7743
   81MOL    H3733797   4.264   2.012   7.001 -0.4867 -0.4734 -1.6581
   81MOL    H3833798   4.421   2.089   6.960  0.3859  0.8385  0.3730
   81MOL    H3933799   4.346   1.966   6.789  1.4693  0.5705  1.5683
   81MOL    H4033800   4.336   2.126   6.734  0.8943 -0.8657 -0.2623
   81MOL    H4133801   4.103   1.960   6.846 -0.2049 -0.8988  0.1057
   81MOL    H4233802   4.077   2.116   6.797 -0.0396  0.2089  1.0492
   81MOL    H4333803   4.114   2.003   6.673  0.0697  0.8731 -0.1825
   81MOL    C4433804   4.325   2.510   7.263  0.5974  0.6428  0.0671
   81MOL    C4533805   4.456   2.577   7.205 -0.0774 -0.1066  0.2002
   81MOL    C4633806   4.414   2.660   7.076  0.0855 -0.0546 -0.1757
   81MOL    C4733807   4.529   2.742   7.016  0.4028 -0.1010  0.2517
   81MOL    C4833808   4.491   2.805   6.882  0.0633 -0.1663  0.3380
   81MOL    C4933809   4.600   2.886   6.818  0.1709  0.1031  0.9096
   81MOL    C5033810   4.569   2.910   6.668  0.6467 -0.0048 -0.5534
   81MOL    H5133811   4.364   2.447   7.344  1.4463  1.9219  0.6864
   81MOL    H5233812   4.262   2.589   7.304  1.8957  1.6414  0.1703
   81MOL    H5333813   4.516   2.488   7.184 -0.2467 -0.4769  1.2603
   81MOL    H5433814   4.336   2.728   7.109 -0.2700  0.5238 -2.1454
   81MOL    H5533815   4.370   2.605   6.993 -3.0514  1.4369  0.4358
   81MOL    H5633816   4.540   2.826   7.084 -0.2725 -0.9170  1.3963
   81MOL    H5733817   4.623   2.692   6.993  1.0052  0.5431  1.2587
   81MOL    H5833818   4.402   2.869   6.885  0.8083  1.0775 -2.5415
   81MOL    H5933819   4.455   2.723   6.820 -0.6283  0.0390  0.4563
   81MOL    H6033820   4.697   2.838   6.829  1.2462  1.4139 -2.1807
   81MOL    H6133821   4.600   2.979   6.874  0.2253 -0.4297  1.7979
   81MOL    H6233822   4.621   2.997   6.627 -0.0842  0.7407  0.0817
   81MOL    H6333823   4.462   2.930   6.668  0.5431 -0.5674  0.3935
   81MOL    H6433824   4.579   2.825   6.601 -0.0242  0.1892 -0.9115
   81MOL    C6533825   4.524   2.668   7.311 -0.1495  0.2182 -0.1419
   81MOL    C6633826   4.602   2.597   7.427  0.0958 -0.5490 -0.4772
   81MOL    C6733827   4.636   2.705   7.536  0.5397  0.8720  0.2167
   81MOL    C6833828   4.525   2.741   7.632  0.3257  0.1518 -0.0625
   81MOL    C6933829   4.561   2.868   0.011 -0.4893 -0.2555 -0.1614
   81MOL    C7033830   4.478   2.993   7.705  0.3606  0.1907 -0.3052
   81MOL    C7133831   4.507   3.102   0.093  0.3781 -0.3478  1.3325
   81MOL    H7233832   4.598   2.738   7.273  0.0766 -0.1808 -0.4306
   81MOL    H7333833   4.442   2.733   7.341 -0.5397 -0.9696  1.4487
   81MOL    H7433834   4.544   2.510   7.456  2.3545 -1.6103  1.0414
   81MOL    H7533835   4.730   2.673   7.581  0.7239  0.4982 -0.4301
   81MOL    H7633836   4.656   2.800   7.487 -0.9461  0.6425 -0.8923
   81MOL    H7733837   4.434   2.765   7.578  0.0194 -1.3402 -0.2252
   81MOL    H7833838   4.514   2.654   7.696 -1.0643 -0.4965 -1.1680
   81MOL    H7933839   4.523   2.847   0.111 -1.2895 -1.3053 -0.6674
   81MOL    H8033840   4.668   2.882   0.024 -0.6871 -1.2243  3.0007
   81MOL    H8133841   4.374   2.964   0.007  0.5007  0.2109  0.7394
   81MOL    H8233842   4.482   3.031   7.603 -0.6912  1.9061  0.2706
   81MOL    H8333843   4.615   3.116   0.096  0.2223  0.7103  2.4417
   81MOL    H8433844   4.478   3.200   0.054  0.7355 -1.0886 -0.8296
   81MOL    H8533845   4.472   3.094   0.196  2.2928  1.7473  2.1847
   81MOL    C8633846   4.733   2.542   7.361  0.3668  0.0155  0.2541
   81MOL    C8733847   4.809   2.429   7.438  0.8954 -0.6845  0.1197
   81MOL    C8833848   4.726   2.305   7.444 -0.1210  0.0514  0.7569
   81MOL    C8933849   4.724   2.222   7.310 -0.0104 -0.0460 -0.2854
   81MOL    C9033850   4.679   2.076   7.341 -0.5576 -0.1065 -0.2026
   81MOL    C9133851   4.655   1.989   7.216 -0.7818 -0.1463 -0.2259
   81MOL    C9233852   4.773   1.983   7.116 -0.1020 -0.1764  0.1035
   81MOL    H9333853   4.717   2.511   7.258 -0.3120 -0.8889  0.6243
   81MOL    H9433854   4.809   2.620   7.361  1.0700 -0.6589  0.6210
   81MOL    H9533855   4.809   2.467   7.541  0.0662 -0.9002  0.2096
   81MOL    H9633856   4.780   2.250   7.521  2.4698  0.5444 -0.6446
   81MOL    H9733857   4.627   2.314   7.489  0.1810 -1.0615  1.6668
   81MOL    H9833858   4.650   2.264   7.242 -1.2011  0.3612  1.2221
   81MOL    H9933859   4.823   2.211   7.266  0.0477  0.6275 -0.3256
   81MOL   H10033860   4.583   2.085   7.393 -0.4359  3.1170 -0.4470
   81MOL   H10133861   4.755   2.033   7.406 -1.0607 -0.4934  0.1365
   81MOL   H10233862   4.623   1.887   7.236 -1.5794 -0.0243 -0.8079
   81MOL   H10333863   4.563   2.024   7.169  0.0978 -0.6852 -2.4506
   81MOL   H10433864   4.756   1.929   7.023 -1.3797 -1.4559  1.0542
   81MOL   H10533865   4.863   1.930   7.146  0.4367 -0.5711 -2.0752
   81MOL   H10633866   4.805   2.078   7.072  0.4247  1.2528  3.4033
   81MOL   C10733867   4.955   2.421   7.388  0.5982  0.2228 -0.0057
   81MOL   C10833868   5.050   2.306   7.452 -0.0248 -0.1013  0.4506
   81MOL   C10933869   5.188   2.279   7.368 -0.5254  0.1853  0.0109
   81MOL   C11033870   5.188   2.229   7.224  0.2327  0.0443  0.4785
   81MOL   C11133871   5.320   2.234   7.158 -0.7766 -0.4352 -0.1271
   81MOL   C11233872   5.314   2.190   7.018 -0.6871 -0.0663  0.7159
   81MOL   C11333873   5.452   2.177   6.946 -0.1022 -0.1502  0.0323
   81MOL   H11433874   5.012   2.514   7.384 -0.0532  0.5724 -1.9726
   81MOL   H11533875   4.944   2.406   7.280 -3.4371  2.8605 -0.0452
   81MOL   H11633876   4.991   2.215   7.441 -0.6454  0.4949 -1.4261
   81MOL   H11733877   5.253   2.212   7.423  1.6240 -1.4394 -4.2583
   81MOL   H11833878   5.239   2.375   7.367 -3.1077  1.6317 -2.6771
   81MOL   H11933879   5.145   2.129   7.218  1.3414 -0.3612 -0.9490
   81MOL   H12033880   5.118   2.278   7.157  0.5713 -0.6531 -0.3910
   81MOL   H12133881   5.402   2.179   7.203  0.2186  2.1266  1.2807
   81MOL   H12233882   5.358   2.336   7.165  1.4687 -1.3322  1.3647
   81MOL   H12333883   5.267   2.092   7.007  0.2917 -0.5838  1.0796
   81MOL   H12433884   5.261   2.268   6.964 -2.1016 -0.5262  1.4315
   81MOL   H12533885   5.511   2.105   7.001  1.0378  2.0655  1.8000
   81MOL   H12633886   5.449   2.149   6.841 -3.6025 -1.6133  0.4560
   81MOL   H12733887   5.510   2.269   6.939 -0.1592 -0.1277 -0.1638
   81MOL   C12833888   5.070   2.338   7.606 -0.0344 -0.1119 -0.5574
   81MOL   C12933889   5.114   2.219   7.696  0.5448  0.0566  0.1583
   81MOL   C13033890   5.023   2.093   7.701  0.3315 -0.0768 -0.0962
   81MOL   C13133891   4.887   2.120   0.054  0.0702 -0.4711 -0.0182
   81MOL   C13233892   4.795   1.995   0.020 -0.2938 -0.5461  0.2063
   81MOL   C13333893   4.652   2.002   0.069 -0.0566 -0.2936  0.2692
   81MOL   C13433894   4.632   2.059   0.214 -0.1165  0.0224 -0.7328
   81MOL   H13533895   5.146   2.416   7.608  1.1475 -1.2511  0.6323
   81MOL   H13633896   4.987   2.385   7.659  1.4301  0.2349  1.5052
   81MOL   H13733897   5.204   2.186   7.645 -0.7581  0.3561 -2.4347
   81MOL   H13833898   5.077   2.014   0.041 -1.3822 -1.1521  0.0612
   81MOL   H13933899   5.008   2.056   7.600  0.5725  0.7372 -0.4357
   81MOL   H14033900   4.844   2.212   0.015  0.9177  1.6619  3.7812
   81MOL   H14133901   4.900   2.141   0.161 -1.7880 -0.9853  0.3253
   81MOL   H14233902   4.844   1.912   0.071  1.9304 -0.9134 -2.3915
   81MOL   H14333903   4.810   1.982   7.626 -1.1269 -0.8199  0.1208
   81MOL   H14433904   4.621   1.899   0.051  0.1075  0.1498 -2.9637
   81MOL   H14533905   4.588   2.063   0.005 -1.7805 -0.8972  1.3897
   81MOL   H14633906   4.528   2.072   0.245  0.2851 -0.0564  0.6764
   81MOL   H14733907   4.669   2.160   0.233  2.9151 -1.5768  2.2988
   81MOL   H14833908   4.676   2.000   0.295 -0.8448  1.8182  1.0272
   81MOL   C14933909   5.177   2.260   0.117 -0.0354 -0.3249 -0.2372
   81MOL   C15033910   5.304   2.357   0.111 -0.3756  0.5522  0.2709
   81MOL   C15133911   5.426   2.287   0.058  0.0841 -0.8493  0.3058
   81MOL   C15233912   5.478   2.173   0.142  0.3365  0.1860 -0.3245
   81MOL   C15333913   5.615   2.118   0.093 -0.0651  0.2142 -0.1618
   81MOL   C15433914   5.698   2.044   0.190 -0.0740  0.0851  0.4974
   81MOL   C15533915   5.840   2.052   0.143 -0.2662  0.8121  0.3525
   81MOL   H15633916   5.094   2.308   0.170 -0.2858  0.3038 -1.1895
   81MOL   H15733917   5.200   2.166   0.166 -0.3635 -1.2043 -1.7504
   81MOL   H15833918   5.261   2.435   0.049 -0.5557 -1.0588 -1.6560
   81MOL   H15933919   5.405   2.249   7.672  1.9860  1.1799 -0.9127
   81MOL   H16033920   5.509   2.356   0.045 -0.7986 -0.0580 -1.3119
   81MOL   H16133921   5.401   2.096   0.141  2.9237 -2.4879 -1.5145
   81MOL   H16233922   5.496   2.205   0.245  1.0251 -0.8794 -0.1078
   81MOL   H16333923   5.667   2.210   0.065  0.1729 -0.4417 -1.9389
   81MOL   H16433924   5.623   2.069   7.709  0.0969 -1.9362  0.9170
   81MOL   H16533925   5.665   1.940   0.198  4.2501 -1.2665  2.0645
   81MOL   H16633926   5.699   2.088   0.290 -0.3195  1.6103 -0.1554
   81MOL   H16733927   5.898   1.996   0.217  1.8874  0.7083 -1.3696
   81MOL   H16833928   5.873   2.154   0.127 -1.5913  1.3023  0.7146
   81MOL   H16933929   5.853   1.997   0.050  1.7283 -0.4736  1.3347
   81MOL   C17033930   5.326   2.420   0.258 -0.5434 -0.2178 -0.7872
   81MOL   C17133931   5.450   2.511   0.272  1.0454 -0.0486  0.1792
   81MOL   C17233932   5.429   2.642   0.186 -0.1181 -0.2910  0.2304
   81MOL   C17333933   5.564   2.710   0.140 -0.2830 -0.1956 -1.0964
   81MOL   C17433934   5.527   2.804   0.026  1.7587  0.5946  0.2381
   81MOL   C17533935   5.636   2.896   7.680  0.0093 -0.1867  0.1917
   81MOL   C17633936   5.685   3.009   0.047  0.1391  0.9527  0.6180
   81MOL   H17733937   5.345   2.334   0.322 -1.8801  0.4455  0.5310
   81MOL   H17833938   5.231   2.463   0.291  0.5196 -0.2803  2.5922
   81MOL   H17933939   5.544   2.465   0.241  1.2370 -0.2296  1.0031
   81MOL   H18033940   5.378   2.724   0.236 -3.8424 -1.1042 -2.0245
   81MOL   H18133941   5.370   2.622   0.096  1.8172 -0.2442 -1.0902
   81MOL   H18233942   5.631   2.632   0.104 -2.5803 -2.7714  0.0476
   81MOL   H18333943   5.618   2.759   0.222  0.0692 -1.6251 -0.4675
   81MOL   H18433944   5.457   2.872   0.074  0.5341 -1.1890  1.0410
   81MOL   H18533945   5.482   2.749   7.657  0.4978  1.3684  0.4014
   81MOL   H18633946   5.589   2.931   7.589 -1.4262 -2.7325 -0.1117
   81MOL   H18733947   5.722   2.839   7.647 -0.1047  0.7191 -1.7238
   81MOL   H18833948   5.733   2.968   0.136 -0.3602 -1.3505 -0.1587
   81MOL   H18933949   5.596   3.066   0.074  0.0655  1.1657 -0.0768
   81MOL   H19033950   5.765   3.071   0.006  0.5048  1.5358  2.1541
   81MOL   C19133951   5.481   2.554   0.413  0.4118  0.0427 -0.6151
   81MOL   C19233952   5.530   2.436   0.504  0.6847 -0.6320  0.3802
   81MOL   C19333953   5.659   2.483   0.572 -0.2321 -1.0989 -0.5637
   81MOL   C19433954   5.791   2.463   0.499 -0.3983  0.2240 -0.4027
   81MOL   C19533955   5.817   2.563   0.386  0.5245 -0.0206  0.7556
   81MOL   C19633956   5.960   2.561   0.335 -0.1802 -0.4902  0.4591
   81MOL   C19733957   5.965   2.652   0.218  1.4695  0.0016 -0.0877
   81MOL   H19833958   5.392   2.605   0.450  1.2564  1.2904 -0.2433
   81MOL   H19933959   5.555   2.635   0.421 -0.8985  1.6707 -4.0413
   81MOL   H20033960   5.560   2.352   0.441  0.9016 -0.0832 -0.2523
   81MOL   H20133961   5.664   2.425   0.665 -0.2586 -0.5373 -0.2090
   81MOL   H20233962   5.662   2.582   0.617  0.0525 -2.2320  2.0337
   81MOL   H20333963   5.781   2.364   0.455 -1.1101  0.1119 -0.0099
   81MOL   H20433964   5.875   2.451   0.567 -1.5856 -0.9932  0.9123
   81MOL   H20533965   5.744   2.535   0.310  1.6171  0.5054 -0.5049
   81MOL   H20633966   5.796   2.667   0.410  1.7932  0.8197 -1.7456
   81MOL   H20733967   5.994   2.465   0.295  2.0949  0.6105 -0.3018
   81MOL   H20833968   6.024   2.578   0.421 -1.2031  2.4456  0.7040
   81MOL   H20933969   5.942   2.756   0.243  0.9574 -1.1865  4.9729
   81MOL   H21033970   5.900   2.613   0.140  0.2484  2.1019 -0.1884
   81MOL   H21133971   6.061   2.648   0.167  1.1052  3.2192 -1.1605
   81MOL   C21233972   5.426   2.375   0.599  0.1428 -0.3593  0.1949
   81MOL   C21333973   5.463   2.243   0.667 -0.3158 -0.3087  0.1364
   81MOL   C21433974   5.353   2.210   0.767 -0.8228  0.3484 -0.0609
   81MOL   C21533975   5.375   2.287   0.898 -0.1900  0.1192  0.1571
   81MOL   C21633976   5.282   2.239   1.014  0.0633  0.4163 -0.1859
   81MOL   C21733977   5.319   2.098   1.070  0.1055  0.1313  0.7138
   81MOL   C21833978   5.223   2.063   1.181  0.4116 -0.8094  0.2479
   81MOL   H21933979   5.332   2.366   0.543 -0.3394  0.4175  0.8676
   81MOL   H22033980   5.405   2.466   0.655 -2.0031 -0.6198 -0.1271
   81MOL   H22133981   5.549   2.252   0.733  0.3226 -0.3740 -0.6833
   81MOL   H22233982   5.252   2.210   0.728 -1.2761  0.4100  1.0845
   81MOL   H22333983   5.372   2.107   0.799  2.3768  0.8710 -0.1127
   81MOL   H22433984   5.374   2.396   0.888  0.1625  0.1090 -0.0080
   81MOL   H22533985   5.479   2.283   0.930  0.4404  1.6110 -1.5573
   81MOL   H22633986   5.296   2.318   1.088  1.5454  0.4494 -0.4688
   81MOL   H22733987   5.176   2.237   0.993 -0.6122 -3.4203  3.1035
   81MOL   H22833988   5.325   2.019   0.995 -0.6502 -1.8795  2.7359
   81MOL   H22933989   5.420   2.115   1.107 -0.0171 -0.3303  1.2670
   81MOL   H23033990   5.205   2.148   1.248 -0.8529 -0.0307 -1.0601
   81MOL   H23133991   5.259   1.975   1.236 -1.9715 -0.7294  2.0244
   81MOL   H23233992   5.126   2.041   1.138 -0.0905  1.2959  0.2616
   81MOL   C23333993   5.491   2.130   0.562 -0.3952  0.4575 -0.2922
   81MOL   C23433994   5.551   1.997   0.612 -0.1086 -0.4262  0.1703
   81MOL   C23533995   5.544   1.884   0.507  0.1372 -0.1339  0.0813
   81MOL   C23633996   5.410   1.860   0.427 -1.1584  1.1050  0.0660
   81MOL   C23733997   5.398   1.732   0.347 -0.3525  0.0528  0.4591
   81MOL   C23833998   5.448   1.604   0.422 -0.2242  0.2740 -0.0786
   81MOL   C23933999   5.426   1.474   0.354 -0.3372 -0.1540 -0.2756
   81MOL   H24034000   5.567   2.158   0.489  0.4241  0.8701  0.7018
   81MOL   H24134001   5.403   2.110   0.501 -0.5388 -0.1950  0.1283
   81MOL   H24234002   5.486   1.976   0.697  0.1256  0.0235  0.4590
   81MOL   H24334003   5.571   1.789   0.552  0.8393 -0.3828 -0.8408
   81MOL   H24434004   5.623   1.896   0.432  0.2961 -1.3583  0.0428
   81MOL   H24534005   5.392   1.948   0.365 -2.1440  1.2065  0.4882
   81MOL   H24634006   5.331   1.856   0.503  0.4758 -2.4795  1.6839
   81MOL   H24734007   5.462   1.749   0.261  2.0133 -1.7841  1.7948
   81MOL   H24834008   5.297   1.727   0.305  0.2908  0.8147 -1.2196
   81MOL   H24934009   5.554   1.600   0.448  0.1453 -0.8926 -1.6466
   81MOL   H25034010   5.392   1.582   0.512 -1.3210  0.6385 -0.6623
   81MOL   H25134011   5.488   1.451   0.267 -0.4263 -0.0439 -0.3678
   81MOL   H25234012   5.452   1.389   0.417  0.1235  0.2803  0.1299
   81MOL   H25334013   5.321   1.466   0.325 -0.4756 -0.0250  0.1829
   81MOL   C25434014   5.703   2.026   0.658  0.1733 -0.0187  0.6170
   81MOL   C25534015   5.773   1.913   0.742  0.2318 -0.5022 -0.5171
   81MOL   C25634016   5.717   1.910   0.890 -0.0761  0.5002  0.1439
   81MOL   C25734017   5.720   1.766   0.951  0.0721  0.5633  0.0389
   81MOL   C25834018   5.730   1.771   1.098 -0.0800  0.7251 -0.5052
   81MOL   C25934019   5.873   1.790   1.161  0.1519 -0.2379  0.7717
   81MOL   C26034020   5.883   1.728   1.294  1.0871  0.1715  0.3001
   81MOL   H26134021   5.712   2.122   0.710  1.8462 -0.3820  1.0357
   81MOL   H26234022   5.761   2.044   0.568 -0.5327  0.5285  0.2649
   81MOL   H26334023   5.738   1.820   0.698  0.4934 -0.0195 -1.7635
   81MOL   H26434024   5.614   1.945   0.901 -0.5945 -0.4489 -1.6190
   81MOL   H26534025   5.778   1.982   0.946 -0.3585 -0.6375  1.9391
   81MOL   H26634026   5.633   1.710   0.919 -0.0957 -0.5443  2.3362
   81MOL   H26734027   5.812   1.714   0.924 -0.6601 -0.4869 -0.4563
   81MOL   H26834028   5.692   1.676   1.137  2.9201  0.7122  2.6019
   81MOL   H26934029   5.656   1.841   1.137  1.4042  1.8062  0.3949
   81MOL   H27034030   5.948   1.745   1.095 -0.9789 -2.5695  1.0043
   81MOL   H27134031   5.911   1.891   1.150 -1.1666  0.3904  1.8959
   81MOL   H27234032   5.868   1.621   1.303  0.8187  0.1057 -0.7922
   81MOL   H27334033   5.986   1.742   1.329  0.4248  0.9749  1.9584
   81MOL   H27434034   5.805   1.758   1.363  0.8724  0.2728  0.0164
   81MOL   C27534035   5.925   1.928   0.747 -0.1000  0.7106  0.2582
   81MOL   C27634036   6.007   1.922   0.619  0.3426  0.8144 -0.3082
   81MOL   C27734037   5.961   1.802   0.526 -0.0064  0.1889 -0.1168
   81MOL   C27834038   5.986   1.666   0.583 -0.9021 -0.1162  0.7020
   81MOL   C27934039   5.940   1.543   0.497 -0.4543 -0.1877  0.1127
   81MOL   C28034040   6.045   1.499   0.389 -0.1493  0.1193 -0.6062
   81MOL   C28134041   6.019   1.358   0.326 -0.4618  0.3008  0.0190
   81MOL   H28234042   5.966   1.846   0.806  1.1467 -0.0890 -1.6811
   81MOL   H28334043   5.952   2.022   0.796  2.5179  0.1163  0.0093
   81MOL   H28434044   5.969   2.012   0.571  0.3034  0.8678 -0.1762
   81MOL   H28534045   5.853   1.804   0.511  0.0024 -0.9000 -0.3220
   81MOL   H28634046   6.010   1.820   0.431  0.6949  1.6799  0.5033
   81MOL   H28734047   5.931   1.653   0.676 -0.2049 -0.0872  1.1233
   81MOL   H28834048   6.093   1.658   0.600 -0.1523  2.8472 -1.9888
   81MOL   H28934049   5.838   1.537   0.459 -0.1909 -0.3209 -0.5857
   81MOL   H29034050   5.942   1.464   0.573  0.2518  1.3706  1.7394
   81MOL   H29134051   6.036   1.577   0.314  3.0703  0.4204 -0.7478
   81MOL   H29234052   6.143   1.506   0.437  0.2664 -1.0389 -1.2662
   81MOL   H29334053   6.107   1.313   0.280 -2.0317 -1.1197 -1.6678
   81MOL   H29434054   5.932   1.364   0.261 -0.1604  1.9188 -0.2575
   81MOL   H29534055   6.004   1.285   0.406 -3.7379  1.2146  0.3220
   81MOL   C29634056   6.163   1.938   0.641  0.5083  0.3053 -0.5176
   81MOL   C29734057   6.243   1.960   0.514 -0.4689  0.3514 -0.0540
   81MOL   C29834058   6.389   1.992   0.554  0.3149 -0.4473  0.5046
   81MOL   C29934059   6.475   1.875   0.597 -0.3513  0.4416  0.1481
   81MOL   C30034060   6.490   1.754   0.500  0.4886 -0.1635 -0.2227
   81MOL   C30134061   6.630   1.689   0.520  0.3487  0.0483 -0.3313
   81MOL   C30234062   6.671   1.647   0.671 -0.5827 -0.0201  0.2005
   81MOL   H30334063   6.161   2.026   0.705  2.7612 -0.3331  0.4702
   81MOL   H30434064   6.204   1.858   0.703 -0.1393 -0.3239 -0.8901
   81MOL   H30534065   6.240   1.875   0.445 -1.5874 -0.3361  0.8329
   81MOL   H30634066   6.445   2.042   0.474  0.9081 -2.3518 -0.2917
   81MOL   H30734067   6.381   2.054   0.643 -1.3575  0.5252 -0.2871
   81MOL   H30834068   6.435   1.839   0.691  1.7511  1.1152  1.3258
   81MOL   H30934069   6.572   1.921   0.619 -0.6685  1.6734 -0.9299
   81MOL   H31034070   6.468   1.786   0.398 -2.3661  2.2522  1.0999
   81MOL   H31134071   6.414   1.685   0.535 -1.7057  3.6480  2.9523
   81MOL   H31234072   6.650   1.610   0.448 -0.4130  0.3545 -0.8934
   81MOL   H31334073   6.705   1.763   0.491 -0.2169  0.8677  0.2544
   81MOL   H31434074   6.776   1.617   0.675 -0.6644 -0.3231  0.1566
   81MOL   H31534075   6.656   1.733   0.736 -0.9058 -0.8702  1.2681
   81MOL   H31634076   6.612   1.559   0.699  3.0948 -2.2291  1.2744
   81MOL   C31734077   6.185   2.074   0.419 -0.8459 -0.3425  0.9986
   81MOL   C31834078   6.269   2.108   0.293 -0.1736  0.2616 -0.1203
   81MOL   C31934079   6.308   1.982   0.210 -0.2717 -0.5435  0.1248
   81MOL   C32034080   6.197   1.890   0.163  0.8132 -0.2449  0.3995
   81MOL   C32134081   6.246   1.756   0.110 -0.1176  0.1160 -0.2263
   81MOL   C32234082   6.136   1.688   0.021 -0.5207  0.2806  0.1485
   81MOL   C32334083   6.170   1.546   7.682 -0.3480 -0.5715 -0.5199
   81MOL   H32434084   6.179   2.160   0.485 -0.8607  0.2478  0.2223
   81MOL   H32534085   6.085   2.052   0.380 -0.0469 -2.5558  0.0957
   81MOL   H32634086   6.355   2.152   0.343 -0.3287  0.3893  0.0340
   81MOL   H32734087   6.387   1.941   0.274  1.0524  0.9830 -0.4975
   81MOL   H32834088   6.359   2.011   0.118  0.5790  1.1639  1.1097
   81MOL   H32934089   6.144   1.941   0.083  2.3117 -0.5553 -0.8030
   81MOL   H33034090   6.119   1.868   0.236 -1.4088 -2.6843 -2.5733
   81MOL   H33134091   6.279   1.688   0.188  0.8874 -0.2333 -0.9570
   81MOL   H33234092   6.331   1.787   0.049  0.9029 -0.5584  0.8380
   81MOL   H33334093   6.094   1.752   7.657 -1.9690  0.5612  1.1491
   81MOL   H33434094   6.037   1.679   0.066 -0.2376  0.3462  0.7957
   81MOL   H33534095   6.092   1.504   7.618 -1.6675  0.0822  0.6398
   81MOL   H33634096   6.210   1.478   0.043 -0.9238  0.5408  0.8188
   81MOL   H33734097   6.264   1.552   7.626 -0.3111  1.2006 -0.2979
   81MOL   C33834098   6.203   2.211   0.204 -0.5111 -0.1195 -0.3432
   81MOL   C33934099   6.285   2.269   0.085 -0.0949 -0.2995  0.1028
   81MOL   C34034100   6.422   2.332   0.129  0.5659 -0.3255  0.1448
   81MOL   C34134101   6.512   2.368   0.005  0.5723  0.4053  0.0400
   81MOL   C34234102   6.667   2.382   0.025  1.0196  1.0409 -0.3431
   81MOL   C34334103   6.754   2.419   7.615  0.1444  0.5205  0.8229
   81MOL   C34434104   6.907   2.397   7.631 -0.5639  0.3276  0.4237
   81MOL   H34534105   6.172   2.292   0.270  0.9041  1.1350 -1.1855
   81MOL   H34634106   6.109   2.167   0.172 -0.5073 -0.7523  0.5147
   81MOL   H34734107   6.307   2.190   0.013  1.1834 -1.9085  2.1878
   81MOL   H34834108   6.404   2.421   0.189 -0.4581 -0.5449  0.1714
   81MOL   H34934109   6.470   2.261   0.196 -1.4731 -1.6257  0.2890
   81MOL   H35034110   6.484   2.458   7.663  2.0467  0.6432 -0.3310
   81MOL   H35134111   6.487   2.290   7.646  1.1478 -1.1320  1.4682
   81MOL   H35234112   6.679   2.460   0.100  1.1590 -0.3815  1.1311
   81MOL   H35334113   6.696   2.282   0.058 -0.9315  0.3954 -0.4905
   81MOL   H35434114   6.723   2.366   7.525  1.4086  0.7849  0.2237
   81MOL   H35534115   6.735   2.525   7.597 -1.1411 -0.0964 -1.7398
   81MOL   H35634116   6.918   2.299   7.678  0.1035  1.8272  3.5199
   81MOL   H35734117   6.954   2.466   7.701  1.3022 -1.3290  0.8736
   81MOL   H35834118   6.955   2.387   7.533 -0.2580 -0.8454  0.6778
   81MOL   C35934119   6.199   2.367   0.011 -0.2128  0.0590  0.9925
   81MOL   C36034120   6.100   2.313   7.628  0.5748 -0.1088  0.2711
   81MOL   C36134121   5.970   2.403   7.624 -0.2702  0.0202 -0.2148
   81MOL   C36234122   5.851   2.353   7.553  0.3072  0.3260 -0.1378
   81MOL   C36334123   5.728   2.447   7.564 -0.2558 -0.1869  0.3507
   81MOL   C36434124   5.618   2.394   7.479 -0.1398  0.4809  0.8254
   81MOL   C36534125   5.503   2.493   7.458  0.0367  0.5265  0.1107
   81MOL   H36634126   6.272   2.423   7.666  0.9935 -3.0390 -0.6235
   81MOL   H36734127   6.163   2.436   0.087  1.0980  0.9906  0.7683
   81MOL   H36834128   6.067   2.218   7.670 -2.9636  1.6367  1.5896
   81MOL   H36934129   5.949   2.428   0.015 -2.3456  0.0546 -0.6210
   81MOL   H37034130   5.998   2.501   7.585 -0.5065  0.0902 -0.2093
   81MOL   H37134131   5.866   2.347   7.445 -0.5007  3.8868 -0.5354
   81MOL   H37234132   5.828   2.253   7.590 -0.2418  0.6773  0.4834
   81MOL   H37334133   5.690   2.458   7.665  1.5267 -1.2573  1.1792
   81MOL   H37434134   5.754   2.550   7.542  2.7371 -0.8392  0.5066
   81MOL   H37534135   5.655   2.352   7.386 -3.0314 -0.2334 -0.0569
   81MOL   H37634136   5.565   2.307   7.516 -0.3709  0.6818  0.9704
   81MOL   H37734137   5.425   2.488   7.534  0.0459 -1.0524  0.0220
   81MOL   H37834138   5.539   2.596   7.468  3.1691 -0.5020 -0.0073
   81MOL   H37934139   5.453   2.478   7.363  1.9837  1.0730 -1.0243
   81MOL   C38034140   6.157   2.286   7.481 -0.4458  0.3364  0.5492
   81MOL   C38134141   6.216   2.151   7.440  0.0400  0.9095 -0.2537
   81MOL   C38234142   6.108   2.036   7.455 -0.1188 -0.4216  0.5512
   81MOL   C38334143   5.994   2.041   7.358  0.2819  1.0658 -0.0508
   81MOL   C38434144   5.899   1.923   7.368 -0.5637  0.8525 -0.7445
   81MOL   C38534145   5.757   1.979   7.365 -0.0879 -1.0483 -0.2225
   81MOL   C38634146   5.654   1.869   7.357  0.2015 -0.2796 -0.1062
   81MOL   H38734147   6.096   2.319   7.397  0.3428  1.0898  0.2618
   81MOL   H38834148   6.243   2.351   7.466  1.0420 -1.4985  0.9705
   81MOL   H38934149   6.292   2.125   7.513  0.9942  1.1402 -1.1530
   81MOL   H39034150   6.059   2.042   7.552 -3.1711 -4.2486 -0.6670
   81MOL   H39134151   6.157   1.939   7.446  0.4526 -0.1686  0.8809
   81MOL   H39234152   5.936   2.133   7.367 -0.7917  0.1833  2.6634
   81MOL   H39334153   6.032   2.050   7.257  0.3699 -1.2204 -0.2499
   81MOL   H39434154   5.921   1.858   7.283  0.6987 -0.5114  0.6089
   81MOL   H39534155   5.906   1.868   7.462 -1.1149 -0.8274 -1.6531
   81MOL   H39634156   5.738   2.046   7.281 -1.3826 -0.4807  0.4995
   81MOL   H39734157   5.739   2.037   7.455  0.8980 -0.5990 -0.3125
   81MOL   H39834158   5.652   1.802   7.271  3.3812  0.5286 -0.8754
   81MOL   H39934159   5.553   1.911   7.359  0.2807 -0.1339  1.4099
   81MOL   H40034160   5.671   1.796   7.436  1.0455  0.6265  0.5636
   81MOL   C40134161   6.280   2.156   7.294 -0.2665 -0.5771 -0.5885
   81MOL   C40234162   6.324   2.023   7.223  0.6867  0.1437 -0.9290
   81MOL   C40334163   6.392   2.060   7.088  0.7828  0.1477  0.1152
   81MOL   C40434164   6.447   1.932   7.013  1.0953 -0.9502 -0.0072
   81MOL   C40534165   6.493   1.955   6.877 -0.1351 -0.1152  0.0044
   81MOL   C40634166   6.616   2.053   6.861 -0.1551  0.2003  0.6715
   81MOL   C40734167   6.669   2.072   6.717  0.3521  0.6273 -0.1029
   81MOL   H40834168   6.367   2.220   7.301 -0.9808  0.4563 -0.9727
   81MOL   H40934169   6.200   2.208   7.240 -0.5049  0.0431  0.3603
   81MOL   H41034170   6.240   1.959   7.195 -1.0826  0.7393  2.7147
   81MOL   H41134171   6.477   2.127   7.098  0.2890  0.6036  1.4142
   81MOL   H41234172   6.324   2.116   7.024  2.8218 -0.0892 -2.3637
   81MOL   H41334173   6.361   1.866   7.001  0.6883 -0.4540  0.1625
   81MOL   H41434174   6.515   1.878   7.079  0.1714 -1.3532  0.6325
   81MOL   H41534175   6.510   1.859   6.829  1.2367 -1.2137  2.6059
   81MOL   H41634176   6.423   2.012   6.816  0.0292  2.5861  2.2499
   81MOL   H41734177   6.602   2.153   6.903 -2.3684  0.2554 -0.1349
   81MOL   H41834178   6.700   1.999   6.907  0.1654 -0.4600 -0.6715
   81MOL   H41934179   6.761   2.130   6.721  1.2043 -0.6686 -0.3841
   81MOL   H42034180   6.602   2.130   6.653 -1.6568 -0.0426  1.3510
   81MOL   H42134181   6.687   1.973   6.675  1.3509  0.9964 -0.5554
   81MOL   H42234182   6.405   1.974   7.277  1.0750  1.7298 -0.0362
   82MOL     C134183   3.931   6.926   1.202 -0.1767 -0.5305 -0.0001
   82MOL     C234184   4.051   6.854   1.135  0.2871  0.5412 -0.9580
   82MOL     C334185   4.174   6.944   1.142 -0.3548 -0.3227  0.6259
   82MOL     C434186   4.294   6.871   1.173 -1.0388  0.3183  0.4446
   82MOL     C534187   4.414   6.950   1.131 -0.3127 -0.4582 -0.0854
   82MOL     C634188   4.546   6.876   1.162 -0.2752 -0.1657 -0.3884
   82MOL     C734189   4.660   6.946   1.095 -0.0308  0.4124  0.9112
   82MOL     H834190   3.957   6.954   1.304 -2.7822  2.6341 -0.1089
   82MOL     H934191   3.838   6.868   1.199  1.0729 -2.5654 -0.1253
   82MOL    H1034192   4.071   6.773   1.205  0.9203  1.2284 -0.3349
   82MOL    H1134193   4.183   6.993   1.045  1.0849 -2.6613 -0.4882
   82MOL    H1234194   4.161   7.020   1.219 -1.6092  0.8232 -0.6868
   82MOL    H1334195   4.299   6.838   1.277  0.5444  0.8073  0.5407
   82MOL    H1434196   4.298   6.776   1.119  2.5004  1.4451 -1.4062
   82MOL    H1534197   4.405   7.052   1.170  0.7644 -1.0223  1.7111
   82MOL    H1634198   4.407   6.958   1.022  0.4171 -0.2694 -0.1206
   82MOL    H1734199   4.549   6.771   1.134 -1.7288  0.2758 -2.3684
   82MOL    H1834200   4.565   6.873   1.269  0.7499 -0.5976 -0.5840
   82MOL    H1934201   4.652   7.055   1.104  0.5652  0.1472  5.4662
   82MOL    H2034202   4.660   6.926   0.988 -2.6107 -1.6503  1.2566
   82MOL    H2134203   4.761   6.922   1.129  0.9009 -0.1786 -2.0915
   82MOL    H2234204   3.900   7.016   1.150 -2.1378 -0.9126  0.4579
   82MOL    C2334205   4.031   6.787   0.997  0.4935  0.3047  0.1556
   82MOL    C2434206   3.900   6.711   0.991 -0.1044 -0.3002  0.5825
   82MOL    C2534207   3.890   6.598   1.097  0.0665  0.2315 -1.1012
   82MOL    C2634208   3.752   6.531   1.091  0.7050 -0.5520 -0.0168
   82MOL    C2734209   3.721   6.454   1.222  0.3953  0.1120  0.3557
   82MOL    C2834210   3.812   6.330   1.231 -0.5370  0.5366  0.0106
   82MOL    C2934211   3.794   6.252   1.363 -0.2228  0.3904 -0.4010
   82MOL    H3034212   4.047   6.850   0.910  3.1202 -0.1928  0.2430
   82MOL    H3134213   4.111   6.718   0.972  0.4397  0.0432  0.6838
   82MOL    H3234214   3.819   6.782   1.003  0.7345  0.5597  1.1897
   82MOL    H3334215   3.919   6.632   1.196  0.6547  0.7055 -1.4296
   82MOL    H3434216   3.974   6.531   1.081  1.1111  1.3182 -0.2784
   82MOL    H3534217   3.732   6.467   1.006  1.3299 -2.2842  1.1252
   82MOL    H3634218   3.672   6.601   1.068 -0.8788 -1.4766  2.5172
   82MOL    H3734219   3.614   6.435   1.231  0.3811  0.4647  0.9828
   82MOL    H3834220   3.742   6.529   1.299 -1.2700 -0.9061  1.8429
   82MOL    H3934221   3.917   6.358   1.233 -0.2479 -0.4409 -0.8507
   82MOL    H4034222   3.801   6.257   1.151 -1.9977  0.0261  0.6567
   82MOL    H4134223   3.872   6.179   1.382  0.0654  0.7489 -0.1945
   82MOL    H4234224   3.788   6.337   1.431 -1.6309  0.4234 -0.5476
   82MOL    H4334225   3.703   6.193   1.375  0.1654  0.1916  1.7458
   82MOL    C4434226   3.875   6.654   0.848 -0.2314  0.0130 -0.3998
   82MOL    C4534227   3.974   6.549   0.782  0.2000 -0.3928 -0.1804
   82MOL    C4634228   3.948   6.400   0.816 -0.0409  0.2019 -0.3320
   82MOL    C4734229   3.821   6.350   0.752 -0.2717  0.9586 -0.6223
   82MOL    C4834230   3.755   6.224   0.806  0.3265  1.0350 -0.0690
   82MOL    C4934231   3.645   6.162   0.717  0.5501  0.9796  0.2613
   82MOL    C5034232   3.587   6.032   0.781 -0.0085  0.4034  0.3611
   82MOL    H5134233   3.868   6.740   0.782  2.2718 -0.2254 -1.0385
   82MOL    H5234234   3.774   6.615   0.835  0.6488 -2.0166 -1.4035
   82MOL    H5334235   4.073   6.569   0.823 -0.4834 -1.5975  2.1594
   82MOL    H5434236   3.955   6.375   0.922  0.6987 -3.6997 -1.2319
   82MOL    H5534237   4.033   6.340   0.786 -1.0519 -4.1832  4.7583
   82MOL    H5634238   3.747   6.429   0.764 -0.5357  0.9777 -2.2326
   82MOL    H5734239   3.828   6.345   0.643  0.0160 -1.9830 -0.4958
   82MOL    H5834240   3.706   6.244   0.902 -1.4982  1.0271 -0.9760
   82MOL    H5934241   3.826   6.149   0.838 -1.2482 -0.3273  0.2711
   82MOL    H6034242   3.702   6.136   0.628  1.7989  2.4664  0.6085
   82MOL    H6134243   3.566   6.227   0.682  0.5952  1.0766  0.3399
   82MOL    H6234244   3.545   5.959   0.711  0.2645 -0.1202  0.7353
   82MOL    H6334245   3.517   6.054   0.862  0.7308  0.0044  1.1144
   82MOL    H6434246   3.675   5.977   0.814  0.1486  0.3669 -0.1229
   82MOL    C6534247   3.994   6.597   0.633  0.6071 -1.1756 -0.1582
   82MOL    C6634248   4.112   6.526   0.555  0.1631 -0.0419 -0.6421
   82MOL    C6734249   4.078   6.391   0.491  0.4745 -0.6490  0.5878
   82MOL    C6834250   3.965   6.381   0.385 -0.0572 -0.8551 -0.0515
   82MOL    C6934251   3.976   6.250   0.304  0.4792  0.0577 -0.1040
   82MOL    C7034252   3.875   6.253   0.186 -0.5709 -0.5293 -0.4297
   82MOL    C7134253   3.880   6.130   0.099  0.3479 -0.1178  0.1865
   82MOL    H7234254   3.899   6.575   0.584 -0.5637  1.2469  0.9205
   82MOL    H7334255   4.011   6.705   0.632  4.3277 -1.6974  0.5533
   82MOL    H7434256   4.132   6.588   0.467  0.6375  1.0969  0.2591
   82MOL    H7534257   4.175   6.358   0.454  0.6202  1.2326 -0.7808
   82MOL    H7634258   4.050   6.321   0.569  0.4404 -0.4742  0.7312
   82MOL    H7734259   3.874   6.377   0.444 -1.2349  0.7650 -1.6754
   82MOL    H7834260   3.952   6.468   0.320  0.6166 -1.3333 -0.8410
   82MOL    H7934261   4.080   6.235   0.274  0.9235 -0.0628  1.4523
   82MOL    H8034262   3.957   6.171   0.376  1.6024 -0.1737 -0.0534
   82MOL    H8134263   3.905   6.333   0.118  1.4793 -0.9816 -0.0955
   82MOL    H8234264   3.773   6.274   0.220  0.7340  2.7441  1.6902
   82MOL    H8334265   3.829   6.152   0.006  2.5658  1.7948 -0.6372
   82MOL    H8434266   3.978   6.100   0.063 -0.9204 -1.7072 -2.0362
   82MOL    H8534267   3.836   6.038   0.138  1.4486 -1.4199 -1.5768
   82MOL    C8634268   4.248   6.519   0.624 -0.3169  0.1576  0.1568
   82MOL    C8734269   4.298   6.659   0.676  0.4142 -0.2140  0.0516
   82MOL    C8834270   4.383   6.659   0.805  0.1960  0.6202  0.0130
   82MOL    C8934271   4.515   6.577   0.780 -0.3470 -0.6804  0.2924
   82MOL    C9034272   4.597   6.590   0.911 -0.7902 -0.5102  0.7828
   82MOL    C9134273   4.733   6.512   0.907  0.6193 -0.3602 -0.9191
   82MOL    C9234274   4.829   6.550   0.796  0.0803  0.2263 -0.2412
   82MOL    H9334275   4.243   6.451   0.709 -1.3220  0.7443  0.5738
   82MOL    H9434276   4.323   6.468   0.563 -0.2069 -0.6667  0.9679
   82MOL    H9534277   4.213   6.719   0.708  0.5726  0.2579 -0.4031
   82MOL    H9634278   4.390   6.757   0.852  0.3694  1.7005 -2.2098
   82MOL    H9734279   4.318   6.615   0.881  2.1603 -0.0371  1.3643
   82MOL    H9834280   4.498   6.470   0.768 -4.1582 -0.1735  0.5491
   82MOL    H9934281   4.576   6.621   0.701 -1.2418  1.5565  0.7850
   82MOL   H10034282   4.531   6.549   0.988 -1.0535  1.7451  1.7800
   82MOL   H10134283   4.612   6.693   0.941  3.6722 -1.5033  2.3565
   82MOL   H10234284   4.785   6.523   1.002 -2.2064 -0.5213  0.6957
   82MOL   H10334285   4.706   6.408   0.918  0.0134  0.0192  1.4237
   82MOL   H10434286   4.917   6.488   0.786 -0.5126 -0.1958 -3.3761
   82MOL   H10534287   4.858   6.652   0.823 -4.4642  1.9109 -1.2946
   82MOL   H10634288   4.783   6.549   0.697  2.5262 -0.9510 -1.4031
   82MOL   C10734289   4.357   6.748   0.560  0.1169  0.1022  0.1752
   82MOL   C10834290   4.354   6.899   0.599 -0.1103 -0.2864 -0.2317
   82MOL   C10934291   4.483   6.974   0.551 -0.1039 -0.6715 -0.0184
   82MOL   C11034292   4.608   6.937   0.627  0.0003  0.6809 -0.3371
   82MOL   C11134293   4.718   7.040   0.620  0.5548 -0.1182 -0.4388
   82MOL   C11234294   4.854   6.987   0.682 -0.3787  0.0422 -0.1038
   82MOL   C11334295   4.944   7.109   0.703 -0.2023 -0.0449 -0.2026
   82MOL   H11434296   4.305   6.741   0.465 -0.2470  2.8855  0.1235
   82MOL   H11534297   4.457   6.718   0.530 -0.9800 -2.1233 -1.3473
   82MOL   H11634298   4.365   6.899   0.707 -1.0317  1.3855 -0.1299
   82MOL   H11734299   4.473   7.082   0.563  1.1511 -0.7086  1.4670
   82MOL   H11834300   4.495   6.956   0.444  0.7394  0.4520 -0.1189
   82MOL   H11934301   4.599   6.931   0.735  1.3225  1.6804 -0.1666
   82MOL   H12034302   4.646   6.840   0.596  0.7714  1.1855 -0.9807
   82MOL   H12134303   4.688   7.132   0.670 -0.2016 -0.3351 -0.4880
   82MOL   H12234304   4.738   7.075   0.519  1.3247 -0.3728 -0.3777
   82MOL   H12334305   4.829   6.935   0.774 -0.5999 -1.8847 -1.2235
   82MOL   H12434306   4.893   6.912   0.613 -0.9416 -2.7759  2.5384
   82MOL   H12534307   5.046   7.081   0.729 -0.5644 -3.2008 -1.9508
   82MOL   H12634308   4.956   7.173   0.616  1.0301 -4.0456 -3.1249
   82MOL   H12734309   4.911   7.176   0.782  0.9181 -0.8600  0.9893
   82MOL   C12834310   4.219   6.968   0.546  0.0293  0.8200 -0.3762
   82MOL   C12934311   4.189   7.114   0.582  0.6073  0.2820  0.3806
   82MOL   C13034312   4.120   7.120   0.716 -0.7042  0.0213 -0.4651
   82MOL   C13134313   4.111   7.254   0.787 -0.5426 -0.7285 -0.1129
   82MOL   C13234314   4.083   7.246   0.938  0.5447  0.1790  0.5055
   82MOL   C13334315   4.080   7.380   1.009 -0.4280  0.0715 -0.6420
   82MOL   C13434316   4.082   7.366   1.160 -0.0904  0.2207  0.7935
   82MOL   H13534317   4.217   6.965   0.437 -1.0871 -1.4806 -0.3186
   82MOL   H13634318   4.132   6.915   0.583 -0.2832  3.2515  2.5166
   82MOL   H13734319   4.278   7.171   0.610  0.9023  0.0665 -0.1052
   82MOL   H13834320   4.165   7.039   0.774 -0.0688  0.6168 -0.1160
   82MOL   H13934321   4.020   7.084   0.694 -0.0027 -0.5100 -2.9363
   82MOL   H14034322   4.036   7.308   0.730 -2.0235 -1.2995  1.2336
   82MOL   H14134323   4.213   7.289   0.776 -0.3462 -1.2055  0.1558
   82MOL   H14234324   4.156   7.186   0.994  0.5387 -0.2390  0.0693
   82MOL   H14334325   3.997   7.182   0.957 -0.4744  0.7736 -1.9444
   82MOL   H14434326   3.985   7.421   0.975 -1.5392 -1.7869  0.1184
   82MOL   H14534327   4.163   7.443   0.977  0.8994 -0.5845  1.4454
   82MOL   H14634328   4.164   7.302   1.195  0.2745  0.2443 -0.0154
   82MOL   H14734329   3.990   7.312   1.184 -0.3072 -1.0231 -2.5536
   82MOL   H14834330   4.094   7.456   1.221 -0.0534  0.7516 -0.0007
   82MOL   C14934331   4.120   7.196   0.464 -0.7865  0.1782 -0.1837
   82MOL   C15034332   4.181   7.218   0.330 -0.6498  0.2711 -0.0354
   82MOL   C15134333   4.293   7.317   0.332 -0.4368 -0.1846  0.0874
   82MOL   C15234334   4.263   7.467   0.369 -0.0511 -0.3486  0.7363
   82MOL   C15334335   4.391   7.547   0.346  0.0560  0.0029 -0.5202
   82MOL   C15434336   4.378   7.681   0.420  0.1965  0.2102 -0.2602
   82MOL   C15534337   4.507   0.043   0.404 -0.4309 -0.1870 -0.2588
   82MOL   H15634338   4.021   7.151   0.450 -0.1053 -1.3303 -0.2714
   82MOL   H15734339   4.104   7.295   0.505 -0.2041 -0.0647  0.6331
   82MOL   H15834340   4.235   7.127   0.304  1.9284  1.8458 -0.3606
   82MOL   H15934341   4.352   7.279   0.415 -1.9618 -1.5296  0.5851
   82MOL   H16034342   4.362   7.317   0.247  0.4024  1.3384  0.7522
   82MOL   H16134343   4.225   7.482   0.469  1.2916 -0.1106  1.2268
   82MOL   H16234344   4.181   7.507   0.309 -0.1639  0.4012  1.3769
   82MOL   H16334345   4.406   7.568   0.240  3.0548  0.8313  0.0299
   82MOL   H16434346   4.480   7.497   0.384  0.6348 -0.7251 -2.8099
   82MOL   H16534347   4.364   7.663   0.526  0.8585  0.7354 -0.0837
   82MOL   H16634348   4.292   0.025   0.385  1.7424  2.6127 -0.2177
   82MOL   H16734349   4.530   0.066   0.300 -0.5467 -0.7175 -0.4056
   82MOL   H16834350   4.593   7.700   0.440  0.1184  1.0711  0.3992
   82MOL   H16934351   4.502   0.136   0.460 -0.6804  0.2760 -1.0500
   82MOL   C17034352   4.079   7.263   0.221  0.2969 -0.2367 -0.1367
   82MOL   C17134353   4.130   7.328   0.086 -0.2504  0.5260 -0.2727
   82MOL   C17234354   4.224   7.230   0.008 -0.1518 -0.2670  0.0320
   82MOL   C17334355   4.338   7.296   7.638 -0.5839 -0.0559  0.3506
   82MOL   C17434356   4.454   7.197   7.603 -0.4514 -0.1291 -0.1938
   82MOL   C17534357   4.557   7.254   7.505 -0.6327  0.3600  0.5553
   82MOL   C17634358   4.678   7.163   7.490 -0.4427 -0.0137 -0.0439
   82MOL   H17734359   4.015   7.331   0.277  0.5565 -0.9715  1.0828
   82MOL   H17834360   4.009   7.183   0.196  0.3921  0.0225 -1.2724
   82MOL   H17934361   4.191   7.416   0.110 -0.8398  1.5236 -2.3575
   82MOL   H18034362   4.172   7.157   7.659  0.7126 -1.8354  1.1194
   82MOL   H18134363   4.265   7.166   0.086  0.3552  0.9984  0.8186
   82MOL   H18234364   4.385   7.377   7.694  0.6351 -2.3491  2.7486
   82MOL   H18334365   4.288   7.343   7.553  0.1253  0.1657  0.0480
   82MOL   H18434366   4.411   7.103   7.570 -0.1727 -0.0326 -0.8244
   82MOL   H18534367   4.504   7.169   7.696 -0.1237  0.2439 -0.2568
   82MOL   H18634368   4.583   7.344   7.560  3.7994 -2.2630  3.0778
   82MOL   H18734369   4.515   7.285   7.410  1.3878 -2.3573 -1.3079
   82MOL   H18834370   4.711   7.135   7.590 -0.7994  2.9805  0.9688
   82MOL   H18934371   4.758   7.210   7.433 -0.0288 -0.3744  0.2349
   82MOL   H19034372   4.653   7.077   7.429  0.0876  1.6636 -2.6924
   82MOL   C19134373   4.029   7.375   7.704  0.0398  0.4534  0.2384
   82MOL   C19234374   3.948   7.506   0.018  0.3477 -0.1472  0.1479
   82MOL   C19334375   4.007   7.626   7.664  0.5357  0.4495  0.1831
   82MOL   C19434376   4.146   7.669   0.010 -0.1629  0.3567  0.6734
   82MOL   C19534377   4.212   0.076   7.648  0.4475 -0.2094  0.2252
   82MOL   C19634378   4.341   0.128   0.002  0.0991 -0.3501 -0.8614
   82MOL   C19734379   4.389   0.257   7.648 -0.5377  0.3655  0.1552
   82MOL   H19834380   3.965   7.288   7.690  1.9499 -1.2442  1.7989
   82MOL   H19934381   4.077   7.393   7.608 -0.0478 -0.9047 -0.0664
   82MOL   H20034382   3.943   7.528   0.125  1.5124  1.3870 -0.0863
   82MOL   H20134383   3.941   7.712   7.675 -2.7992 -1.6248 -2.8609
   82MOL   H20234384   4.017   7.593   7.561  1.5558  0.9827  0.1029
   82MOL   H20334385   4.231   7.603   7.704 -1.0507 -0.7015  0.3602
   82MOL   H20434386   4.141   7.677   0.119 -2.3533  0.7260  0.5661
   82MOL   H20534387   4.235   0.054   7.544 -0.6578 -0.6420  0.0671
   82MOL   H20634388   4.134   0.151   7.655 -0.1371 -0.7688 -0.1556
   82MOL   H20734389   4.417   0.051   7.709 -1.2049 -1.8240  0.8936
   82MOL   H20834390   4.312   0.147   0.105  2.2957 -1.2823 -0.0402
   82MOL   H20934391   4.441   0.235   7.555  0.2948  0.0344  0.7002
   82MOL   H21034392   4.462   0.304   0.000  0.1292 -2.6021  1.6084
   82MOL   H21134393   4.313   0.332   7.626 -1.1645  0.0805  1.3389
   82MOL   C21234394   3.808   7.498   7.670 -0.2741  0.4837  0.6480
   82MOL   C21334395   3.717   7.421   0.054 -0.1440 -1.0955  0.0324
   82MOL   C21434396   3.636   7.519   0.143 -0.2144 -0.2123  0.0880
   82MOL   C21534397   3.706   7.602   0.242 -0.0247 -0.6371 -0.1230
   82MOL   C21634398   3.772   7.522   0.362 -0.3682 -0.3585 -0.1533
   82MOL   C21734399   3.786   7.573   0.506  0.8407  0.6248  0.4611
   82MOL   C21834400   3.847   7.478   0.610 -0.3987 -0.4420  0.0972
   82MOL   H21934401   3.799   7.451   7.572 -0.6626  1.4776  0.2060
   82MOL   H22034402   3.767   7.598   7.658 -1.0766  0.2262  1.2470
   82MOL   H22134403   3.788   7.369   0.119 -0.1795 -0.4872  0.5616
   82MOL   H22234404   3.588   7.595   0.081  1.5781  1.4350  0.6772
   82MOL   H22334405   3.560   7.466   0.202 -1.2931  1.1699 -0.0258
   82MOL   H22434406   3.643   7.671   0.299  0.0912 -0.5685 -0.0774
   82MOL   H22534407   3.773   7.675   0.196 -2.6131  0.4125 -2.3491
   82MOL   H22634408   3.745   7.417   0.377  0.7864 -0.2556  3.0467
   82MOL   H22734409   3.877   7.513   0.335  0.4048  2.6984  1.6544
   82MOL   H22834410   3.835   7.670   0.504  0.9003  0.6354  2.1008
   82MOL   H22934411   3.682   7.585   0.536  0.2255 -4.1274  0.6678
   82MOL   H23034412   3.830   7.509   0.713  0.5887 -0.8903  0.3990
   82MOL   H23134413   3.955   7.474   0.596 -0.7179  0.3373 -3.0691
   82MOL   H23234414   3.807   7.377   0.600  0.6008 -0.6449 -2.1183
   82MOL   C23334415   3.630   7.318   7.698  0.7082 -0.5453 -0.4323
   82MOL   C23434416   3.588   7.203   0.081 -0.3003 -0.4321  0.2583
   82MOL   C23534417   3.458   7.138   0.027  0.0125 -0.0445  0.6005
   82MOL   C23634418   3.338   7.230   0.050 -0.2017  0.0534  0.3056
   82MOL   C23734419   3.206   7.173   0.001 -0.1284  0.2187 -0.1080
   82MOL   C23834420   3.194   7.169   7.559 -0.1703 -0.6110 -0.0361
   82MOL   C23934421   3.063   7.103   7.505 -0.4340 -0.0332 -0.0862
   82MOL   H24034422   3.676   7.282   7.605 -0.4193 -0.8668 -0.8781
   82MOL   H24134423   3.542   7.371   7.662 -0.2285 -1.8619 -0.1489
   82MOL   H24234424   3.561   7.234   0.183 -0.0263  0.6907  0.0005
   82MOL   H24334425   3.427   7.043   0.070  3.3840  0.6299  4.8879
   82MOL   H24434426   3.469   7.119   7.634  0.1086 -1.1316  0.7977
   82MOL   H24534427   3.344   7.331   0.009 -1.1559  0.4556  1.1380
   82MOL   H24634428   3.327   7.237   0.158 -0.3150 -1.7396  0.4227
   82MOL   H24734429   3.117   7.225   0.038 -0.5347 -0.3288 -0.3039
   82MOL   H24834430   3.195   7.074   0.045 -0.4865  1.2266  2.1335
   82MOL   H24934431   3.181   7.270   7.520 -4.0888 -1.2620 -0.6119
   82MOL   H25034432   3.284   7.137   7.508 -0.7224 -2.4796  0.1142
   82MOL   H25134433   3.094   7.069   7.406  0.2225  0.8835 -0.2001
   82MOL   H25234434   3.047   7.010   7.559 -0.0801 -0.1768 -0.2289
   82MOL   H25334435   2.977   7.170   7.511 -1.3084 -1.2406  0.8623
   82MOL   C25434436   3.708   7.101   0.085 -0.4631  0.4776 -0.4692
   82MOL   C25534437   3.706   7.000   0.197  0.3588  0.7863 -0.0343
   82MOL   C25634438   3.742   7.068   0.331  0.8301  1.0171 -0.3477
   82MOL   C25734439   3.683   6.997   0.452  0.1390  0.3912  0.9752
   82MOL   C25834440   3.737   7.059   0.579  0.7660  0.2000 -0.2444
   82MOL   C25934441   3.679   6.988   0.705 -0.0706  0.0125 -0.0932
   82MOL   C26034442   3.745   7.041   0.835 -0.2562 -0.1735  0.5091
   82MOL   H26134443   3.807   7.145   0.070  0.3301 -0.7376  0.9864
   82MOL   H26234444   3.707   7.041   7.708 -1.8720 -1.1026  0.5587
   82MOL   H26334445   3.602   6.966   0.206 -0.3598  3.3598  2.2189
   82MOL   H26434446   3.713   7.173   0.337  0.8578  1.1176 -1.7776
   82MOL   H26534447   3.850   7.064   0.343  0.8802  1.3105 -0.6975
   82MOL   H26634448   3.575   7.011   0.438  0.6603  1.5725 -2.3159
   82MOL   H26734449   3.701   6.890   0.454  0.3915  0.3599 -1.5148
   82MOL   H26834450   3.713   7.165   0.585 -2.7611 -0.3952 -2.3057
   82MOL   H26934451   3.846   7.052   0.582  0.7462 -1.6748 -2.1385
   82MOL   H27034452   3.570   6.997   0.710  0.0148  2.0134 -1.1928
   82MOL   H27134453   3.694   6.881   0.705 -0.3908 -0.0442 -1.3309
   82MOL   H27234454   3.843   6.994   0.845 -0.1620  0.0554  0.6715
   82MOL   H27334455   3.764   7.149   0.836 -2.5584  0.2877 -1.1110
   82MOL   H27434456   3.674   7.006   0.910 -1.6234 -0.3201 -0.8202
   82MOL   C27534457   3.805   6.880   0.166 -0.2142  0.2888 -0.2219
   82MOL   C27634458   3.756   6.764   0.077 -0.6785  0.1014 -0.5274
   82MOL   C27734459   3.643   6.676   0.142  0.0012  0.3613 -0.5150
   82MOL   C27834460   3.709   6.585   0.255  0.6490 -0.2370  0.1610
   82MOL   C27934461   3.604   6.524   0.344  0.1190  0.4630  0.0529
   82MOL   C28034462   3.551   6.624   0.453 -0.2119 -0.2096  0.4172
   82MOL   C28134463   3.427   6.571   0.519 -0.3902 -0.3691 -0.1870
   82MOL   H28234464   3.833   6.830   0.258 -2.1546 -3.1358 -1.4251
   82MOL   H28334465   3.900   6.922   0.133  1.3028 -1.4120  1.8253
   82MOL   H28434466   3.689   6.807   0.003 -0.5627  0.6880 -0.2912
   82MOL   H28534467   3.568   6.736   0.193 -1.4111 -1.8006  0.0018
   82MOL   H28634468   3.590   6.615   0.069 -1.3895 -1.4457  1.9404
   82MOL   H28734469   3.767   6.646   0.323 -1.8957  2.2231  0.2291
   82MOL   H28834470   3.773   6.506   0.216  1.4417  0.3124  0.3517
   82MOL   H28934471   3.651   6.437   0.392 -0.1866 -0.0007 -0.4840
   82MOL   H29034472   3.517   6.486   0.291  2.1531 -2.0695 -1.6247
   82MOL   H29134473   3.624   6.651   0.529 -0.0462  0.8025 -0.0910
   82MOL   H29234474   3.535   6.721   0.407  0.1644 -0.6007 -0.5670
   82MOL   H29334475   3.357   6.520   0.452 -0.1607  2.0867 -2.3466
   82MOL   H29434476   3.371   6.656   0.557 -1.0358 -0.2731 -1.3392
   82MOL   H29534477   3.455   6.505   0.602  0.6661  0.8771  0.4738
   82MOL   C29634478   3.879   6.684   0.021 -0.4116 -0.4645  0.4190
   82MOL   C29734479   3.974   6.740   7.627 -0.5735 -0.6062 -0.1720
   82MOL   C29834480   4.110   6.801   7.665 -0.5883 -0.4080 -0.8937
   82MOL   C29934481   4.186   6.696   0.039  0.2943  0.0641  0.2503
   82MOL   C30034482   4.336   6.711   0.025 -0.5293 -0.4980 -0.4155
   82MOL   C30134483   4.393   6.852   0.040 -0.0174  0.0211  0.5478
   82MOL   C30234484   4.377   6.913   0.177  0.6549  0.4941 -0.2329
   82MOL   H30334485   3.944   6.643   0.098 -0.9987  0.9144  1.6615
   82MOL   H30434486   3.842   6.593   7.688 -1.6326  0.5112 -0.5587
   82MOL   H30534487   3.986   6.655   7.560 -0.7661 -0.5032 -0.3399
   82MOL   H30634488   4.177   6.823   7.582 -0.1170 -0.2309 -0.4681
   82MOL   H30734489   4.086   6.892   0.007 -1.7810 -1.6085  0.5902
   82MOL   H30834490   4.147   6.595   0.022 -0.7976  0.0333  2.7103
   82MOL   H30934491   4.165   6.704   0.146 -0.2201 -1.0729  0.2504
   82MOL   H31034492   4.365   6.673   7.640  0.6839  0.7792 -0.5683
   82MOL   H31134493   4.383   6.643   0.096  3.2756  1.3872 -1.0106
   82MOL   H31234494   4.498   6.849   0.010 -0.7149  0.7893 -2.1218
   82MOL   H31334495   4.346   6.927   7.690  0.1131  0.3289  0.8178
   82MOL   H31434496   4.416   7.015   0.176  0.1402  0.6955  0.1967
   82MOL   H31534497   4.273   6.926   0.207  0.6013 -0.7737  0.1344
   82MOL   H31634498   4.437   6.861   0.251  1.4868  0.2352 -1.0793
   82MOL   C31734499   3.896   6.845   7.535 -0.1457  0.7454 -0.6335
   82MOL   C31834500   3.947   6.859   7.385 -0.5875 -0.5760  0.1385
   82MOL   C31934501   3.988   6.725   7.319  0.5842  0.2246  0.4172
   82MOL   C32034502   3.891   6.602   7.317 -0.7306 -0.2318 -0.3957
   82MOL   C32134503   3.967   6.475   7.261 -0.1892  0.1708 -0.7635
   82MOL   C32234504   4.026   6.388   7.369  0.3784 -0.0050  1.1022
   82MOL   C32334505   4.073   6.246   7.321 -0.0980 -0.4556 -0.2771
   82MOL   H32434506   3.891   6.938   7.591  0.6192  0.7515 -0.5736
   82MOL   H32534507   3.793   6.811   7.528 -0.3689  0.2992  3.3684
   82MOL   H32634508   4.034   6.925   7.384 -0.9723 -0.0160 -3.5763
   82MOL   H32734509   4.085   6.684   7.346  1.0317  1.5084  0.8087
   82MOL   H32834510   3.998   6.761   7.216 -1.8687  1.3350  0.5146
   82MOL   H32934511   3.807   6.621   7.250 -0.4044  1.4104 -0.3471
   82MOL   H33034512   3.846   6.596   7.416 -2.0957  1.3315 -0.8904
   82MOL   H33134513   4.042   6.498   7.186  0.7890  1.2763  0.5369
   82MOL   H33234514   3.895   6.413   7.207  2.0927 -0.9882 -2.5481
   82MOL   H33334515   3.953   6.379   7.449 -0.8384 -2.3477 -0.2449
   82MOL   H33434516   4.113   6.444   7.405 -0.4540  2.6975 -0.8478
   82MOL   H33534517   3.986   6.197   7.278 -0.6276  1.6552 -1.7099
   82MOL   H33634518   4.092   6.189   7.412 -0.6136  0.0253  0.1339
   82MOL   H33734519   4.155   6.254   7.249  0.5814  1.0133  0.6379
   82MOL   C33834520   3.843   6.932   7.294 -0.3318  0.6486 -0.1711
   82MOL   C33934521   3.911   7.053   7.207  0.0730  0.2874 -0.2812
   82MOL   C34034522   3.914   7.188   7.291  0.0816  0.6535 -0.0850
   82MOL   C34134523   3.977   7.298   7.209 -0.0627  0.5600 -0.2641
   82MOL   C34234524   4.011   7.421   7.292  0.5147 -0.3985 -0.3210
   82MOL   C34334525   4.079   7.548   7.224  0.6122  0.1865  0.3399
   82MOL   C34434526   4.212   7.526   7.163  0.0214  0.0841  0.7251
   82MOL   H34534527   3.755   6.966   7.346 -0.8530  0.3710 -0.8586
   82MOL   H34634528   3.810   6.862   7.217  1.5379  1.0812 -1.4044
   82MOL   H34734529   4.017   7.037   7.191  0.1742  0.9495 -0.2583
   82MOL   H34834530   3.813   7.225   7.309 -0.0577  0.8083 -1.1618
   82MOL   H34934531   3.973   7.187   7.382 -1.0807  1.6748  0.6936
   82MOL   H35034532   3.906   7.327   7.131 -0.0959 -0.5840 -0.6683
   82MOL   H35134533   4.063   7.266   7.150  0.3221 -0.2588  0.7331
   82MOL   H35234534   3.927   7.457   7.350  0.0216 -1.2083 -0.5222
   82MOL   H35334535   4.077   7.387   7.372 -1.2422  1.2651  1.9040
   82MOL   H35434536   4.026   7.588   7.138  1.5685  0.3720 -0.1697
   82MOL   H35534537   4.095   7.627   7.298  2.8117 -0.3422  0.4630
   82MOL   H35634538   4.255   7.621   7.133 -2.1346  0.8397 -0.1070
   82MOL   H35734539   4.206   7.465   7.072  2.2566  0.9996 -0.0669
   82MOL   H35834540   4.286   7.486   7.232  1.8587  0.8055 -0.7860
   82MOL   C35934541   3.845   7.074   7.063 -0.9872  0.0654 -1.0391
   82MOL   C36034542   3.893   6.971   6.959  0.5570 -0.1048  0.4589
   82MOL   C36134543   3.784   6.947   6.852  0.5086 -0.2975 -0.2715
   82MOL   C36234544   3.687   6.841   6.879  0.2584 -0.0235  0.2083
   82MOL   C36334545   3.592   6.797   6.762 -0.3453 -0.3456 -0.0456
   82MOL   C36434546   3.495   6.688   6.806  0.8838  0.2659 -0.2213
   82MOL   C36534547   3.555   6.549   6.841 -0.2353  0.1002 -0.2584
   82MOL   H36634548   3.862   7.174   7.026  1.5659  0.4300  0.9271
   82MOL   H36734549   3.738   7.056   7.074 -1.0945  1.8098  1.0181
   82MOL   H36834550   3.897   6.871   7.004 -0.0173 -1.7278 -2.9461
   82MOL   H36934551   3.734   7.037   6.814  0.4847  0.1595  0.8335
   82MOL   H37034552   3.833   6.913   6.761 -0.4936 -2.0928 -0.1596
   82MOL   H37134553   3.746   6.750   6.888 -1.6282 -1.5335 -1.8628
   82MOL   H37234554   3.627   6.869   6.966 -0.5477  0.6672 -0.5571
   82MOL   H37334555   3.534   6.885   6.734 -2.3226 -1.4143  0.5807
   82MOL   H37434556   3.650   6.773   6.673 -0.2392  4.1357 -1.3451
   82MOL   H37534557   3.426   6.717   6.884  0.8043 -0.1071 -0.1510
   82MOL   H37634558   3.438   6.666   6.716  2.3349 -1.1025 -0.8515
   82MOL   H37734559   3.608   6.515   6.752 -0.7950 -0.7431 -0.2815
   82MOL   H37834560   3.624   6.559   6.925 -0.6712  0.4532  0.0599
   82MOL   H37934561   3.474   6.477   6.854 -1.2146  0.7368 -2.5430
   82MOL   C38034562   4.031   7.006   6.898  0.3318  0.0361 -0.4946
   82MOL   C38134563   4.105   6.891   6.825  0.2006 -0.6747  0.1401
   82MOL   C38234564   4.216   6.955   6.741 -0.0443 -0.1034 -0.2701
   82MOL   C38334565   4.298   6.854   6.659  1.1049 -0.6176 -0.7903
   82MOL   C38434566   4.371   6.932   6.550 -0.4531 -0.2314  0.4370
   82MOL   C38534567   4.316   6.894   6.410 -0.0265 -0.3119 -0.2262
   82MOL   C38634568   4.357   6.752   6.360  0.4436  0.8303 -0.1309
   82MOL   H38734569   4.007   7.090   6.833  1.1123  1.0913  0.5733
   82MOL   H38834570   4.093   7.062   6.968  0.9148  0.3699 -1.2797
   82MOL   H38934571   4.030   6.847   6.760  0.8275  1.1242 -1.8455
   82MOL   H39034572   4.282   7.015   6.803  2.0363 -1.4671 -1.1117
   82MOL   H39134573   4.168   7.017   6.665  0.1957  0.7640  0.2722
   82MOL   H39234574   4.370   6.805   6.725  1.3979  0.4030 -0.3488
   82MOL   H39334575   4.247   6.773   6.606 -1.2866  1.0042 -1.0331
   82MOL   H39434576   4.357   7.040   6.543  0.2023 -0.2304 -1.0837
   82MOL   H39534577   4.478   6.914   6.562 -0.4149 -0.2311  0.0917
   82MOL   H39634578   4.344   6.970   6.337 -1.8462 -0.8661 -1.5222
   82MOL   H39734579   4.208   6.895   6.418 -0.0096  0.0135 -0.0461
   82MOL   H39834580   4.463   6.735   6.342 -0.0429 -0.8634 -1.5055
   82MOL   H39934581   4.301   6.721   6.272  0.9295 -0.6271  0.0650
   82MOL   H40034582   4.323   6.681   6.435  0.1638  1.8601  0.7209
   82MOL   C40134583   4.159   6.780   6.913  1.0731  0.7660  0.5615
   82MOL   C40234584   4.277   6.805   7.003 -1.0624  0.5014 -0.8921
   82MOL   C40334585   4.322   6.682   7.081 -0.0607  0.6183  0.0570
   82MOL   C40434586   4.429   6.711   7.190  0.0150  0.4801 -0.3029
   82MOL   C40534587   4.489   6.577   7.249 -0.3554 -0.1403 -0.4960
   82MOL   C40634588   4.610   6.609   7.342 -0.1809  0.1863 -0.2334
   82MOL   C40734589   4.686   6.482   7.388  0.1660  0.5906 -0.1517
   82MOL   H40834590   4.185   6.697   6.848 -0.4415  2.5273 -2.4332
   82MOL   H40934591   4.077   6.745   6.975  0.0166  3.2238  0.6196
   82MOL   H41034592   4.274   6.887   7.075  0.3105  0.1981 -0.4810
   82MOL   H41134593   4.357   6.607   7.011  0.3420  0.8026  0.0583
   82MOL   H41234594   4.233   6.641   7.129 -2.3599  1.5906 -3.2422
   82MOL   H41334595   4.392   6.766   7.277 -0.4942 -0.2242 -0.0610
   82MOL   H41434596   4.507   6.764   7.136 -0.6825  1.9018  0.0616
   82MOL   H41534597   4.419   6.514   7.304 -0.9424  2.1643  1.5096
   82MOL   H41634598   4.525   6.523   7.162 -0.6362 -2.1257  0.5831
   82MOL   H41734599   4.685   6.677   7.300 -0.6576 -0.2081 -1.7725
   82MOL   H41834600   4.575   6.675   7.421  0.1971 -0.7870  0.7669
   82MOL   H41934601   4.764   6.510   7.459  0.1052  0.5070 -0.0500
   82MOL   H42034602   4.715   6.418   7.305  0.0630  0.2634  0.0636
   82MOL   H42134603   4.615   6.424   7.447 -0.1285 -0.1408 -1.2176
   82MOL   H42234604   4.364   6.836   6.946 -1.6040  2.0188 -0.9357
   83MOL     C134605   6.028   6.493   6.008  0.1584  0.0307  0.1811
   83MOL     C234606   5.965   6.637   6.005  0.3247  1.4459 -0.0662
   83MOL     C334607   5.892   6.671   6.140  0.4465  0.4844  0.2626
   83MOL     C434608   5.989   6.712   6.241  0.2930 -0.3272 -0.1634
   83MOL     C534609   5.978   6.654   6.383  0.1052  0.3911  0.4912
   83MOL     C634610   6.099   6.687   6.464  0.5898  0.6944  0.0700
   83MOL     C734611   6.078   6.619   6.601  0.2505 -0.2324  0.1451
   83MOL     H834612   6.106   6.488   5.931 -1.0264 -0.8893 -0.9706
   83MOL     H934613   5.947   6.424   5.985 -0.1494  1.1969 -2.4478
   83MOL    H1034614   6.051   6.702   5.986 -0.4676  2.3819 -0.4997
   83MOL    H1134615   5.822   6.753   6.133 -0.3115 -0.3366 -2.2706
   83MOL    H1234616   5.825   6.590   6.170  1.2022 -0.9727 -1.8392
   83MOL    H1334617   6.085   6.680   6.202 -0.3363  0.2186 -2.2501
   83MOL    H1434618   6.004   6.819   6.256  0.2526 -0.5399  1.4571
   83MOL    H1534619   5.977   6.546   6.378  0.8952  0.3240  1.6068
   83MOL    H1634620   5.883   6.678   6.429 -0.6012 -1.7362  0.1677
   83MOL    H1734621   6.116   6.793   6.484  1.3014  0.7060 -0.5745
   83MOL    H1834622   6.192   6.652   6.418 -0.1021  0.7234 -1.3863
   83MOL    H1934623   6.040   6.518   6.588 -1.7090  0.3013  1.5048
   83MOL    H2034624   6.003   6.679   6.653 -0.9376 -1.2541 -0.3684
   83MOL    H2134625   6.168   6.618   6.662  0.5928 -1.2329 -0.3709
   83MOL    H2234626   6.076   6.469   6.103  0.0025 -1.5368 -0.1193
   83MOL    C2334627   5.860   6.643   5.893 -0.5707 -0.5977 -0.5656
   83MOL    C2434628   5.931   6.647   5.749 -0.2768 -0.0917 -0.4901
   83MOL    C2534629   6.004   6.778   5.709  0.0714  0.4391  0.1515
   83MOL    C2634630   6.158   6.768   5.715  0.8614 -0.0422  0.2034
   83MOL    C2734631   6.230   6.890   5.651  0.8112  0.1992 -0.2651
   83MOL    C2834632   6.197   7.014   5.728 -0.5128 -0.4185 -0.0814
   83MOL    C2934633   6.273   7.140   5.691  0.0747  0.1419 -0.0702
   83MOL    H3034634   5.792   6.559   5.903  0.4982 -1.0958  3.0919
   83MOL    H3134635   5.796   6.728   5.915  0.0003 -0.5129  0.8150
   83MOL    H3234636   6.011   6.575   5.732 -1.8358 -1.6439 -1.4201
   83MOL    H3334637   5.960   6.863   5.762 -1.4367 -0.0038 -0.3477
   83MOL    H3434638   5.984   6.794   5.603 -2.0300  0.0295  0.4564
   83MOL    H3534639   6.196   6.682   5.659  0.4211  0.3358 -0.6873
   83MOL    H3634640   6.180   6.757   5.821  0.7620 -3.8852 -0.0910
   83MOL    H3734641   6.210   6.907   5.545 -0.1396  1.7777  0.1508
   83MOL    H3834642   6.338   6.878   5.663  1.1643 -0.6675 -3.8121
   83MOL    H3934643   6.222   7.001   5.833 -0.3698  0.3497 -0.0166
   83MOL    H4034644   6.092   7.044   5.732  0.4754  2.8990  4.0370
   83MOL    H4134645   6.256   7.162   5.585  2.5473  0.1240 -0.5023
   83MOL    H4234646   6.226   7.226   5.738  0.0095  0.2404 -0.3154
   83MOL    H4334647   6.380   7.133   5.713  0.0339 -0.0247  0.0760
   83MOL    C4434648   5.820   6.618   5.645  0.5155  0.0508  0.3506
   83MOL    C4534649   5.697   6.705   5.645  0.6236  0.3425 -0.2572
   83MOL    C4634650   5.677   6.747   5.501 -0.5704 -0.4759  0.4406
   83MOL    C4734651   5.774   6.851   5.449  0.2764 -0.1581 -0.2276
   83MOL    C4834652   5.710   6.928   5.331  0.9185 -0.0312  0.0585
   83MOL    C4934653   5.800   7.010   5.246 -0.5238  0.0827 -0.3838
   83MOL    C5034654   5.861   6.930   5.131 -0.5235  0.3036 -0.2314
   83MOL    H5134655   5.798   6.512   5.631 -1.0253  0.3669  0.3683
   83MOL    H5234656   5.870   6.621   5.548 -0.6172  0.2130 -0.2415
   83MOL    H5334657   5.709   6.794   5.706  1.2095  1.8288 -2.4942
   83MOL    H5434658   5.581   6.799   5.497 -1.3872 -1.9112  0.7650
   83MOL    H5534659   5.679   6.660   5.435 -0.4655 -2.0615  2.4762
   83MOL    H5634660   5.787   6.922   5.531 -0.4244 -1.5008  1.0760
   83MOL    H5734661   5.867   6.805   5.416  0.2490  0.2833 -0.9309
   83MOL    H5834662   5.636   6.996   5.373  2.4487  1.9643 -0.4134
   83MOL    H5934663   5.654   6.860   5.268  1.7374  1.7198 -2.6183
   83MOL    H6034664   5.867   7.075   5.302 -0.4629  0.8264 -1.2924
   83MOL    H6134665   5.747   7.089   5.191 -0.1974  0.9865  0.5914
   83MOL    H6234666   5.785   6.885   5.067 -1.6711 -0.2097  1.4791
   83MOL    H6334667   5.928   6.855   5.172 -2.2114  0.1444  2.3046
   83MOL    H6434668   5.918   6.985   5.055  0.5295 -0.8530 -0.2991
   83MOL    C6534669   5.574   6.629   5.701 -0.1687  0.0211  0.4787
   83MOL    C6634670   5.452   6.712   5.740  0.4423 -0.2439 -0.2227
   83MOL    C6734671   5.478   6.800   5.862 -0.1266 -0.3090  0.2579
   83MOL    C6834672   5.368   6.915   5.888 -0.6070 -0.4447  0.0344
   83MOL    C6934673   5.362   7.026   5.778  0.5563  0.0731 -0.4912
   83MOL    C7034674   5.258   7.138   5.797 -0.1581  0.3073  0.0130
   83MOL    C7134675   5.268   7.210   5.932  0.1088 -0.3079  0.0242
   83MOL    H7234676   5.539   6.550   5.635 -1.1701  0.1733  0.8184
   83MOL    H7334677   5.612   6.570   5.784  2.8048  0.7787 -0.2719
   83MOL    H7434678   5.437   6.782   5.658  0.9937  0.1221 -0.0109
   83MOL    H7534679   5.468   6.741   5.953  0.3201 -2.5856 -1.1259
   83MOL    H7634680   5.579   6.841   5.857 -0.4155  0.5326  1.0368
   83MOL    H7734681   5.268   6.877   5.907 -1.2027  1.1497  0.0866
   83MOL    H7834682   5.396   6.962   5.982 -0.1888 -0.4715 -0.0763
   83MOL    H7934683   5.464   7.063   5.766 -0.1430  1.4875 -2.2103
   83MOL    H8034684   5.327   6.965   5.695  0.8186  1.7424 -1.8507
   83MOL    H8134685   5.152   7.111   5.796 -0.6076  1.6274  3.2495
   83MOL    H8234686   5.265   7.203   5.710 -0.6542 -0.7089 -0.7985
   83MOL    H8334687   5.190   7.287   5.933  2.5215  2.1687  1.3067
   83MOL    H8434688   5.258   7.140   6.016 -0.1919  1.8296  1.8112
   83MOL    H8534689   5.360   7.263   5.952 -0.9664  0.9104  1.9432
   83MOL    C8634690   5.327   6.618   5.773 -0.2888 -0.0963  0.5691
   83MOL    C8734691   5.234   6.610   5.641  0.9100  0.5277 -0.4744
   83MOL    C8834692   5.146   6.481   5.643 -1.2424  0.0019  0.2663
   83MOL    C8934693   5.086   6.426   5.773 -1.1472  0.5125 -0.1978
   83MOL    C9034694   4.979   6.308   5.762  0.1706 -0.5393  0.3001
   83MOL    C9134695   4.945   6.236   5.890  0.2436  0.0313 -0.0638
   83MOL    C9234696   4.825   6.148   5.866 -0.3011 -0.5216  0.2730
   83MOL    H9334697   5.360   6.519   5.803  1.5644  0.9681  2.2766
   83MOL    H9434698   5.262   6.648   5.855 -1.2270 -1.2412  0.2479
   83MOL    H9534699   5.305   6.587   5.561  1.8858 -2.7438  1.2459
   83MOL    H9634700   5.064   6.492   5.572 -1.4338  1.2577  0.6754
   83MOL    H9734701   5.202   6.398   5.600  0.1991 -0.7858  3.5037
   83MOL    H9834702   5.164   6.381   5.835 -0.9964 -1.8482 -1.9952
   83MOL    H9934703   5.047   6.506   5.835 -1.6676 -0.3644  0.6195
   83MOL   H10034704   5.005   6.230   5.690  0.0490  0.1119 -0.4503
   83MOL   H10134705   4.891   6.358   5.723  1.2500 -0.0211 -1.5424
   83MOL   H10234706   5.030   6.181   5.930 -1.3195 -2.5331 -0.1981
   83MOL   H10334707   4.933   6.309   5.971 -1.9828  0.8356 -1.0817
   83MOL   H10434708   4.811   6.082   5.951 -0.2247 -1.5067 -0.4645
   83MOL   H10534709   4.826   6.090   5.774  0.0563  1.7557 -1.2055
   83MOL   H10634710   4.741   6.217   5.861 -0.7587 -0.6724  4.3728
   83MOL   C10734711   5.138   6.732   5.626 -0.1272 -0.0531  0.2235
   83MOL   C10834712   5.100   6.778   5.485  0.0853  0.2722 -0.1000
   83MOL   C10934713   4.955   6.833   5.468  0.4169  0.0531  0.3011
   83MOL   C11034714   4.851   6.729   5.454 -0.0770  0.2542 -0.0371
   83MOL   C11134715   4.708   6.768   5.466 -0.6501  0.6207  0.2524
   83MOL   C11234716   4.655   6.893   5.383 -0.7077  0.7969  0.3599
   83MOL   C11334717   4.505   6.923   5.390  0.5266 -0.4816  0.2164
   83MOL   H11434718   5.177   6.821   5.676 -3.0656  0.1874  2.2069
   83MOL   H11534719   5.048   6.709   5.684  0.0532 -2.3274 -0.3591
   83MOL   H11634720   5.100   6.686   5.426  0.7721 -0.2520  0.7189
   83MOL   H11734721   4.938   6.890   5.377  0.2777 -0.6380 -0.1134
   83MOL   H11834722   4.925   6.895   5.552 -1.1609 -0.7578  0.3657
   83MOL   H11934723   4.857   6.696   5.350 -2.1047 -2.8822  0.7881
   83MOL   H12034724   4.884   6.641   5.508  2.8987  0.3130 -1.6280
   83MOL   H12134725   4.709   6.786   5.574  2.2236  1.1164  0.1643
   83MOL   H12234726   4.649   6.680   5.438 -0.4907  0.2796  0.9738
   83MOL   H12334727   4.708   6.977   5.428 -1.5755  1.8974 -0.6330
   83MOL   H12434728   4.694   6.889   5.282  0.6270 -0.9633  0.9279
   83MOL   H12534729   4.470   6.997   5.318  2.4338 -0.4191 -0.6701
   83MOL   H12634730   4.457   6.827   5.367 -0.0744 -0.3591  0.9291
   83MOL   H12734731   4.465   6.964   5.482  2.2370 -0.9665  1.1768
   83MOL   C12834732   5.214   6.867   5.427  0.7917 -0.2824 -0.4624
   83MOL   C12934733   5.204   6.883   5.275  0.3529  0.2064  0.2049
   83MOL   C13034734   5.235   6.750   5.193  0.0635  0.2033 -0.2067
   83MOL   C13134735   5.379   6.698   5.204 -0.1059 -0.1845  0.3453
   83MOL   C13234736   5.409   6.576   5.123 -0.2717  0.1033 -0.4030
   83MOL   C13334737   5.387   6.601   4.972 -0.0254  0.1539 -0.3819
   83MOL   C13434738   5.435   6.496   4.869  0.8193  0.2629 -1.0656
   83MOL   H13534739   5.195   6.959   5.483  1.4065 -1.5546  1.8607
   83MOL   H13634740   5.316   6.841   5.453  1.1957  1.1656 -0.5177
   83MOL   H13734741   5.103   6.917   5.252  0.5417 -0.4796 -1.8052
   83MOL   H13834742   5.221   6.764   5.086 -2.8517 -1.1464 -0.0511
   83MOL   H13934743   5.166   6.670   5.220  1.0437 -1.1816 -1.7274
   83MOL   H14034744   5.402   6.665   5.305 -0.6465 -2.6363 -0.2991
   83MOL   H14134745   5.452   6.774   5.176 -0.4540 -0.7110 -2.0477
   83MOL   H14234746   5.335   6.507   5.165  0.5928 -2.5480 -2.9892
   83MOL   H14334747   5.510   6.540   5.141 -0.7126 -0.0556  1.8294
   83MOL   H14434748   5.431   6.696   4.943  0.1527  0.2191  0.0998
   83MOL   H14534749   5.286   6.625   4.940  0.4189  1.8055 -0.5904
   83MOL   H14634750   5.385   6.400   4.882  2.0534 -0.0995  1.2032
   83MOL   H14734751   5.544   6.486   4.869  0.8774  0.4664  2.4884
   83MOL   H14834752   5.398   6.531   4.772  0.0629  3.9493  0.4710
   83MOL   C14934753   5.304   6.992   5.226 -0.8060  0.0789 -0.4223
   83MOL   C15034754   5.286   7.142   5.265 -0.6752  1.1212  0.0823
   83MOL   C15134755   5.138   7.196   5.251  0.3802 -0.2463 -0.1903
   83MOL   C15234756   5.061   7.168   5.118  0.0846 -0.1396 -0.1827
   83MOL   C15334757   4.910   7.158   5.148 -0.0096  0.8231 -0.1533
   83MOL   C15434758   4.826   7.117   5.028 -0.1266  0.0743  0.2353
   83MOL   C15534759   4.678   7.108   5.058  0.6214 -0.5590  0.0616
   83MOL   H15634760   5.409   6.965   5.240 -1.0764 -0.0341  1.5362
   83MOL   H15734761   5.293   6.982   5.118 -0.9904 -1.8528 -0.2364
   83MOL   H15834762   5.314   7.141   5.370 -0.3829 -1.2234  0.0065
   83MOL   H15934763   5.083   7.172   5.342 -0.2747  0.6091 -0.3469
   83MOL   H16034764   5.133   7.305   5.251 -0.7326 -0.2608 -2.4241
   83MOL   H16134765   5.093   7.073   5.074 -2.6757 -1.9768  1.6230
   83MOL   H16234766   5.097   7.244   5.048 -1.2884  1.9550  1.3326
   83MOL   H16334767   4.884   7.252   5.198  0.1137 -0.0609  1.6442
   83MOL   H16434768   4.899   7.088   5.231  0.6777  0.9030  0.0062
   83MOL   H16534769   4.857   7.020   4.991 -0.1826  0.2197 -0.1877
   83MOL   H16634770   4.838   7.177   4.938  2.0604 -0.6091  0.0465
   83MOL   H16734771   4.663   7.034   5.137 -1.0172 -0.4255 -0.1130
   83MOL   H16834772   4.609   7.074   4.980 -0.0409 -0.4842  0.6140
   83MOL   H16934773   4.631   7.196   5.102  1.0601  0.2112 -0.9768
   83MOL   C17034774   5.384   7.231   5.184 -0.1454 -0.0067 -0.6935
   83MOL   C17134775   5.409   7.372   5.240  0.2549  0.2456 -0.4787
   83MOL   C17234776   5.478   7.364   5.382  0.0282  0.0217  0.2192
   83MOL   C17334777   5.616   7.311   5.381 -0.3714 -0.0698 -0.2327
   83MOL   C17434778   5.676   7.272   5.522 -0.3078 -0.6646  0.9718
   83MOL   C17534779   5.722   7.386   5.608  0.4936 -0.3156  0.7538
   83MOL   C17634780   5.751   7.355   5.755  0.1421 -1.1204  0.0134
   83MOL   H17734781   5.364   7.230   5.077 -0.8553 -1.3987 -0.5668
   83MOL   H17834782   5.480   7.178   5.185  0.7570  1.5204 -2.5106
   83MOL   H17934783   5.313   7.420   5.258  0.3452 -0.0492  0.8237
   83MOL   H18034784   5.419   7.301   5.450  0.7793  0.4886  1.3161
   83MOL   H18134785   5.470   7.459   5.435  3.2692 -0.0635  0.9589
   83MOL   H18234786   5.678   7.384   5.330 -0.4877  0.7650  0.7894
   83MOL   H18334787   5.616   7.219   5.323 -1.1384 -0.1961 -0.0336
   83MOL   H18434788   5.762   7.208   5.506 -0.3514 -0.4393 -0.2779
   83MOL   H18534789   5.606   7.208   5.576 -0.7346 -1.7483 -0.8131
   83MOL   H18634790   5.662   7.477   5.610 -1.0544 -1.3142  0.1376
   83MOL   H18734791   5.823   7.415   5.577 -0.1450  0.0964 -0.9972
   83MOL   H18834792   5.787   7.254   5.776  1.4240 -0.4121  1.3109
   83MOL   H18934793   5.666   7.375   5.820 -0.6801  3.1329 -2.2095
   83MOL   H19034794   5.819   7.432   5.792 -0.3371 -0.7818  0.1913
   83MOL   C19134795   5.478   7.472   5.148  0.0957 -0.2210 -0.2977
   83MOL   C19234796   5.395   7.533   5.026 -0.3203 -0.5436  0.3889
   83MOL   C19334797   5.290   7.641   5.062  0.4195 -0.9114 -0.1176
   83MOL   C19434798   5.203   7.685   4.947  0.4831 -0.7394  0.4200
   83MOL   C19534799   5.114   0.086   4.982 -0.5114 -0.0793 -0.2670
   83MOL   C19634800   5.018   0.129   4.873  0.4098 -0.2310  0.4699
   83MOL   C19734801   4.931   0.241   4.934  0.4028  0.3973  0.0692
   83MOL   H19834802   5.573   7.429   5.115  0.7449  0.0329  1.2118
   83MOL   H19934803   5.501   7.566   5.200 -1.4944  1.1987 -2.0732
   83MOL   H20034804   5.348   7.445   4.983 -2.0936  1.1937 -1.2926
   83MOL   H20134805   5.340   0.020   5.088  1.9838 -2.5361  2.8656
   83MOL   H20234806   5.227   7.615   5.147  0.7007  0.5565  0.5430
   83MOL   H20334807   5.145   7.616   4.885 -1.2073  2.1581 -1.3464
   83MOL   H20434808   5.259   0.017   4.865 -0.4949 -1.2861 -0.5818
   83MOL   H20534809   5.058   0.057   5.071  0.1885  0.8762  0.4924
   83MOL   H20634810   5.169   0.172   5.021 -1.3881  0.1087  0.5815
   83MOL   H20734811   4.959   0.042   4.845 -0.3488  0.6825 -0.8340
   83MOL   H20834812   5.068   0.169   4.785 -0.1685 -2.0179 -0.6893
   83MOL   H20934813   4.875   0.290   4.855  0.8293 -1.3452 -1.3404
   83MOL   H21034814   4.992   0.324   4.969 -0.2675  1.6145 -1.5796
   83MOL   H21134815   4.862   0.213   5.014  0.7262  2.2736  1.0333
   83MOL   C21234816   5.501   7.595   4.925  0.7021 -0.1672 -0.2842
   83MOL   C21334817   5.588   7.499   4.839  0.2019  0.3517  0.5058
   83MOL   C21434818   5.530   7.435   4.710  0.0540 -0.2564 -0.1540
   83MOL   C21534819   5.588   7.303   4.666 -0.1025  0.5355 -0.5370
   83MOL   C21634820   5.528   7.187   4.743 -0.0197 -0.3567 -0.2945
   83MOL   C21734821   5.396   7.130   4.695 -0.4518 -0.3070 -0.4391
   83MOL   C21834822   5.332   7.026   4.795 -0.1814  0.5494  0.2249
   83MOL   H21934823   5.570   7.661   4.978  0.2459 -0.8991  1.2473
   83MOL   H22034824   5.453   7.654   4.847  2.1932  1.1071 -0.2775
   83MOL   H22134825   5.607   7.413   4.902 -0.0938 -0.5964 -0.6863
   83MOL   H22234826   5.429   7.406   4.737  0.4525 -2.0322 -0.4491
   83MOL   H22334827   5.523   7.513   4.634 -0.5797 -0.3822 -0.2273
   83MOL   H22434828   5.697   7.305   4.667 -0.0581 -1.0971 -0.6657
   83MOL   H22534829   5.558   7.306   4.561  0.8597  0.6317 -0.8102
   83MOL   H22634830   5.597   7.104   4.725  1.3398  0.7820 -0.4994
   83MOL   H22734831   5.516   7.204   4.850 -2.3671 -0.8932 -0.4466
   83MOL   H22834832   5.322   7.208   4.684 -2.8108 -2.1960  1.3274
   83MOL   H22934833   5.416   7.085   4.598 -0.9645 -0.2436 -0.5710
   83MOL   H23034834   5.238   6.981   4.765 -0.5393  0.0602  2.0471
   83MOL   H23134835   5.309   7.073   4.891  0.8146  0.0233  0.7275
   83MOL   H23234836   5.409   6.955   4.825 -1.1205  0.0976  1.5828
   83MOL   C23334837   5.723   7.578   4.799 -0.5194  0.2186  0.0085
   83MOL   C23434838   5.831   7.565   4.911  0.2186  0.3643 -0.4403
   83MOL   C23534839   5.902   7.423   4.915  0.4253 -0.4455 -0.2873
   83MOL   C23634840   5.985   7.386   4.790 -0.0658  0.5098  0.7329
   83MOL   C23734841   6.080   7.264   4.812  0.3046  0.1245 -0.0048
   83MOL   C23834842   6.167   7.230   4.694 -0.2988  0.6711 -0.6820
   83MOL   C23934843   6.255   7.105   4.717 -0.1840  0.0261 -0.2574
   83MOL   H24034844   5.704   7.681   4.767  0.9932 -0.2495 -2.5233
   83MOL   H24134845   5.761   7.541   4.704 -0.9840 -2.8793  0.9940
   83MOL   H24234846   5.782   7.587   5.006 -1.0739 -2.1250 -0.5053
   83MOL   H24334847   5.824   7.346   4.914 -0.5977  0.5911 -0.8322
   83MOL   H24434848   5.970   7.415   5.000  1.5182 -1.0695 -1.2072
   83MOL   H24534849   6.053   7.467   4.761  0.6037 -0.2089  0.2859
   83MOL   H24634850   5.920   7.377   4.703  1.5289  3.1125 -0.8003
   83MOL   H24734851   6.032   7.177   4.856  1.4225 -0.5499 -0.0840
   83MOL   H24834852   6.147   7.296   4.893 -2.2799  0.5149  2.0333
   83MOL   H24934853   6.114   7.223   4.599  0.7790 -2.4030 -1.1079
   83MOL   H25034854   6.248   7.303   4.684  0.1327  0.4942  1.2604
   83MOL   H25134855   6.322   7.126   4.801 -0.3857  1.2611 -0.3989
   83MOL   H25234856   6.206   7.014   4.750  0.4997 -0.4543 -0.5416
   83MOL   H25334857   6.307   7.078   4.625 -3.5503 -0.5763 -2.0240
   83MOL   C25434858   5.925   7.683   4.883 -0.0689 -0.7094 -0.3235
   83MOL   C25534859   6.027   7.712   5.003 -0.1361 -0.6023  0.3978
   83MOL   C25634860   5.949   0.074   5.114  0.2844 -0.5101 -0.1338
   83MOL   C25734861   5.923   0.003   5.251  0.2228  0.6399 -0.6032
   83MOL   C25834862   5.800   0.072   5.318 -0.1274  0.0269  0.2858
   83MOL   C25934863   5.744   7.711   5.432 -0.3429  0.3213  0.3041
   83MOL   C26034864   5.611   0.064   5.489 -0.1658  0.0773 -0.6725
   83MOL   H26134865   5.872   0.064   4.874 -0.2737 -0.5270  2.4798
   83MOL   H26234866   5.989   7.659   4.798 -0.8517 -0.2277 -1.0439
   83MOL   H26334867   6.075   7.619   5.033  1.5709  0.2510  0.3754
   83MOL   H26434868   5.850   0.102   5.077  0.8939 -1.2116 -2.4160
   83MOL   H26534869   5.981   0.177   5.130 -0.8175  0.0654 -1.5085
   83MOL   H26634870   5.906   7.610   5.236  0.6137  0.3422  0.9912
   83MOL   H26734871   6.016   0.007   5.307 -0.0216  1.0437 -0.2225
   83MOL   H26834872   5.716   0.085   5.250 -0.5772  0.9315  1.0098
   83MOL   H26934873   5.818   0.172   5.356  0.8902  0.5812 -1.6114
   83MOL   H27034874   5.725   7.608   5.403  0.2355  0.8612 -2.0511
   83MOL   H27134875   5.812   7.711   5.517 -1.2445 -1.2387  1.0642
   83MOL   H27234876   5.626   0.167   5.521 -1.4860 -0.2783  1.2150
   83MOL   H27334877   5.539   0.059   5.407 -0.3298  0.8128 -0.5777
   83MOL   H27434878   5.577   0.013   5.579  0.1525 -0.5265 -0.8923
   83MOL   C27534879   6.142   0.090   4.954 -0.3096 -0.7062  0.0595
   83MOL   C27634880   6.259   0.016   4.882  0.1057  0.3432 -0.5771
   83MOL   C27734881   6.346   7.675   4.991  0.6584  0.2141  0.0916
   83MOL   C27834882   6.402   7.536   4.959  0.6776  0.4752  0.3144
   83MOL   C27934883   6.460   7.456   5.076 -0.3990 -0.2100  0.0401
   83MOL   C28034884   6.491   7.310   5.021  0.4147  0.1887 -0.4869
   83MOL   C28134885   6.581   7.240   5.119  0.5899  0.1586  0.6017
   83MOL   H28234886   6.190   0.137   5.041 -0.3416  0.8024 -0.7168
   83MOL   H28334887   6.117   0.184   4.905 -1.8521 -0.8233  0.6194
   83MOL   H28434888   6.209   7.641   4.841 -3.4755  2.3070 -0.6432
   83MOL   H28534889   6.423   0.036   5.008  0.6615  0.3762 -0.6055
   83MOL   H28634890   6.299   7.669   5.089  1.2154 -0.1809  0.3387
   83MOL   H28734891   6.467   7.538   4.872  1.5030 -0.0400  0.9056
   83MOL   H28834892   6.318   7.474   4.929  0.0899  1.6810 -0.5421
   83MOL   H28934893   6.388   7.452   5.157 -0.1861  0.6363  0.2733
   83MOL   H29034894   6.549   7.507   5.114 -0.3116  0.2154 -0.7248
   83MOL   H29134895   6.396   7.258   5.005 -0.0813  0.7680  0.5395
   83MOL   H29234896   6.533   7.317   4.921  0.6680  3.6549 -0.2032
   83MOL   H29334897   6.560   7.135   5.099 -0.4579  0.0779  2.0248
   83MOL   H29434898   6.563   7.261   5.225 -0.0598  1.1594  0.3002
   83MOL   H29534899   6.690   7.246   5.112  0.6678 -0.5768  1.1376
   83MOL   C29634900   6.339   0.098   4.782  0.8083 -0.4348  0.1677
   83MOL   C29734901   6.269   0.126   4.644 -0.4954  0.0171 -0.0390
   83MOL   C29834902   6.332   0.056   4.522 -0.2007 -0.2425  0.1086
   83MOL   C29934903   6.376   7.630   4.547  0.0627  0.3372  0.6555
   83MOL   C30034904   6.412   7.565   4.414  0.3760 -0.0971 -0.3787
   83MOL   C30134905   6.410   7.414   4.430  0.1629  0.1517 -0.4803
   83MOL   C30234906   6.533   7.358   4.511 -0.4530  0.4991 -0.4929
   83MOL   H30334907   6.348   0.197   4.827 -2.2355  0.7124 -1.6355
   83MOL   H30434908   6.440   0.058   4.772  0.2058 -1.6285 -1.3602
   83MOL   H30534909   6.172   0.080   4.664  0.4513 -2.6724 -1.5294
   83MOL   H30634910   6.259   0.055   4.442  2.2566  1.3090 -2.2440
   83MOL   H30734911   6.415   0.103   4.468 -0.0534 -0.3259  0.2602
   83MOL   H30834912   6.282   7.586   4.580 -2.2402  2.4492 -2.7122
   83MOL   H30934913   6.448   7.614   4.627  1.3150 -0.1248 -0.5309
   83MOL   H31034914   6.516   7.589   4.391  0.9709 -1.9824  0.2172
   83MOL   H31134915   6.359   7.590   4.322 -2.2604 -4.2607 -0.1188
   83MOL   H31234916   6.316   7.380   4.472  1.5644 -2.4452  0.7109
   83MOL   H31334917   6.412   7.363   4.334  1.4554  0.5029 -0.6554
   83MOL   H31434918   6.627   7.389   4.466  0.0436 -1.1508 -0.6028
   83MOL   H31534919   6.527   7.393   4.614 -0.0621  1.3008 -0.7410
   83MOL   H31634920   6.537   7.249   4.513 -2.6236  0.3716 -1.2745
   83MOL   C31734921   6.229   0.274   4.624 -0.5024  0.0450 -0.1447
   83MOL   C31834922   6.098   0.305   4.546  0.7634 -0.0856 -0.2566
   83MOL   C31934923   5.981   0.326   4.649 -0.8336  0.3444 -0.2982
   83MOL   C32034924   5.835   0.332   4.597 -0.3559  0.0038  0.2846
   83MOL   C32134925   5.736   0.327   4.714  0.7403  0.4781 -0.1120
   83MOL   C32234926   5.592   0.334   4.654 -0.2084 -0.0258  0.0313
   83MOL   C32334927   5.480   0.349   4.756  0.3056 -0.3578 -0.5632
   83MOL   H32434928   6.321   0.326   4.597 -0.7484  0.4160 -0.2747
   83MOL   H32534929   6.204   0.311   4.723  0.2775  0.2908 -0.0418
   83MOL   H32634930   6.071   0.214   4.492 -0.5731 -0.4672  1.0098
   83MOL   H32734931   6.004   0.417   4.704 -2.6959  1.0326 -0.6158
   83MOL   H32834932   5.981   0.243   4.720 -0.3137  1.7935  1.4404
   83MOL   H32934933   5.814   0.254   4.523 -0.7122  0.9981 -0.6893
   83MOL   H33034934   5.826   0.429   4.548  1.3201 -0.4469 -0.9643
   83MOL   H33134935   5.754   0.410   4.782 -0.0631  0.8670 -0.3711
   83MOL   H33234936   5.747   0.241   4.780  0.1141  0.6739  0.2599
   83MOL   H33334937   5.571   0.241   4.602 -2.3489  0.1971  0.4823
   83MOL   H33434938   5.587   0.415   4.581  0.4046  1.1359  1.2616
   83MOL   H33534939   5.487   0.270   4.831 -0.5995  0.1899  0.1181
   83MOL   H33634940   5.387   0.337   4.700  0.3144  0.9770 -0.8720
   83MOL   H33734941   5.479   0.438   4.820  1.9605 -0.2205 -0.7295
   83MOL   C33834942   6.109   0.429   4.453 -0.4417 -0.6100  0.2902
   83MOL   C33934943   6.178   0.413   4.312 -0.0076 -0.2405 -0.2283
   83MOL   C34034944   6.195   0.553   4.243 -0.0354  0.2095  0.6874
   83MOL   C34134945   6.060   0.609   4.186 -0.8154 -0.5009 -0.2100
   83MOL   C34234946   6.078   0.743   4.129  0.9065 -1.0258  0.2689
   83MOL   C34334947   5.949   0.799   4.051  0.1722  0.6636 -0.0069
   83MOL   C34434948   5.933   0.732   3.908 -0.1997 -0.1935 -0.9197
   83MOL   H34534949   6.160   0.505   4.512 -0.2508 -0.8500  0.4290
   83MOL   H34634950   6.009   0.469   4.433  1.1390  3.0751 -0.7837
   83MOL   H34734951   6.275   0.367   4.331 -0.9602 -2.3742 -0.4481
   83MOL   H34834952   6.236   0.620   4.319  1.2569  1.0795 -0.7445
   83MOL   H34934953   6.271   0.541   4.166 -0.1706 -1.6793  0.8246
   83MOL   H35034954   5.978   0.600   4.258 -1.3154  2.7150 -0.3107
   83MOL   H35134955   6.031   0.556   4.095 -0.8593  0.7723 -0.9482
   83MOL   H35234956   6.101   0.810   4.212 -0.7426 -1.5035  1.1275
   83MOL   H35334957   6.168   0.742   4.067  1.2422 -1.5478  0.7624
   83MOL   H35434958   5.858   0.798   4.111  1.0709 -0.2756  1.4048
   83MOL   H35534959   5.963   0.903   4.023  1.8541  0.5580  0.3513
   83MOL   H35634960   5.839   0.764   3.863 -0.9677  0.4455  1.0795
   83MOL   H35734961   5.934   0.623   3.910 -0.2394 -0.1898 -0.5459
   83MOL   H35834962   6.011   0.758   3.836 -0.1175  1.7064 -0.1825
   83MOL   C35934963   6.099   0.311   4.221 -0.6934  0.7311  0.0779
   83MOL   C36034964   6.177   0.258   4.101 -0.3511 -0.6318 -0.1024
   83MOL   C36134965   6.292   0.159   4.138  0.1717 -0.9179 -0.3832
   83MOL   C36234966   6.415   0.176   4.052 -0.7748  0.9901  0.4507
   83MOL   C36334967   6.520   0.064   4.061 -0.1802 -0.4412 -1.0922
   83MOL   C36434968   6.657   0.080   3.993 -0.5517 -0.2150  0.2186
   83MOL   C36534969   6.751   0.155   4.089  0.1654 -0.2075 -0.0986
   83MOL   H36634970   6.004   0.355   4.192 -2.0293 -0.6261  2.2605
   83MOL   H36734971   6.068   0.232   4.289 -1.6487  1.1816  0.1708
   83MOL   H36834972   6.217   0.347   4.051  2.3888 -1.2758  0.8854
   83MOL   H36934973   6.320   0.170   4.243  3.7955  1.0696 -1.4565
   83MOL   H37034974   6.252   0.060   4.116 -0.0965 -0.6880 -0.9447
   83MOL   H37134975   6.396   0.189   3.945 -0.3588  1.3988  0.4197
   83MOL   H37234976   6.469   0.269   4.074  2.3574 -0.2098 -1.6830
   83MOL   H37334977   6.526   0.015   4.159  0.6526 -1.1586 -1.4910
   83MOL   H37434978   6.482   7.688   4.011 -1.1091 -0.3093 -0.6313
   83MOL   H37534979   6.692   7.693   3.966 -3.4966 -0.7551 -1.8135
   83MOL   H37634980   6.647   0.138   3.901 -1.9908 -0.2684  0.3275
   83MOL   H37734981   6.848   0.169   4.042  0.6066 -2.8048 -0.0520
   83MOL   H37834982   6.703   0.249   4.117 -1.6522  0.0359 -3.7874
   83MOL   H37934983   6.771   0.094   4.177 -1.0081  0.6365  0.7714
   83MOL   C38034984   6.074   0.184   4.009 -0.0038 -0.7475  1.0043
   83MOL   C38134985   5.979   0.264   3.916 -0.1187  0.6519 -0.0936
   83MOL   C38234986   6.060   0.361   3.822 -0.2151  0.6094 -0.4513
   83MOL   C38334987   6.003   0.417   3.695 -0.4958  0.2004 -0.8602
   83MOL   C38434988   6.099   0.510   3.617 -0.0363  0.5967 -0.2932
   83MOL   C38534989   6.019   0.582   3.506  0.5558  0.3482  0.9753
   83MOL   C38634990   6.111   0.641   3.396 -0.1388 -0.2038 -0.4951
   83MOL   H38734991   6.137   0.132   3.937  2.0084 -0.0811  2.2371
   83MOL   H38834992   6.022   0.109   4.069 -2.1897  0.6244  0.8519
   83MOL   H38934993   5.904   0.319   3.973 -1.2618  0.4599 -1.3866
   83MOL   H39034994   6.154   0.308   3.807 -0.7672 -0.0873 -1.4690
   83MOL   H39134995   6.075   0.446   3.889 -0.5631  2.5920 -2.8404
   83MOL   H39234996   5.960   0.337   3.634 -0.5723  0.4025 -1.0699
   83MOL   H39334997   5.916   0.475   3.725  0.3536  1.0542 -0.0297
   83MOL   H39434998   6.166   0.571   3.678 -0.6303 -1.5044  2.5688
   83MOL   H39534999   6.166   0.443   3.564 -1.1599 -0.4446 -0.4298
   83MOL   H39635000   5.957   0.659   3.552 -1.2010  0.5530 -1.6627
   83MOL   H39735001   5.939   0.520   3.464 -0.2039  1.6384  0.5047
   83MOL   H39835002   6.168   0.566   3.341  1.6563  1.2190 -0.6192
   83MOL   H39935003   6.177   0.715   3.442 -2.2979  0.4304  1.6823
   83MOL   H40035004   6.035   0.688   3.335 -1.2792 -0.9137  0.3507
   83MOL   C40135005   5.885   0.181   3.823 -0.3971  0.8635 -0.1064
   83MOL   C40235006   5.815   0.062   3.888  0.2084 -0.4239  0.5907
   83MOL   C40335007   5.694   0.016   3.806 -0.6737  0.2482 -0.8332
   83MOL   C40435008   5.711   7.693   3.659  0.4772  0.1716  0.9116
   83MOL   C40535009   5.603   7.597   3.609  0.0877 -0.0819  0.0666
   83MOL   C40635010   5.621   7.550   3.462  0.6732  0.9458 -0.3379
   83MOL   C40735011   5.510   7.461   3.408  0.1893 -0.5633  0.7642
   83MOL   H40835012   5.929   0.148   3.729  0.4100  0.7162  0.3187
   83MOL   H40935013   5.797   0.241   3.802 -1.3219 -0.6468 -0.5744
   83MOL   H41035014   5.772   0.088   3.984  1.0334  1.3985  0.4916
   83MOL   H41135015   5.621   0.095   3.822 -2.9259 -2.1521  1.3099
   83MOL   H41235016   5.651   7.643   3.857  2.8064  0.0434  1.9825
   83MOL   H41335017   5.814   7.662   3.638 -0.5467 -1.6622 -1.5259
   83MOL   H41435018   5.695   0.075   3.610  0.6333 -0.5525 -0.5561
   83MOL   H41535019   5.613   7.506   3.669  0.3283 -1.0011 -1.3258
   83MOL   H41635020   5.511   7.651   3.629  0.4459  0.3877  0.4585
   83MOL   H41735021   5.617   7.631   3.388 -0.5634 -1.7276 -3.3229
   83MOL   H41835022   5.725   7.522   3.446  0.4045 -0.8061  0.8556
   83MOL   H41935023   5.492   7.375   3.473  0.1398 -2.5742 -1.8137
   83MOL   H42035024   5.531   7.412   3.313 -0.0761 -2.4769  1.6733
   83MOL   H42135025   5.415   7.512   3.391  0.3439 -1.1825 -2.3041
   83MOL   H42235026   5.889   7.696   3.895 -1.1166 -1.5896  1.6959
   84MOL     C135027   1.556   3.224   3.458 -0.1917 -0.7672 -0.7770
   84MOL     C235028   1.579   3.263   3.608 -0.6534  0.2993  0.2474
   84MOL     C335029   1.617   3.416   3.627  0.0831 -0.0565 -0.1695
   84MOL     C435030   1.503   3.519   3.592  0.4187 -0.1620 -0.1850
   84MOL     C535031   1.540   3.658   3.617  0.3551 -0.8131 -0.2920
   84MOL     C635032   1.625   3.723   3.514 -0.1366  1.0828  0.7329
   84MOL     C735033   1.561   3.730   3.373  0.2140 -0.3860 -0.3778
   84MOL     H835034   1.653   3.229   3.408  1.3554  0.1579  2.2336
   84MOL     H935035   1.486   3.295   3.415 -0.4944  0.1871  1.2542
   84MOL    H1035036   1.487   3.243   3.662 -0.7032 -2.9398 -0.8867
   84MOL    H1135037   1.644   3.429   3.732  0.8690 -0.2006 -0.3466
   84MOL    H1235038   1.705   3.439   3.566  0.5391  1.8241  1.1326
   84MOL    H1335039   1.475   3.511   3.487 -3.0749 -1.2488  0.7436
   84MOL    H1435040   1.410   3.483   3.638 -0.0250  1.0236 -0.1513
   84MOL    H1535041   1.586   3.676   3.714 -0.3893  3.0914 -0.5727
   84MOL    H1635042   1.449   3.718   3.620 -0.4484 -2.0981  1.7463
   84MOL    H1735043   1.721   3.672   3.516 -0.3153  0.7831  3.0974
   84MOL    H1835044   1.643   3.828   3.537  0.5963  0.9600  0.7177
   84MOL    H1935045   1.458   3.766   3.375 -0.2571 -1.6085 -1.7155
   84MOL    H2035046   1.567   3.638   3.316 -1.1363 -1.3145  0.9489
   84MOL    H2135047   1.610   3.810   3.317  1.1112  1.1972  2.4996
   84MOL    H2235048   1.519   3.122   3.442  1.3505 -1.2395 -1.5251
   84MOL    C2335049   1.692   3.174   3.673  0.2635 -0.3028 -0.2652
   84MOL    C2435050   1.657   3.023   3.689 -0.2492 -0.0547  0.4346
   84MOL    C2535051   1.680   2.969   3.832 -0.4904 -0.7723 -0.1634
   84MOL    C2635052   1.823   2.960   3.867 -0.9429 -0.0631 -0.3706
   84MOL    C2735053   1.851   2.919   4.015  0.8909  0.2350  0.1747
   84MOL    C2835054   1.999   2.891   4.046  0.1535 -0.5424  0.0133
   84MOL    C2935055   2.028   2.898   4.194 -0.1775  0.0212 -0.0164
   84MOL    H3035056   1.788   3.181   3.623  1.1827  1.0189  1.6191
   84MOL    H3135057   1.703   3.217   3.773 -1.6689 -0.2416 -0.0506
   84MOL    H3235058   1.551   3.024   3.663  0.2694 -1.1464 -1.7832
   84MOL    H3335059   1.629   2.874   3.849  0.8394 -1.7729 -1.6237
   84MOL    H3435060   1.625   3.032   3.901  1.0463 -0.9990  1.3120
   84MOL    H3535061   1.872   3.054   3.842 -1.5151  0.3645  0.1234
   84MOL    H3635062   1.880   2.889   3.807  0.7267  0.5063  0.4911
   84MOL    H3735063   1.786   2.833   4.035 -0.2356  0.6228 -1.7181
   84MOL    H3835064   1.815   2.995   4.084 -0.6958 -0.9672  0.6988
   84MOL    H3935065   2.063   2.967   4.003  0.5650 -0.3595  0.9292
   84MOL    H4035066   2.026   2.795   4.002  1.4975 -0.6517  1.0266
   84MOL    H4135067   1.980   2.824   4.258  1.5716 -0.0760  1.2305
   84MOL    H4235068   2.135   2.890   4.210 -0.1322  1.6306  0.5758
   84MOL    H4335069   1.999   2.992   4.242 -0.3449  0.3515 -0.7582
   84MOL    C4435070   1.734   2.934   3.584  0.9304  0.0995 -0.3059
   84MOL    C4535071   1.689   2.787   3.561 -0.4726 -0.1351  0.0891
   84MOL    C4635072   1.558   2.786   3.479  0.1309 -0.0980  0.4821
   84MOL    C4735073   1.486   2.651   3.497 -0.2521  0.6180 -0.7510
   84MOL    C4835074   1.343   2.634   3.442  1.1223  0.1952  0.5126
   84MOL    C4935075   1.333   2.655   3.291 -0.3355 -0.0474  0.9629
   84MOL    C5035076   1.410   2.558   3.203  0.2917 -0.7553  0.4390
   84MOL    H5135077   1.842   2.941   3.594  0.6642  2.6782  1.2348
   84MOL    H5235078   1.729   2.987   3.489 -2.7436  0.9118  0.2477
   84MOL    H5335079   1.664   2.740   3.656 -0.8094  0.0130  0.0742
   84MOL    H5435080   1.578   2.805   3.374 -0.6543  2.2142  0.7250
   84MOL    H5535081   1.490   2.868   3.501  0.7669  0.4797  0.2971
   84MOL    H5635082   1.551   2.577   3.449 -1.9870 -1.3901 -0.0931
   84MOL    H5735083   1.496   2.620   3.601  1.9391  2.7945 -0.2712
   84MOL    H5835084   1.279   2.710   3.486  0.4584 -0.2053  0.2462
   84MOL    H5935085   1.312   2.534   3.470 -1.7904  2.0078  4.2558
   84MOL    H6035086   1.358   2.758   3.264 -2.5856 -0.3242 -2.4788
   84MOL    H6135087   1.226   2.649   3.272 -0.4206 -3.2151  2.1731
   84MOL    H6235088   1.416   2.606   3.105 -1.6314 -1.9062 -0.2770
   84MOL    H6335089   1.371   2.456   3.210  1.5038 -1.6453 -3.9441
   84MOL    H6435090   1.515   2.561   3.233  0.5080 -2.3065 -0.1193
   84MOL    C6535091   1.805   2.703   3.502  0.2407  0.0384  0.5141
   84MOL    C6635092   1.831   2.714   3.348  0.1577  0.0168 -0.2991
   84MOL    C6735093   1.820   2.569   3.285  0.4296 -0.3468 -0.5397
   84MOL    C6835094   1.924   2.464   3.334 -0.6501 -0.7923 -0.7464
   84MOL    C6935095   1.920   2.327   3.259  0.4849  0.2550  0.4466
   84MOL    C7035096   1.994   2.217   3.338 -0.5889  0.1140 -0.1822
   84MOL    C7135097   2.150   2.223   3.321 -0.0230 -0.6922  0.2182
   84MOL    H7235098   1.895   2.724   3.561  0.6749  0.5325 -0.3107
   84MOL    H7335099   1.768   2.607   3.537  1.1712 -0.4100  0.2963
   84MOL    H7435100   1.762   2.778   3.293 -0.4097  0.2595  0.6838
   84MOL    H7535101   1.722   2.526   3.305  0.9144 -1.4435 -0.5203
   84MOL    H7635102   1.825   2.587   3.177 -2.6084  1.4377 -0.4493
   84MOL    H7735103   2.024   2.505   3.320 -1.2067  0.2938 -1.6152
   84MOL    H7835104   1.906   2.445   3.440  0.7890 -0.7290 -0.4807
   84MOL    H7935105   1.820   2.284   3.247 -0.8146  3.4797 -0.9139
   84MOL    H8035106   1.960   2.335   3.158 -0.2576  0.2243  0.1418
   84MOL    H8135107   1.955   2.118   3.317 -0.9559  0.1129  0.5078
   84MOL    H8235108   1.962   2.232   3.441 -2.0669  2.0645 -0.9038
   84MOL    H8335109   2.194   2.146   3.384 -1.6769 -0.0273  2.2437
   84MOL    H8435110   2.182   2.213   3.217  2.6758  0.9528  0.8322
   84MOL    H8535111   2.191   2.314   3.365  2.1051 -1.7230  0.4437
   84MOL    C8635112   1.970   2.759   3.320  0.1939 -0.2234  0.0756
   84MOL    C8735113   1.992   2.915   3.317  0.4110 -0.2241 -0.0619
   84MOL    C8835114   2.128   2.948   3.379 -0.3147 -0.5786  0.4802
   84MOL    C8935115   2.130   2.961   3.532  1.1527 -0.9672 -0.3716
   84MOL    C9035116   2.274   2.939   3.595 -0.0140  1.0028 -0.3563
   84MOL    C9135117   2.272   2.960   3.751  0.1064 -0.4269 -0.3259
   84MOL    C9235118   2.397   2.920   3.831  0.3265 -0.2431 -0.1630
   84MOL    H9335119   2.039   2.712   3.391  0.6019 -1.3854 -1.0624
   84MOL    H9435120   2.014   2.720   3.228 -0.1786 -1.3374  0.3618
   84MOL    H9535121   1.924   2.969   3.382 -1.0678  0.4183 -2.0722
   84MOL    H9635122   2.205   2.877   3.352  0.7530  0.0909  1.7312
   84MOL    H9735123   2.179   3.036   3.340 -0.1394 -0.8531  0.0864
   84MOL    H9835124   2.094   3.059   3.562 -0.2838 -1.4466 -0.4701
   84MOL    H9935125   2.058   2.891   3.575  0.6599  0.7123  1.6073
   84MOL   H10035126   2.349   3.008   3.556  1.0061 -0.4245 -0.9241
   84MOL   H10135127   2.300   2.837   3.569 -0.2520  0.6295  0.8684
   84MOL   H10235128   2.249   3.064   3.771 -1.9661 -1.4019  2.7543
   84MOL   H10335129   2.192   2.902   3.797 -0.4921  0.5992 -0.0546
   84MOL   H10435130   2.487   2.957   3.783  0.5967  0.3963  0.8271
   84MOL   H10535131   2.406   2.811   3.835 -1.4867 -0.3364  3.1678
   84MOL   H10635132   2.379   2.947   3.935 -1.5868  1.1904 -0.8301
   84MOL   C10735133   1.983   2.980   3.168 -0.5752 -0.1913  0.3814
   84MOL   C10835134   1.856   2.961   3.089  0.1152  0.5233 -0.0506
   84MOL   C10935135   1.718   3.028   3.143  0.2832  0.3610 -0.1466
   84MOL   C11035136   1.590   2.982   3.071 -0.4269  0.3322  0.1868
   84MOL   C11135137   1.465   3.060   3.113 -0.0557 -0.3223 -0.4213
   84MOL   C11235138   1.465   3.215   3.077  1.0632  0.2635  0.3616
   84MOL   C11335139   1.324   3.280   3.082  0.2547 -0.1658  0.1854
   84MOL   H11435140   2.071   2.958   3.107 -1.4627  0.3037 -1.1169
   84MOL   H11535141   1.978   3.086   3.193  1.2921 -0.3128  1.3482
   84MOL   H11635142   1.832   2.855   3.074  0.2659  0.3082  1.2247
   84MOL   H11735143   1.732   3.136   3.144 -2.5553  0.7806 -1.6187
   84MOL   H11835144   1.713   2.995   3.247  1.2882 -0.8892 -0.4794
   84MOL   H11935145   1.601   2.985   2.962  1.1013 -0.0101  0.3249
   84MOL   H12035146   1.570   2.878   3.100  2.3587 -0.1517  0.5643
   84MOL   H12135147   1.451   3.065   3.221  1.7144 -0.5268 -0.1652
   84MOL   H12235148   1.376   3.009   3.078  0.9187 -1.3162 -1.4741
   84MOL   H12335149   1.537   3.265   3.143  0.5674  0.4869  0.7410
   84MOL   H12435150   1.512   3.230   2.979  2.5498 -0.0052  1.0199
   84MOL   H12535151   1.272   3.276   3.178  1.0927  0.5494  0.6844
   84MOL   H12635152   1.320   3.386   3.056  1.8388 -0.0183  0.4461
   84MOL   H12735153   1.271   3.227   3.003 -0.8112  1.0462  0.0670
   84MOL   C12835154   1.880   3.018   2.945  0.8006  0.0862 -0.8577
   84MOL   C12935155   1.997   2.951   2.867 -1.0337  0.1283 -0.5547
   84MOL   C13035156   2.118   3.052   2.836  0.1031  0.0320  0.6752
   84MOL   C13135157   2.084   3.153   2.733  0.0164 -0.9413  0.3180
   84MOL   C13235158   2.209   3.235   2.711 -0.4830 -0.0683  1.0637
   84MOL   C13335159   2.206   3.340   2.599  0.4110 -0.0615 -0.7384
   84MOL   C13435160   2.177   3.291   2.455  0.0771  0.7515 -0.2760
   84MOL   H13535161   1.793   2.998   2.882  1.1872  0.2059 -1.4356
   84MOL   H13635162   1.898   3.125   2.954 -1.3666  0.6283 -2.5326
   84MOL   H13735163   2.034   2.866   2.925 -0.1739 -0.5285 -2.0450
   84MOL   H13835164   2.199   2.989   2.797 -0.7645  0.2481 -1.5065
   84MOL   H13935165   2.166   3.087   2.928  2.3420 -0.8964 -0.1004
   84MOL   H14035166   2.005   3.223   2.759  1.6856  0.3601  2.0424
   84MOL   H14135167   2.057   3.102   2.640  2.2891 -0.8450 -0.4448
   84MOL   H14235168   2.291   3.166   2.691 -1.1368 -0.2006 -1.3052
   84MOL   H14335169   2.243   3.282   2.803 -1.0786  1.2416  0.6241
   84MOL   H14435170   2.299   3.397   2.593  1.0562 -0.9958  0.2531
   84MOL   H14535171   2.129   3.410   2.629 -0.3646 -0.8646 -0.8327
   84MOL   H14635172   2.257   3.226   2.419 -0.0114  0.2043  0.4953
   84MOL   H14735173   2.194   3.375   2.387  0.1792  0.2274 -0.8993
   84MOL   H14835174   2.076   3.252   2.448  0.4140 -0.3855  0.9718
   84MOL   C14935175   1.938   2.874   2.738 -0.2821  0.2587 -0.7906
   84MOL   C15035176   1.869   2.746   2.770  0.5445  0.0132  1.0651
   84MOL   C15135177   1.945   2.617   2.719 -0.3910 -0.4666  0.3820
   84MOL   C15235178   2.078   2.584   2.788  0.3935  0.2807  0.1470
   84MOL   C15335179   2.062   2.528   2.935  0.1639 -0.4957  0.7876
   84MOL   C15435180   2.186   2.498   3.013 -0.8702 -0.0298  0.0595
   84MOL   C15535181   2.255   2.371   2.960 -0.1977  0.4430  0.1059
   84MOL   H15635182   1.874   2.941   2.680  0.1391  0.9552 -0.4639
   84MOL   H15735183   2.019   2.849   2.670 -0.9757  1.6723 -2.1696
   84MOL   H15835184   1.865   2.734   2.879 -2.4307 -0.2396  0.9665
   84MOL   H15935185   1.890   2.524   2.707  1.4631 -1.3193 -1.9672
   84MOL   H16035186   1.979   2.637   2.617  1.0150 -0.5844  0.8173
   84MOL   H16135187   2.152   2.664   2.783 -0.8125  1.5063  1.4348
   84MOL   H16235188   2.123   2.505   2.728  2.3111  1.0008  0.6054
   84MOL   H16335189   1.990   2.446   2.932  0.4755 -0.7200 -0.9873
   84MOL   H16435190   2.002   2.600   2.991  0.5437  0.0109  0.5377
   84MOL   H16535191   2.153   2.486   3.117 -0.3028 -1.1455  0.1248
   84MOL   H16635192   2.256   2.580   3.002  0.1341 -0.6976  1.3710
   84MOL   H16735193   2.197   2.279   2.962  3.2212 -1.7924  0.6026
   84MOL   H16835194   2.348   2.355   3.015 -0.9485 -1.5559  0.8542
   84MOL   H16935195   2.277   2.377   2.853  1.9130  0.7609  0.5248
   84MOL   C17035196   1.714   2.761   2.728 -0.3010  0.3971 -0.3672
   84MOL   C17135197   1.628   2.636   2.732 -0.0534  0.3122  0.1022
   84MOL   C17235198   1.642   2.550   2.862  0.1736  0.2930 -1.0403
   84MOL   C17335199   1.592   2.405   2.857 -0.0671  0.6342 -0.2191
   84MOL   C17435200   1.615   2.318   2.987 -0.1067 -0.2486  0.2851
   84MOL   C17535201   1.530   2.188   2.981  0.7245 -0.1425 -0.6349
   84MOL   C17635202   1.567   2.090   3.092 -0.4762 -0.5034 -0.5827
   84MOL   H17735203   1.708   2.818   2.635 -1.0359 -0.9084 -1.1479
   84MOL   H17835204   1.662   2.816   2.806 -0.8950  2.4117 -2.1502
   84MOL   H17935205   1.657   2.569   2.651 -1.1360  1.0643 -0.9192
   84MOL   H18035206   1.611   2.608   2.949  2.6213  1.6723 -1.0350
   84MOL   H18135207   1.749   2.538   2.882 -0.2614  0.2707  1.4270
   84MOL   H18235208   1.632   2.352   2.770 -0.6247 -1.1007  0.5605
   84MOL   H18335209   1.488   2.403   2.825  0.3274 -0.9402 -1.4888
   84MOL   H18435210   1.578   2.378   3.070  1.9682  3.1080 -1.1257
   84MOL   H18535211   1.722   2.298   2.988 -0.2240 -0.8532  1.2377
   84MOL   H18635212   1.537   2.149   2.880 -0.6962 -1.7337 -0.1448
   84MOL   H18735213   1.426   2.211   3.005  0.6383 -1.4013  0.2169
   84MOL   H18835214   1.635   2.126   3.169 -1.6383 -0.0667  0.2597
   84MOL   H18935215   1.629   2.017   3.041 -0.8191 -1.7252  0.7175
   84MOL   H19035216   1.486   2.036   3.141 -0.1621  0.3067  0.8612
   84MOL   C19135217   1.476   2.657   2.702 -0.4393 -0.4394 -0.3904
   84MOL   C19235218   1.428   2.661   2.553  0.1605 -0.6425 -0.3833
   84MOL   C19335219   1.507   2.753   2.458 -0.5866 -0.3471 -0.0238
   84MOL   C19435220   1.448   2.788   2.322 -0.2659 -0.2408 -0.4353
   84MOL   C19535221   1.329   2.885   2.330 -0.1127  0.1586 -0.6765
   84MOL   C19635222   1.335   3.009   2.232  0.3587  0.5891  0.3550
   84MOL   C19735223   1.200   3.068   2.197 -0.0571 -0.1678 -0.0632
   84MOL   H19835224   1.470   2.759   2.740  0.9656 -0.3385 -0.3839
   84MOL   H19935225   1.406   2.604   2.765 -1.5297 -0.0104 -1.2248
   84MOL   H20035226   1.323   2.690   2.559  0.4093 -0.1801  2.5931
   84MOL   H20135227   1.608   2.712   2.447 -0.5035 -0.2827  0.4809
   84MOL   H20235228   1.526   2.846   2.512  1.6811 -2.6452  3.3800
   84MOL   H20335229   1.435   2.704   2.254  1.3238 -0.0968 -0.9286
   84MOL   H20435230   1.530   2.831   2.266  0.3189 -3.3985 -2.1263
   84MOL   H20535231   1.239   2.826   2.315 -0.5713  1.3360 -2.7204
   84MOL   H20635232   1.320   2.916   2.434 -0.6565 -2.1676 -0.0034
   84MOL   H20735233   1.381   2.977   2.138  0.2921 -2.6545  1.3621
   84MOL   H20835234   1.406   3.076   2.282 -0.1078 -0.0834  1.9391
   84MOL   H20935235   1.146   3.091   2.289  0.1915  0.1691 -0.0007
   84MOL   H21035236   1.139   3.008   2.129 -1.6494  2.0813 -0.6652
   84MOL   H21135237   1.212   3.159   2.139 -1.3253  0.7557  1.0847
   84MOL   C21235238   1.417   2.523   2.489 -0.5114  0.4922  0.2719
   84MOL   C21335239   1.305   2.421   2.534 -0.2429 -0.5736 -0.3081
   84MOL   C21435240   1.159   2.463   2.517  0.0727 -0.7017  0.0633
   84MOL   C21535241   1.112   2.472   2.374  1.0260  0.2296 -0.2095
   84MOL   C21635242   0.957   2.488   2.347  0.3077  0.5294  0.1970
   84MOL   C21735243   0.883   2.352   2.367  0.4816 -0.0691 -0.2392
   84MOL   C21835244   0.728   2.359   2.354 -0.9278 -0.0360  0.1048
   84MOL   H21935245   1.514   2.480   2.516 -0.5142  1.7438  2.3723
   84MOL   H22035246   1.425   2.528   2.381 -2.8635 -1.6421 -0.0399
   84MOL   H22135247   1.320   2.406   2.640  2.9349  2.9216 -0.1504
   84MOL   H22235248   1.096   2.392   2.571 -2.2910 -1.0878 -3.0684
   84MOL   H22335249   1.152   2.562   2.564  2.6150  0.2106 -1.3661
   84MOL   H22435250   1.147   2.383   2.322  0.2111 -0.5296  0.5324
   84MOL   H22535251   1.161   2.555   2.323 -0.4480  0.3048 -1.5383
   84MOL   H22635252   0.917   2.549   2.428 -2.5671 -0.3332 -0.5071
   84MOL   H22735253   0.937   2.534   2.250 -1.1594 -1.8487 -0.6674
   84MOL   H22835254   0.927   2.284   2.294  0.4618  0.6005 -0.8771
   84MOL   H22935255   0.921   2.319   2.464 -1.3016  1.9310  1.1864
   84MOL   H23035256   0.680   2.412   2.436 -2.8852  1.1043 -1.7151
   84MOL   H23135257   0.691   2.257   2.360  0.6106 -0.6998 -1.2155
   84MOL   H23235258   0.702   2.404   2.258 -0.3830 -0.9740 -0.4953
   84MOL   C23335259   1.350   2.285   2.471 -0.3548  0.0365  0.1158
   84MOL   C23435260   1.398   2.171   2.570  0.6921  0.4398 -0.2737
   84MOL   C23535261   1.271   2.120   2.651 -0.6259  0.3939 -0.0789
   84MOL   C23635262   1.287   2.017   2.764 -0.0063 -0.2315 -0.4435
   84MOL   C23735263   1.173   1.919   2.780 -0.5413  0.5331  0.5965
   84MOL   C23835264   1.209   1.821   2.891 -0.7272  0.4092 -0.0991
   84MOL   C23935265   1.144   1.680   2.874  0.0701 -0.4324 -0.8193
   84MOL   H24035266   1.420   2.302   2.388 -0.3175 -0.4364  0.0514
   84MOL   H24135267   1.262   2.245   2.422 -0.0457  0.6784 -0.9906
   84MOL   H24235268   1.467   2.220   2.638 -0.7980  1.3424  0.6252
   84MOL   H24335269   1.203   2.081   2.575  0.3759  0.2647 -0.9215
   84MOL   H24435270   1.219   2.208   2.690 -1.6060 -1.0201  1.8917
   84MOL   H24535271   1.315   2.070   2.855 -1.2721 -1.2019  0.5346
   84MOL   H24635272   1.365   1.945   2.741  1.3876  0.5487  1.7502
   84MOL   H24735273   1.166   1.857   2.691 -0.7910 -0.5668  1.3715
   84MOL   H24835274   1.082   1.979   2.786 -1.9428 -1.4784 -0.1362
   84MOL   H24935275   1.315   1.816   2.916 -1.2467 -3.3655  1.6664
   84MOL   H25035276   1.164   1.864   2.980  1.7589 -0.8932  1.8550
   84MOL   H25135277   1.126   1.620   2.963 -1.4833 -0.2803 -1.0260
   84MOL   H25235278   1.059   1.680   2.806 -0.5388  0.1033 -0.0577
   84MOL   H25335279   1.226   1.631   2.820 -1.1096 -3.3694 -0.0262
   84MOL   C25435280   1.479   2.056   2.504 -0.2872 -0.1528  0.5408
   84MOL   C25535281   1.591   2.083   2.403 -0.1877 -0.5519  0.3432
   84MOL   C25635282   1.660   1.956   2.346  0.6427  0.1046 -0.0766
   84MOL   C25735283   1.736   1.867   2.442 -0.1612  0.7843 -0.4768
   84MOL   C25835284   1.791   1.738   2.372  0.1554 -0.2784 -0.3502
   84MOL   C25935285   1.877   1.664   2.486 -0.4823  0.6471 -0.1214
   84MOL   C26035286   1.946   1.548   2.435  0.2344  0.5163 -0.2500
   84MOL   H26135287   1.412   1.977   2.469  0.5046 -1.6186  2.2442
   84MOL   H26235288   1.522   2.000   2.587 -1.3354  1.3269  2.1207
   84MOL   H26335289   1.533   2.131   2.324  1.0932  0.2227 -0.1478
   84MOL   H26435290   1.726   1.982   2.264  2.1595 -0.9688  0.7934
   84MOL   H26535291   1.581   1.899   2.296  1.3198 -1.1719  0.2973
   84MOL   H26635292   1.823   1.916   2.485  1.0752  0.4570 -2.5088
   84MOL   H26735293   1.674   1.824   2.520  1.0846  2.2086  1.3308
   84MOL   H26835294   1.846   1.763   2.280  1.2076  0.1201  0.3706
   84MOL   H26935295   1.707   1.671   2.353  0.7642 -0.8084 -1.2393
   84MOL   H27035296   1.951   1.728   2.533  1.7408 -2.4990  0.8389
   84MOL   H27135297   1.827   1.628   2.576 -0.0895 -0.9162 -0.5160
   84MOL   H27235298   1.881   1.466   2.405  0.0182  0.8979 -0.8218
   84MOL   H27335299   2.018   1.573   2.357 -0.4900  1.2440 -0.6934
   84MOL   H27435300   1.997   1.504   2.521 -0.1605 -0.7560 -0.6555
   84MOL   C27535301   1.689   2.189   2.463 -0.4591  0.0762 -0.5369
   84MOL   C27635302   1.802   2.252   2.377 -0.2421  0.1949 -0.2696
   84MOL   C27735303   1.904   2.327   2.465 -0.2646  0.2220 -0.0067
   84MOL   C27835304   1.978   2.250   2.580 -0.0041  0.3015  0.4813
   84MOL   C27935305   2.050   2.116   2.539  0.1463 -0.3952  0.0766
   84MOL   C28035306   2.090   2.045   2.671  0.1602 -0.5987  1.0463
   84MOL   C28135307   2.172   1.920   2.649  0.5679  0.6583  0.3801
   84MOL   H28235308   1.729   2.138   2.551 -2.1455 -4.0051 -2.0262
   84MOL   H28335309   1.634   2.274   2.503 -0.1688  1.1478 -2.3816
   84MOL   H28435310   1.854   2.172   2.325  0.4101 -0.4958  1.4304
   84MOL   H28535311   1.974   2.368   2.392  1.7416  0.1602  1.8528
   84MOL   H28635312   1.855   2.415   2.507 -0.5569  0.4907 -0.8898
   84MOL   H28735313   1.904   2.219   2.654  0.6041  0.7805  1.3060
   84MOL   H28835314   2.050   2.314   2.630  1.8733  0.2843 -2.0896
   84MOL   H28935315   2.142   2.136   2.484  0.0662 -0.3310 -0.0340
   84MOL   H29035316   1.991   2.047   2.479  0.4186  0.3368 -1.0387
   84MOL   H29135317   2.152   2.116   2.725  0.3937  1.8719 -2.2510
   84MOL   H29235318   1.996   2.028   2.723 -0.2704 -1.2618  0.0631
   84MOL   H29335319   2.112   1.854   2.586 -1.0192  2.6054 -0.2375
   84MOL   H29435320   2.191   1.866   2.741 -0.8441 -2.0186 -0.8574
   84MOL   H29535321   2.265   1.924   2.594 -0.3540 -2.0193 -1.4741
   84MOL   C29635322   1.732   2.344   2.275 -0.3317  0.1734  0.4192
   84MOL   C29735323   1.726   2.278   2.137 -0.6315 -0.2685 -0.5787
   84MOL   C29835324   1.864   2.298   2.070 -0.3274 -0.2779  0.8503
   84MOL   C29935325   1.880   2.223   1.932  0.4408  0.0087 -0.1157
   84MOL   C30035326   1.863   2.069   1.943  0.4098  1.0453 -0.4172
   84MOL   C30135327   1.913   1.997   1.819  0.5033  0.3524  0.1852
   84MOL   C30235328   1.826   2.026   1.696 -0.9482  0.0180 -0.5345
   84MOL   H30335329   1.632   2.372   2.307 -0.6807 -1.5379  0.8803
   84MOL   H30435330   1.789   2.437   2.268 -0.9302  0.5842  0.9503
   84MOL   H30535331   1.701   2.173   2.153 -2.4145 -0.0319 -1.5979
   84MOL   H30635332   1.883   2.404   2.053  0.9149 -0.4771  0.9704
   84MOL   H30735333   1.941   2.253   2.133  0.2012  0.8635  1.0379
   84MOL   H30835334   1.986   2.246   1.917  0.6211 -0.1816  0.8261
   84MOL   H30935335   1.818   2.268   1.854  0.6101  1.3882  0.5218
   84MOL   H31035336   1.759   2.043   1.963  1.0448 -1.0616  0.3750
   84MOL   H31135337   1.928   2.046   2.028  0.2962  1.9471 -0.0825
   84MOL   H31235338   2.017   2.022   1.799  1.3998 -3.1493  0.2115
   84MOL   H31335339   1.919   1.890   1.837  1.0862  0.4801  0.7607
   84MOL   H31435340   1.721   2.008   1.718 -1.3329  2.6719 -0.0446
   84MOL   H31535341   1.837   2.126   1.654  0.5107 -0.5003 -1.4225
   84MOL   H31635342   1.844   1.956   1.614 -2.6180  1.3824 -2.1170
   84MOL   C31735343   1.613   2.333   2.045 -0.7962 -0.1820  0.5614
   84MOL   C31835344   1.467   2.276   2.078  0.5046  0.7022 -0.7365
   84MOL   C31935345   1.367   2.355   1.992 -0.3903  0.3789 -0.0321
   84MOL   C32035346   1.336   2.493   2.057  0.1093  0.2847  0.3205
   84MOL   C32135347   1.216   2.551   1.977 -0.6107 -0.2779  0.6538
   84MOL   C32235348   1.199   2.700   2.018 -0.0084 -0.9791 -0.5312
   84MOL   C32335349   1.114   2.772   1.913 -0.3222  0.2441 -0.4612
   84MOL   H32435350   1.638   2.297   1.946  1.2314  2.2570  0.1120
   84MOL   H32535351   1.627   2.441   2.041  0.4381 -0.4164 -2.1318
   84MOL   H32635352   1.441   2.283   2.183 -0.4125  1.9394 -1.0414
   84MOL   H32735353   1.271   2.306   1.978 -0.1009 -0.0745 -0.4353
   84MOL   H32835354   1.410   2.373   1.894  0.1000 -0.4702  0.0309
   84MOL   H32935355   1.426   2.554   2.061  0.6571 -0.5020  0.0230
   84MOL   H33035356   1.312   2.471   2.161 -2.7248  0.9945 -0.1386
   84MOL   H33135357   1.129   2.489   1.999 -2.3141  1.6668 -0.4264
   84MOL   H33235358   1.217   2.540   1.868 -0.7893  0.9058  0.5289
   84MOL   H33335359   1.291   2.757   2.024 -0.5422 -0.1401 -0.3171
   84MOL   H33435360   1.158   2.718   2.118  2.7598 -1.0584  0.6796
   84MOL   H33535361   1.149   2.768   1.810  1.0164  0.4624 -0.0264
   84MOL   H33635362   1.092   2.876   1.941 -3.1315 -0.0558 -1.3711
   84MOL   H33735363   1.022   2.713   1.910  0.6104 -1.2019 -1.1612
   84MOL   C33835364   1.458   2.125   2.025  0.4311  0.1308  0.6131
   84MOL   C33935365   1.324   2.053   2.027  0.1134 -0.1426  0.6098
   84MOL   C34035366   1.270   2.043   2.170  0.2018  1.2033 -1.1175
   84MOL   C34135367   1.134   1.969   2.186  0.2458 -0.1259 -0.0779
   84MOL   C34235368   1.065   1.983   2.325  0.3437  0.4622 -0.3207
   84MOL   C34335369   0.932   1.900   2.331 -0.1938 -0.0618  0.6313
   84MOL   C34435370   0.872   1.888   2.471 -0.2845  0.2800  0.2645
   84MOL   H34535371   1.529   2.055   2.068  2.7866  2.5736  0.8175
   84MOL   H34635372   1.488   2.132   1.920 -0.4074  0.8625  0.4140
   84MOL   H34735373   1.242   2.102   1.975  2.4039 -0.2770 -3.3167
   84MOL   H34835374   1.349   2.003   2.234 -0.9656 -0.1674 -0.4906
   84MOL   H34935375   1.246   2.142   2.209  1.0583  1.4404 -1.1953
   84MOL   H35035376   1.141   1.861   2.174  0.9268 -0.2759  1.5606
   84MOL   H35135377   1.080   2.011   2.101  0.3290  0.1176 -0.0099
   84MOL   H35235378   1.136   1.951   2.402  0.3252  2.4219  0.5382
   84MOL   H35335379   1.038   2.084   2.357  0.1420 -0.7123  3.5581
   84MOL   H35435380   0.865   1.963   2.273 -0.8257 -0.5458  0.8254
   84MOL   H35535381   0.939   1.806   2.277 -1.8567 -0.5097  1.1665
   84MOL   H35635382   0.780   1.831   2.465  0.0853 -0.2281 -0.7724
   84MOL   H35735383   0.860   1.983   2.522  0.0236 -0.5972  2.0075
   84MOL   H35835384   0.937   1.830   2.537 -1.1349  0.7519  1.5180
   84MOL   C35935385   1.337   1.902   1.972  0.0918 -0.9810  0.4542
   84MOL   C36035386   1.403   1.874   1.831  0.3828  0.4957 -0.0922
   84MOL   C36135387   1.458   1.729   1.825 -0.1378  0.1207 -0.1701
   84MOL   C36235388   1.575   1.696   1.926  0.4655 -0.1282 -0.5793
   84MOL   C36335389   1.615   1.551   1.904 -0.0934  0.9569  0.9271
   84MOL   C36435390   1.726   1.505   1.996 -0.0261  1.1141  0.0263
   84MOL   C36535391   1.706   1.378   2.090  0.1326 -0.3392 -0.2565
   84MOL   H36635392   1.238   1.863   1.950  0.0394 -0.6684  0.1296
   84MOL   H36735393   1.383   1.843   2.051  1.4425 -0.9092 -0.2619
   84MOL   H36835394   1.485   1.944   1.812 -0.8939  2.4349  1.4064
   84MOL   H36935395   1.373   1.664   1.843  0.2903 -0.5741 -0.6354
   84MOL   H37035396   1.502   1.718   1.726  2.2769 -1.7916  1.0514
   84MOL   H37135397   1.664   1.758   1.918  0.0414  0.4541 -0.8006
   84MOL   H37235398   1.542   1.704   2.029 -1.1207 -0.5993 -1.0348
   84MOL   H37335399   1.518   1.501   1.909 -0.5727  1.8467  0.6531
   84MOL   H37435400   1.650   1.532   1.803 -1.8817  4.0033 -0.3594
   84MOL   H37535401   1.813   1.480   1.935 -0.8481  0.8737 -1.0674
   84MOL   H37635402   1.754   1.591   2.058 -1.9075  0.1533  2.3065
   84MOL   H37735403   1.622   1.390   2.159 -0.5614 -0.3889 -1.0817
   84MOL   H37835404   1.690   1.291   2.026  2.0746  0.0394 -1.2757
   84MOL   H37935405   1.796   1.352   2.146  0.3668  2.4739  0.7617
   84MOL   C38035406   1.306   1.881   1.710 -0.3034  0.2612 -0.1535
   84MOL   C38135407   1.263   2.025   1.669  0.4640 -0.0977 -0.4153
   84MOL   C38235408   1.345   2.074   1.542 -0.2670  0.2570 -0.6354
   84MOL   C38335409   1.499   2.071   1.558  0.1127 -0.4808 -0.2673
   84MOL   C38435410   1.571   2.151   1.446  0.7909 -0.4167 -0.0786
   84MOL   C38535411   1.554   2.087   1.306 -0.5114  0.4288 -0.3493
   84MOL   C38635412   1.636   2.168   1.205  1.0417 -0.3159  0.3291
   84MOL   H38735413   1.343   1.830   1.622 -0.0868 -0.4785  0.3685
   84MOL   H38835414   1.214   1.827   1.733  0.1871 -1.0036 -1.1729
   84MOL   H38935415   1.286   2.094   1.751 -1.4086 -0.8381  0.7485
   84MOL   H39035416   1.322   2.180   1.535  0.3372  0.4981  0.8600
   84MOL   H39135417   1.297   2.020   1.460 -0.8615 -0.2592  0.0382
   84MOL   H39235418   1.523   2.109   1.657  0.9092 -0.3066 -0.5296
   84MOL   H39335419   1.544   1.972   1.558  2.8137  0.6993 -2.3247
   84MOL   H39435420   1.536   2.254   1.442 -0.2696 -0.8228 -2.1439
   84MOL   H39535421   1.678   2.156   1.466  0.4877 -0.2501  1.6069
   84MOL   H39635422   1.449   2.095   1.281 -0.8155  2.4693  1.4667
   84MOL   H39735423   1.593   1.986   1.314 -1.5627  0.1065  0.7209
   84MOL   H39835424   1.739   2.160   1.241 -0.1278 -1.4730  3.6240
   84MOL   H39935425   1.609   2.274   1.212  1.7062 -0.1109 -0.1117
   84MOL   H40035426   1.614   2.130   1.106  1.0644 -0.5278  0.4059
   84MOL   C40135427   1.110   2.044   1.649 -0.5267 -0.4831 -0.3924
   84MOL   C40235428   1.025   2.051   1.780  0.2405  0.1410 -0.2131
   84MOL   C40335429   0.877   2.066   1.760  0.1414 -0.1604 -0.2758
   84MOL   C40435430   0.800   2.080   1.898 -0.1312 -0.1135 -0.3072
   84MOL   C40535431   0.646   2.076   1.885  0.0811 -0.0109  0.0652
   84MOL   C40635432   0.576   2.068   2.022 -0.2264  0.5699  0.2467
   84MOL   C40735433   0.422   2.071   2.019 -0.3582  0.1091 -0.0206
   84MOL   H40835434   1.062   1.969   1.585 -0.5692 -1.7047  1.0533
   84MOL   H40935435   1.091   2.135   1.592 -2.6441  0.2151  1.3882
   84MOL   H41035436   1.056   2.121   1.858 -2.0187 -0.1528  0.9965
   84MOL   H41135437   0.834   1.996   1.688 -2.2557 -0.2144  1.1171
   84MOL   H41235438   0.858   2.162   1.712 -0.3498 -0.4106 -0.5903
   84MOL   H41335439   0.828   2.166   1.960  1.8093  0.6756 -2.1882
   84MOL   H41435440   0.836   1.991   1.949  1.4258 -0.0005 -1.1603
   84MOL   H41535441   0.619   2.159   1.819 -2.2586 -1.8529 -1.3628
   84MOL   H41635442   0.620   1.992   1.821  1.4532  0.7942 -1.6096
   84MOL   H41735443   0.603   1.976   2.075  0.7962  0.3073 -0.7314
   84MOL   H41835444   0.604   2.155   2.081 -3.4258  0.9097  1.4048
   84MOL   H41935445   0.376   2.163   1.982 -2.8384 -1.0281  0.0757
   84MOL   H42035446   0.396   2.068   2.125  1.0914  0.1128  0.3440
   84MOL   H42135447   0.376   1.992   1.959 -0.6628 -1.1478  1.8090
   84MOL   H42235448   1.041   1.955   1.828  1.6208 -0.1005 -1.1131
   85MOL     C135449   2.339   1.460   2.377  0.9275  0.1349  0.0182
   85MOL     C235450   2.340   1.445   2.229 -0.0364  0.3287 -0.0131
   85MOL     C335451   2.236   1.348   2.174  0.8143 -0.2637 -0.3997
   85MOL     C435452   2.205   1.388   2.028 -0.2213 -0.0007  0.5584
   85MOL     C535453   2.138   1.277   1.963  0.1609 -0.0053 -0.1213
   85MOL     C635454   2.106   1.312   1.818 -0.5065 -0.7594 -0.3832
   85MOL     C735455   1.997   1.223   1.766  0.9881  0.6659 -0.3103
   85MOL     H835456   2.410   1.536   2.409 -0.8373  1.9414 -0.3462
   85MOL     H935457   2.360   1.373   2.440  1.1273 -1.5355 -2.2508
   85MOL    H1035458   2.311   1.546   2.202 -0.9322  0.1049  0.0856
   85MOL    H1135459   2.275   1.246   2.178 -1.3750 -1.1079 -0.1451
   85MOL    H1235460   2.156   1.338   2.247  0.3074  0.9448 -0.7721
   85MOL    H1335461   2.153   1.483   2.016 -2.4267 -1.3384 -0.8168
   85MOL    H1435462   2.299   1.409   1.978 -0.1147 -1.1050  0.2895
   85MOL    H1535463   2.045   1.267   2.019 -0.5446 -1.4568 -1.5073
   85MOL    H1635464   2.190   1.182   1.956  1.2955  0.5656  0.3384
   85MOL    H1735465   2.186   1.299   1.746 -0.3821 -1.7779 -0.0731
   85MOL    H1835466   2.067   1.413   1.810  0.2200 -0.4620 -0.1134
   85MOL    H1935467   2.031   1.121   1.748 -0.1867  0.0319  0.9925
   85MOL    H2035468   1.975   1.271   1.670  0.0668  1.1133  0.1195
   85MOL    H2135469   1.906   1.211   1.824  2.0356  1.0357  1.4529
   85MOL    H2235470   2.247   1.507   2.409  1.0914  1.4826 -1.4237
   85MOL    C2335471   2.481   1.414   2.177  0.2715 -0.0065 -0.3198
   85MOL    C2435472   2.593   1.512   2.208 -0.0308 -0.0497  0.1132
   85MOL    C2535473   2.568   1.657   2.172  0.6896  0.9202  0.5921
   85MOL    C2635474   2.548   1.678   2.017  0.0902  0.0941  1.0667
   85MOL    C2735475   2.565   1.828   1.971 -0.5187  0.6007  0.6359
   85MOL    C2835476   2.533   1.840   1.818 -0.4207  0.4760  0.4334
   85MOL    C2935477   2.540   1.984   1.764 -0.2168 -0.0043  0.3778
   85MOL    H3035478   2.502   1.315   2.219 -0.1475 -0.1104 -0.3548
   85MOL    H3135479   2.473   1.401   2.069  0.7836 -0.8416 -0.2661
   85MOL    H3235480   2.624   1.506   2.312  1.3623  3.7527 -0.0200
   85MOL    H3335481   2.652   1.720   2.201  1.9474 -0.2066 -0.4956
   85MOL    H3435482   2.487   1.694   2.235  0.8476  1.0812  0.6967
   85MOL    H3535483   2.450   1.636   1.995 -0.5513  1.1179  1.8899
   85MOL    H3635484   2.623   1.619   1.964  1.6376  1.0224  2.1696
   85MOL    H3735485   2.670   1.849   1.992  0.0014 -0.0908 -1.1338
   85MOL    H3835486   2.505   1.896   2.030  0.8714  2.6164 -0.2231
   85MOL    H3935487   2.436   1.793   1.802  1.2838 -2.9665 -0.3862
   85MOL    H4035488   2.598   1.777   1.757 -1.4556  2.9887 -3.3971
   85MOL    H4135489   2.463   2.049   1.804 -2.2863 -1.7529 -0.6291
   85MOL    H4235490   2.645   2.013   1.768  0.0849 -1.1219  0.8163
   85MOL    H4335491   2.521   2.007   1.659 -1.8144  0.1062  0.6746
   85MOL    C4435492   2.712   1.453   2.134 -0.3043  0.0774  1.3258
   85MOL    C4535493   2.785   1.339   2.212 -0.4851 -0.2693  0.0544
   85MOL    C4635494   2.838   1.226   2.124 -0.2024 -0.6540 -0.1130
   85MOL    C4735495   2.944   1.274   2.018  0.1728  0.1358  0.2637
   85MOL    C4835496   3.003   1.156   1.942 -0.8098 -0.0766 -0.1977
   85MOL    C4935497   2.921   1.103   1.826  0.4362  0.5613  0.2728
   85MOL    C5035498   2.989   0.986   1.754  0.3470  0.0097 -0.0497
   85MOL    H5135499   2.774   1.539   2.107 -2.4936  0.7921 -1.7309
   85MOL    H5235500   2.692   1.427   2.030  1.7884 -2.7429  1.5565
   85MOL    H5335501   2.713   1.291   2.280  0.3761 -0.8946  0.5346
   85MOL    H5435502   2.764   1.176   2.061 -1.0648  0.7843 -0.2714
   85MOL    H5535503   2.880   1.145   2.184  1.6720 -1.0480 -1.8696
   85MOL    H5635504   2.894   1.336   1.943 -1.5037 -1.7855 -0.2434
   85MOL    H5735505   3.022   1.334   2.064 -0.8074  0.7978  1.0685
   85MOL    H5835506   3.044   1.080   2.008  2.3078  1.9407  0.2855
   85MOL    H5935507   3.086   1.205   1.892 -0.5379 -1.1149 -0.7871
   85MOL    H6035508   2.910   1.185   1.755 -0.5978 -0.3839 -0.6772
   85MOL    H6135509   2.823   1.068   1.856  0.1646 -0.9116 -2.2359
   85MOL    H6235510   3.015   0.901   1.817 -0.1225 -0.9292 -1.1228
   85MOL    H6335511   3.075   1.021   1.697 -1.1665  0.6817 -1.9838
   85MOL    H6435512   2.927   0.947   1.673 -2.0712  2.4580  0.5468
   85MOL    C6535513   2.883   1.395   2.315 -0.2351  0.1066 -0.3056
   85MOL    C6635514   2.965   1.291   2.390 -0.3222  0.2381  0.6049
   85MOL    C6735515   2.877   1.187   2.469 -0.2759 -0.2845  0.2747
   85MOL    C6835516   2.958   1.070   2.526 -0.1406  0.4578  0.8255
   85MOL    C6935517   2.888   0.957   2.584  0.3227  0.4708  0.2053
   85MOL    C7035518   2.977   0.842   2.644 -0.0760 -0.6872  0.1003
   85MOL    C7135519   2.887   0.736   2.702 -0.0612 -0.1234  0.2387
   85MOL    H7235520   2.952   1.462   2.264  0.4996  0.1828  0.7769
   85MOL    H7335521   2.830   1.453   2.391 -0.8027  0.0431 -0.6447
   85MOL    H7435522   3.015   1.233   2.312 -1.7138  1.9764 -1.6258
   85MOL    H7535523   2.823   1.243   2.545 -0.0228  0.9552 -0.4440
   85MOL    H7635524   2.793   1.152   2.408 -0.7039 -2.2215  1.9010
   85MOL    H7735525   3.007   1.034   2.435 -4.0462 -0.4437 -1.0227
   85MOL    H7835526   3.040   1.101   2.591 -0.3503  2.0497  0.3333
   85MOL    H7935527   2.822   0.995   2.662 -1.4386 -0.4975 -0.7526
   85MOL    H8035528   2.826   0.913   2.505 -0.1515  0.2842  0.6766
   85MOL    H8135529   3.023   0.894   2.728 -1.4282  1.6641 -0.5531
   85MOL    H8235530   3.046   0.791   2.577  3.6491  2.1013  1.6258
   85MOL    H8335531   2.819   0.767   2.781 -0.6291 -0.0805 -0.2578
   85MOL    H8435532   2.841   0.673   2.626  0.1245 -0.9370  0.8032
   85MOL    H8535533   2.947   0.664   2.756  1.6759  1.3824  0.3596
   85MOL    C8635534   3.075   1.361   2.475  1.0168 -1.1284  0.0627
   85MOL    C8735535   3.193   1.418   2.396 -0.6119 -0.2491  0.3344
   85MOL    C8835536   3.224   1.568   2.445 -0.0409  0.5653 -0.2408
   85MOL    C8935537   3.123   1.680   2.429 -0.6070 -0.8138 -0.2739
   85MOL    C9035538   3.166   1.809   2.488 -0.1433 -0.4346  0.2343
   85MOL    C9135539   3.067   1.911   2.545  0.4504  0.9647  0.2067
   85MOL    C9235540   3.122   1.977   2.676 -0.3204 -0.4782 -0.1799
   85MOL    H9335541   3.033   1.441   2.535  0.9231 -0.2202 -1.1920
   85MOL    H9435542   3.114   1.296   2.554  1.1076  1.4667  2.2116
   85MOL    H9535543   3.172   1.422   2.289  0.2593  2.6190  0.2454
   85MOL    H9635544   3.256   1.555   2.548 -1.6897  0.0136  0.2237
   85MOL    H9735545   3.313   1.602   2.392 -0.9048 -0.0097 -2.1028
   85MOL    H9835546   3.077   1.696   2.331  1.7923  1.1800 -1.1076
   85MOL    H9935547   3.040   1.651   2.494  0.0881 -2.2132  0.0029
   85MOL   H10035548   3.226   1.868   2.420  0.0401  1.3712  1.9229
   85MOL   H10135549   3.236   1.793   2.570  0.2018  0.7678  0.1735
   85MOL   H10235550   3.050   1.986   2.468 -1.7675  1.9569  1.6168
   85MOL   H10335551   2.970   1.874   2.577  0.4331  1.3636  0.6297
   85MOL   H10435552   3.144   1.904   2.754  0.5598 -0.2318 -0.1962
   85MOL   H10535553   3.045   2.045   2.712 -1.5952 -1.3528 -1.2354
   85MOL   H10635554   3.215   2.027   2.648 -0.2178 -1.8023 -2.2555
   85MOL   C10735555   3.330   1.342   2.420 -0.5049  0.1899 -0.2781
   85MOL   C10835556   3.316   1.197   2.364  0.6405 -0.5422  0.3123
   85MOL   C10935557   3.316   1.182   2.207  0.2292 -0.0711 -0.0520
   85MOL   C11035558   3.447   1.226   2.142  0.5342 -0.1182  0.2152
   85MOL   C11135559   3.452   1.189   1.995 -0.1152  0.5742  0.4936
   85MOL   C11235560   3.390   1.298   1.906  0.0082  0.1002  0.7677
   85MOL   C11335561   3.390   1.264   1.758 -0.1111 -0.3525  0.1060
   85MOL   H11435562   3.358   1.351   2.525 -1.6671  1.0593 -0.0350
   85MOL   H11535563   3.415   1.397   2.378  0.6825  0.9530  3.0104
   85MOL   H11635564   3.220   1.161   2.398 -0.5920  2.8832  0.6040
   85MOL   H11735565   3.236   1.246   2.169  1.1369  2.2051  1.7854
   85MOL   H11835566   3.283   1.082   2.180  0.6740 -0.6568  1.5130
   85MOL   H11935567   3.465   1.331   2.166  2.0382 -0.3276  0.0345
   85MOL   H12035568   3.531   1.182   2.196  1.4224  1.0815 -0.1665
   85MOL   H12135569   3.401   1.094   1.980 -0.4537  0.9529 -0.8348
   85MOL   H12235570   3.556   1.172   1.966  0.1125  0.5033  1.3428
   85MOL   H12335571   3.291   1.326   1.942 -0.2021  1.5927 -0.8988
   85MOL   H12435572   3.453   1.387   1.908 -0.2845  0.3613 -0.7925
   85MOL   H12535573   3.489   1.253   1.714  0.9446  1.0610  2.0679
   85MOL   H12635574   3.331   1.173   1.751 -0.4536 -0.2077  0.9721
   85MOL   H12735575   3.330   1.343   1.711  0.8154 -0.1846 -0.8177
   85MOL   C12835576   3.431   1.117   2.427 -0.1020 -0.3810 -0.5700
   85MOL   C12935577   3.448   0.961   2.386  0.4450  0.1056  0.3683
   85MOL   C13035578   3.327   0.864   2.423 -0.4072  0.1018 -0.7758
   85MOL   C13135579   3.291   0.773   2.302 -0.2152 -0.4077 -0.1947
   85MOL   C13235580   3.172   0.676   2.323 -1.1010  0.2352  0.4487
   85MOL   C13335581   3.146   0.602   2.191 -0.1863 -0.2566 -0.7171
   85MOL   C13435582   3.026   0.511   2.189  0.3124  0.5828  0.5274
   85MOL   H13535583   3.520   1.176   2.406 -0.1959 -0.1523 -0.3172
   85MOL   H13635584   3.431   1.112   2.535  1.3494 -1.8803 -0.6062
   85MOL   H13735585   3.465   0.957   2.278 -1.6000  1.2664 -0.0100
   85MOL   H13835586   3.241   0.928   2.442  0.5589  1.6613 -1.5175
   85MOL   H13935587   3.340   0.797   2.508  1.2803 -0.3423 -1.3694
   85MOL   H14035588   3.377   0.710   2.280  0.7192  0.6195  0.4410
   85MOL   H14135589   3.276   0.828   2.210  0.5473  1.2779  0.6609
   85MOL   H14235590   3.092   0.733   2.371 -2.1095 -1.6697  1.1092
   85MOL   H14335591   3.204   0.597   2.391 -0.2296  0.3905  0.2143
   85MOL   H14435592   3.233   0.538   2.181  0.8029  0.2473  3.7471
   85MOL   H14535593   3.151   0.666   2.103  1.5269 -1.1781 -1.3038
   85MOL   H14635594   2.930   0.563   2.189  0.3641  0.6803  0.3696
   85MOL   H14735595   3.033   0.442   2.273  2.1552  0.6404  0.4291
   85MOL   H14835596   3.033   0.459   2.093 -0.7268  0.9154  0.2624
   85MOL   C14935597   3.580   0.907   2.447  0.4521 -0.3572  0.6670
   85MOL   C15035598   3.710   0.959   2.373 -0.2561 -0.1793  0.3886
   85MOL   C15135599   3.738   0.871   2.246 -0.3524  0.0863 -0.6222
   85MOL   C15235600   3.831   0.942   2.140 -0.2387  0.7756  0.3436
   85MOL   C15335601   3.824   0.870   2.000 -0.0068  0.8460  0.1455
   85MOL   C15435602   3.936   0.923   1.905  0.5641 -0.4347 -0.4231
   85MOL   C15535603   3.932   1.067   1.859  0.0885  0.1772 -0.7261
   85MOL   H15635604   3.578   0.935   2.552 -3.4798  0.9347  0.3458
   85MOL   H15735605   3.586   0.799   2.446  3.2916 -0.2468  1.4928
   85MOL   H15835606   3.689   1.055   2.325  0.2016 -0.2671  0.0062
   85MOL   H15935607   3.778   0.778   2.285 -0.0210 -0.3937 -2.0756
   85MOL   H16035608   3.646   0.844   2.194  1.0332  0.4863 -3.3849
   85MOL   H16135609   3.938   0.952   2.160  0.1234 -1.8384 -0.0710
   85MOL   H16235610   3.787   1.042   2.138  0.0206  0.8779 -0.4660
   85MOL   H16335611   3.725   0.881   1.955  0.5848  2.7274 -0.7673
   85MOL   H16435612   3.839   0.764   2.021 -1.8417  0.5667  0.1615
   85MOL   H16535613   3.909   0.868   1.815  1.4728  1.0238 -1.6101
   85MOL   H16635614   4.034   0.891   1.938  1.9104  1.1871 -2.6922
   85MOL   H16735615   3.832   1.099   1.830  0.6237  0.1608 -2.6458
   85MOL   H16835616   3.989   1.083   1.767 -0.7944  1.5517 -1.0485
   85MOL   H16935617   3.966   1.132   1.940 -0.4211 -1.0918  0.5382
   85MOL   C17035618   3.817   0.970   2.479  0.2142  0.3804  0.0554
   85MOL   C17135619   3.810   1.094   2.571 -0.2787 -0.4054  0.7864
   85MOL   C17235620   3.772   1.072   2.718 -0.6113  0.0878  0.3432
   85MOL   C17335621   3.720   1.194   2.794 -0.1980  0.3195 -0.0158
   85MOL   C17435622   3.642   1.175   2.922 -0.4066  0.1311 -0.4275
   85MOL   C17535623   3.576   1.303   2.969  0.3928 -0.7151 -0.2309
   85MOL   C17635624   3.443   1.322   2.900  0.7540 -0.3438 -0.9379
   85MOL   H17735625   3.919   0.961   2.441 -0.8511  0.3938 -2.9841
   85MOL   H17835626   3.802   0.891   2.552  0.8759 -0.3454 -0.5804
   85MOL   H17935627   3.740   1.166   2.527  0.2818  1.7629  3.3114
   85MOL   H18035628   3.855   1.034   2.778 -0.2046  1.5423  0.7217
   85MOL   H18135629   3.696   0.994   2.724 -0.4140 -0.1473 -0.2428
   85MOL   H18235630   3.655   1.244   2.722 -0.2995  2.0932  1.2904
   85MOL   H18335631   3.799   1.268   2.804  0.5390 -0.6260  1.2207
   85MOL   H18435632   3.703   1.135   3.003  0.2683  1.9188 -0.0252
   85MOL   H18535633   3.582   1.085   2.912 -0.5464  0.4352 -2.7361
   85MOL   H18635634   3.641   1.391   2.962 -2.0716  1.0084 -2.1663
   85MOL   H18735635   3.553   1.307   3.076 -0.5148  0.0927 -0.4434
   85MOL   H18835636   3.465   1.337   2.794  1.2375  0.7148 -0.7023
   85MOL   H18935637   3.383   1.409   2.928  0.8656 -0.6811  0.3543
   85MOL   H19035638   3.390   1.228   2.912 -1.7345  1.3605  2.0096
   85MOL   C19135639   3.948   1.162   2.574 -0.0933  0.8117 -0.5959
   85MOL   C19235640   4.023   1.213   2.448  0.3478 -0.4932  0.3580
   85MOL   C19335641   3.977   1.344   2.379 -0.0033  0.1138  0.0012
   85MOL   C19435642   3.831   1.331   2.335 -0.0431  0.0140  0.4390
   85MOL   C19535643   3.795   1.418   2.214 -0.0908 -0.5137  0.1365
   85MOL   C19635644   3.847   1.359   2.082 -1.0158 -0.0157  0.6296
   85MOL   C19735645   3.784   1.443   1.966  0.0798  0.9662 -0.7885
   85MOL   H19835646   4.012   1.085   2.618  0.4794  2.1757  1.0416
   85MOL   H19935647   3.945   1.244   2.646  0.7047 -0.2662  0.6996
   85MOL   H20035648   4.008   1.135   2.373 -0.9118 -0.9012  1.0111
   85MOL   H20135649   4.046   1.363   2.297  0.4669 -2.1276 -0.1495
   85MOL   H20235650   3.983   1.425   2.451 -0.4629  1.9680 -2.0046
   85MOL   H20335651   3.756   1.350   2.412 -2.3817 -0.7522 -1.5714
   85MOL   H20435652   3.814   1.229   2.301 -0.5147  0.1850  0.1601
   85MOL   H20535653   3.689   1.430   2.193  0.0280  0.8589  0.2305
   85MOL   H20635654   3.834   1.520   2.224  0.0005 -0.7233  2.2230
   85MOL   H20735655   3.828   1.252   2.071 -1.9509  0.2638 -0.6794
   85MOL   H20835656   3.956   1.368   2.075 -1.0139  0.2023  0.9644
   85MOL   H20935657   3.810   1.400   1.869 -3.0749 -0.6571 -0.9946
   85MOL   H21035658   3.809   1.549   1.974 -0.2066  0.9540  0.3875
   85MOL   H21135659   3.676   1.428   1.960  0.1292  0.2620  0.0016
   85MOL   C21235660   4.172   1.220   2.495  0.6397  0.1768 -0.4949
   85MOL   C21335661   4.286   1.235   2.393 -0.5666  0.5038  0.6306
   85MOL   C21435662   4.388   1.348   2.426 -0.5227  0.2343 -0.9243
   85MOL   C21535663   4.466   1.314   2.557  0.0228  0.3546 -0.5633
   85MOL   C21635664   4.559   1.429   2.611  0.5114  0.3031 -0.5940
   85MOL   C21735665   4.686   1.453   2.525  0.2079 -0.1459  0.3957
   85MOL   C21835666   4.808   1.494   2.615  0.0532  0.0185  0.9817
   85MOL   H21935667   4.184   1.118   2.531 -1.4661 -0.2503 -0.9331
   85MOL   H22035668   4.174   1.296   2.574 -2.3813  0.2961 -0.4872
   85MOL   H22135669   4.251   1.280   2.300 -0.7264  0.0685  0.4832
   85MOL   H22235670   4.460   1.359   2.345 -0.6576  1.0089 -0.9497
   85MOL   H22335671   4.335   1.442   2.446  1.4158  1.3273 -0.7745
   85MOL   H22435672   4.530   1.227   2.539 -0.4755 -0.4675  1.4934
   85MOL   H22535673   4.402   1.284   2.639 -1.5074 -1.1179 -2.2619
   85MOL   H22635674   4.507   1.525   2.611  0.5825  0.3408  0.7916
   85MOL   H22735675   4.575   1.402   2.715 -1.1161 -0.7645 -0.6079
   85MOL   H22835676   4.709   1.362   2.471 -2.2940  0.2027 -1.3585
   85MOL   H22935677   4.656   1.528   2.451  1.4955 -0.7170 -0.7256
   85MOL   H23035678   4.783   1.596   2.644 -2.6307 -0.3624  0.1832
   85MOL   H23135679   4.897   1.504   2.553 -0.5887 -1.1095 -0.1441
   85MOL   H23235680   4.842   1.438   2.702  3.1502  0.6994  0.2899
   85MOL   C23335681   4.356   1.108   2.347 -0.0350 -0.1698  0.2227
   85MOL   C23435682   4.264   0.998   2.290  0.1288  0.5306  0.0580
   85MOL   C23535683   4.218   1.015   2.138 -0.2116  0.1794  0.4377
   85MOL   C23635684   4.341   1.042   2.036  0.0771 -0.0401 -0.0964
   85MOL   C23735685   4.300   1.123   1.907  0.0774 -0.1679  0.4482
   85MOL   C23835686   4.400   1.108   1.789  0.3491  0.1545 -0.0117
   85MOL   C23935687   4.352   1.205   1.680 -0.2808 -0.3937 -0.5189
   85MOL   H24035688   4.403   1.068   2.437 -1.7066 -2.5497  0.0813
   85MOL   H24135689   4.440   1.137   2.283 -0.7609 -1.3533 -1.2869
   85MOL   H24235690   4.171   0.990   2.346  0.5155 -0.8462  0.5441
   85MOL   H24335691   4.153   1.102   2.136 -1.1366 -0.4492  2.0809
   85MOL   H24435692   4.156   0.930   2.110  0.0769  0.0327  0.2448
   85MOL   H24535693   4.388   0.948   2.006  1.3656  0.4234  0.4401
   85MOL   H24635694   4.415   1.107   2.082  0.7949 -0.4327 -0.6862
   85MOL   H24735695   4.283   1.228   1.929 -1.5197  0.0940 -1.9759
   85MOL   H24835696   4.202   1.090   1.873  0.3371  0.4160 -0.8900
   85MOL   H24935697   4.501   1.139   1.814  0.5705 -0.3107 -0.3225
   85MOL   H25035698   4.398   1.005   1.755  0.4161  0.5566 -1.2711
   85MOL   H25135699   4.250   1.184   1.648 -1.0349 -0.2140  1.6247
   85MOL   H25235700   4.348   1.308   1.715 -1.5064 -1.1679  1.8141
   85MOL   H25335701   4.410   1.197   1.589 -0.4201  0.2820 -0.6681
   85MOL   C25435702   4.323   0.862   2.305  0.0438  0.4095 -0.2150
   85MOL   C25535703   4.221   0.751   2.318 -0.3846  0.6184 -0.2558
   85MOL   C25635704   4.192   0.731   2.465 -0.9170 -0.6826 -0.2571
   85MOL   C25735705   4.059   0.658   2.487 -0.4583  0.6823 -0.4674
   85MOL   C25835706   4.051   0.588   2.622 -0.3916  0.5259 -0.7609
   85MOL   C25935707   3.924   0.502   2.641 -0.0900 -0.1995  0.6912
   85MOL   C26035708   3.806   0.591   2.685  0.4798  0.1918  0.6282
   85MOL   H26135709   4.398   0.854   2.383 -2.7024 -0.6892  2.4460
   85MOL   H26235710   4.376   0.831   2.215 -2.4323  0.3960 -1.7153
   85MOL   H26335711   4.129   0.783   2.270 -0.1782  1.4860 -0.0860
   85MOL   H26435712   4.178   0.822   2.524 -0.4183 -0.9358  0.2546
   85MOL   H26535713   4.279   0.678   2.502 -0.4525  0.2841  0.0382
   85MOL   H26635714   3.989   0.741   2.482 -0.8498  0.3156 -1.0343
   85MOL   H26735715   4.034   0.587   2.408  1.1146 -1.8785  1.2750
   85MOL   H26835716   4.076   0.657   2.702 -1.9918  0.9801 -0.6352
   85MOL   H26935717   4.135   0.518   2.623 -1.7193 -1.0552  1.5286
   85MOL   H27035718   3.919   0.431   2.559  3.3288 -0.8300  0.9514
   85MOL   H27135719   3.937   0.444   2.732  0.6283 -1.4102 -0.1754
   85MOL   H27235720   3.757   0.628   2.595  1.7398  0.7764  0.1702
   85MOL   H27335721   3.731   0.538   2.743  1.5911 -0.8921  1.0958
   85MOL   H27435722   3.843   0.669   2.751 -1.0923  2.8768 -1.5379
   85MOL   C27535723   4.266   0.618   2.255  0.0285  0.5217 -0.3354
   85MOL   C27635724   4.262   0.607   2.097  0.1847  0.2552 -0.3731
   85MOL   C27735725   4.125   0.580   2.031  0.1956 -0.4141  0.3671
   85MOL   C27835726   4.071   0.440   2.067 -0.4148 -0.3759 -0.0405
   85MOL   C27935727   3.924   0.429   2.084  0.6481 -0.7933  0.2136
   85MOL   C28035728   3.861   0.492   2.212 -1.0292 -0.1466 -0.2067
   85MOL   C28135729   3.711   0.505   2.205 -0.0055 -0.5910 -0.1737
   85MOL   H28235730   4.209   0.536   2.297 -1.3091  0.7898 -1.5807
   85MOL   H28335731   4.365   0.597   2.295 -0.8202 -0.4869  1.2784
   85MOL   H28435732   4.302   0.702   2.062  0.5904  0.4805  0.6790
   85MOL   H28535733   4.054   0.657   2.063 -1.3820 -2.4957  2.0130
   85MOL   H28635734   4.133   0.592   1.923  0.7322 -0.2467  0.4213
   85MOL   H28735735   4.123   0.417   2.160 -0.2127 -1.3840 -0.3950
   85MOL   H28835736   4.099   0.372   1.986 -1.8984  0.0019 -0.8767
   85MOL   H28935737   3.899   0.323   2.082 -0.6811 -0.5573  2.3043
   85MOL   H29035738   3.881   0.471   1.993  0.6806  0.7307  0.8845
   85MOL   H29135739   3.892   0.426   2.293  1.0147  1.2101  0.1423
   85MOL   H29235740   3.905   0.590   2.226 -2.6513  0.7138 -0.8952
   85MOL   H29335741   3.673   0.404   2.217 -0.4497 -0.8104 -3.0143
   85MOL   H29435742   3.676   0.542   2.109  1.7357 -0.1061 -0.6456
   85MOL   H29535743   3.666   0.562   2.287 -0.0568 -1.1924  0.2145
   85MOL   C29635744   4.365   0.504   2.046  0.2067 -0.0811 -0.1335
   85MOL   C29735745   4.504   0.560   2.006  0.3988 -0.2368 -0.8582
   85MOL   C29835746   4.505   0.611   1.857  0.1537 -0.1893 -0.4943
   85MOL   C29935747   4.595   0.736   1.845  0.3017  0.1822  0.0255
   85MOL   C30035748   4.645   0.751   1.696  0.0896  0.2362 -0.7146
   85MOL   C30135749   4.731   0.880   1.679  0.3309 -1.0053 -0.5171
   85MOL   C30235750   4.884   0.840   1.683 -0.3059 -0.1543 -0.3920
   85MOL   H30335751   4.369   0.430   2.126 -0.9197  1.6545  1.5928
   85MOL   H30435752   4.330   0.442   1.964  2.6556 -1.5627 -0.1238
   85MOL   H30535753   4.531   0.641   2.074  0.0280  0.4008 -1.4635
   85MOL   H30635754   4.529   0.524   1.796  0.6210 -0.0504 -0.5105
   85MOL   H30735755   4.405   0.638   1.826 -1.1859 -3.1334  1.0527
   85MOL   H30835756   4.681   0.714   1.908  0.7158  0.7482 -0.3395
   85MOL   H30935757   4.558   0.829   1.888  1.5398  1.1978 -1.0995
   85MOL   H31035758   4.562   0.767   1.628  0.8570  1.7422 -1.3261
   85MOL   H31135759   4.696   0.660   1.665 -0.2414 -0.9302  2.0058
   85MOL   H31235760   4.716   0.912   1.576  1.5382 -0.5201 -0.5499
   85MOL   H31335761   4.688   0.951   1.750 -1.3763 -1.0983 -1.4224
   85MOL   H31435762   4.951   0.926   1.684 -1.8656  1.0940 -0.0809
   85MOL   H31535763   4.913   0.782   1.771 -0.2515  2.5191  1.4150
   85MOL   H31635764   4.913   0.785   1.594  1.0640 -1.2976  0.7415
   85MOL   C31735765   4.627   0.464   2.023  0.2642  0.1845  0.2435
   85MOL   C31835766   4.667   0.429   2.165 -0.8917 -0.3935  0.2230
   85MOL   C31935767   4.696   0.276   2.178 -0.1089 -0.9579  0.1909
   85MOL   C32035768   4.808   0.215   2.090 -0.1756 -0.0307  0.0671
   85MOL   C32135769   4.829   0.062   2.099 -0.4724 -0.5145  0.1373
   85MOL   C32235770   4.950   0.016   2.016  0.5159 -0.5198  0.2867
   85MOL   C32335771   4.991   7.583   2.045 -0.3734  0.7094 -0.4139
   85MOL   H32435772   4.718   0.505   1.979  1.1731 -1.2116  0.7833
   85MOL   H32535773   4.612   0.375   1.962 -2.9910 -0.1860  1.4642
   85MOL   H32635774   4.577   0.448   2.224 -0.0102  0.9297  1.1708
   85MOL   H32735775   4.602   0.222   2.164 -0.0982 -0.4114 -2.2343
   85MOL   H32835776   4.713   0.260   2.285  0.6084 -1.4345 -0.0007
   85MOL   H32935777   4.906   0.260   2.108  0.1167 -0.6053 -0.0801
   85MOL   H33035778   4.780   0.234   1.986  0.1462  0.8767  0.1406
   85MOL   H33135779   4.736   0.016   2.065  0.6424 -1.9445 -0.9905
   85MOL   H33235780   4.838   0.041   2.206 -3.1432  0.4097  0.5809
   85MOL   H33335781   5.035   0.085   2.023  0.3790 -0.2364 -0.7679
   85MOL   H33435782   4.920   0.025   1.912  0.7837 -1.4315  0.1252
   85MOL   H33535783   5.034   7.562   2.143 -2.2763  0.5522  0.4237
   85MOL   H33635784   5.064   7.565   1.967 -1.4496  1.4874 -1.6305
   85MOL   H33735785   4.901   7.527   2.020 -0.4527  0.6464  0.0178
   85MOL   C33835786   4.786   0.515   2.224  0.9361 -0.4057  0.8853
   85MOL   C33935787   4.760   0.665   2.266  0.2648 -0.5629  0.1087
   85MOL   C34035788   4.829   0.754   2.164 -0.5261 -0.1469 -0.4495
   85MOL   C34135789   4.769   0.901   2.166 -0.1135  0.0637  0.2255
   85MOL   C34235790   4.825   0.979   2.046 -0.4583 -0.3412  0.6604
   85MOL   C34335791   4.775   1.126   2.038  0.1324 -0.0771  0.3242
   85MOL   C34435792   4.833   1.209   2.150 -0.0864  0.0288 -0.8224
   85MOL   H34535793   4.870   0.513   2.155  0.4308  2.1185  0.1406
   85MOL   H34635794   4.812   0.466   2.318 -0.0971 -0.1768  1.2999
   85MOL   H34735795   4.653   0.686   2.263  0.5251  1.0817  1.2789
   85MOL   H34835796   4.935   0.762   2.189 -0.9161  1.0234  0.9065
   85MOL   H34935797   4.815   0.716   2.063 -0.7513  0.1963 -0.5496
   85MOL   H35035798   4.781   0.946   2.264 -2.9609 -0.6067  0.9107
   85MOL   H35135799   4.663   0.904   2.139  0.0236 -2.6859 -0.7594
   85MOL   H35235800   4.934   0.988   2.047 -0.5113  0.2812  1.2225
   85MOL   H35335801   4.802   0.934   1.950  1.7926  0.7642 -0.4404
   85MOL   H35435802   4.795   1.154   1.934 -0.2635 -0.9723 -0.0068
   85MOL   H35535803   4.668   1.142   2.052  0.4985  4.0620 -0.8676
   85MOL   H35635804   4.812   1.316   2.146  1.2445  0.3031 -0.5444
   85MOL   H35735805   4.941   1.199   2.155  0.0497  0.6962 -2.2032
   85MOL   H35835806   4.793   1.183   2.248 -0.4974 -0.7377 -1.1872
   85MOL   C35935807   4.807   0.694   2.411  0.4151 -0.2471 -0.2316
   85MOL   C36035808   4.690   0.687   2.521  0.7394 -0.0469  0.1513
   85MOL   C36135809   4.594   0.564   2.529  0.8321 -0.1167  0.0899
   85MOL   C36235810   4.643   0.445   2.598 -0.6107  0.0846 -0.6089
   85MOL   C36335811   4.544   0.329   2.608  0.1967 -1.1447 -0.7375
   85MOL   C36435812   4.442   0.345   2.714  0.5894 -1.0031 -0.2751
   85MOL   C36535813   4.311   0.268   2.699 -0.8845  0.3986 -0.1025
   85MOL   H36635814   4.853   0.793   2.413  1.0229 -0.3916 -4.2475
   85MOL   H36735815   4.889   0.628   2.440  0.5819  0.6061  1.3144
   85MOL   H36835816   4.615   0.761   2.493  2.1378  1.2437 -0.2153
   85MOL   H36935817   4.496   0.596   2.562  0.0959 -1.3297 -0.8670
   85MOL   H37035818   4.577   0.540   2.424  1.5778  2.2283 -0.6005
   85MOL   H37135819   4.740   0.415   2.557 -0.3389 -1.7194  1.2683
   85MOL   H37235820   4.677   0.458   2.700 -0.8545 -1.7863 -0.2633
   85MOL   H37335821   4.489   0.318   2.515 -2.9951 -1.8603  1.1327
   85MOL   H37435822   4.607   0.243   2.630  0.3670 -0.3531  2.0715
   85MOL   H37535823   4.487   0.305   2.805  0.5004 -2.2966 -0.7841
   85MOL   H37635824   4.414   0.450   2.725 -0.7695 -1.2377 -1.4256
   85MOL   H37735825   4.324   0.166   2.661 -0.7062  0.1809  0.5274
   85MOL   H37835826   4.260   0.262   2.795  1.4080 -0.3995  1.1054
   85MOL   H37935827   4.253   0.323   2.625 -1.2348 -0.2080 -0.2855
   85MOL   C38035828   4.742   0.726   2.660  0.8591  0.0747  0.5053
   85MOL   C38135829   4.642   0.741   2.777  0.5294  0.7070  0.8251
   85MOL   C38235830   4.701   0.734   2.919 -0.1421  0.4494  0.1237
   85MOL   C38335831   4.717   0.605   2.991 -0.2148  0.3437  0.9658
   85MOL   C38435832   4.776   0.608   3.134  0.6098  0.0225  0.7625
   85MOL   C38535833   4.926   0.646   3.133 -0.1676  0.6438 -0.0627
   85MOL   C38635834   4.986   0.640   3.274 -0.6027  0.9239 -0.2048
   85MOL   H38735835   4.805   0.645   2.696 -0.8548 -1.6563 -0.3321
   85MOL   H38835836   4.811   0.810   2.665 -0.0145  0.9511 -1.5641
   85MOL   H38935837   4.564   0.664   2.777 -0.2139  1.4516  0.3793
   85MOL   H39035838   4.633   0.788   2.986 -0.8115 -1.6145  1.1456
   85MOL   H39135839   4.791   0.796   2.915 -0.2832  0.7260  0.9590
   85MOL   H39235840   4.621   0.553   2.990 -0.0679  0.0775 -0.8097
   85MOL   H39335841   4.785   0.551   2.926 -2.0196  1.6653 -2.1648
   85MOL   H39435842   4.705   0.674   3.183  0.0686  0.9072 -1.1579
   85MOL   H39535843   4.770   0.510   3.182 -1.9564  0.2154  0.9064
   85MOL   H39635844   4.951   0.742   3.090 -2.5267  0.9841 -0.7633
   85MOL   H39735845   4.986   0.586   3.065  0.3277  1.2843 -0.1942
   85MOL   H39835846   4.972   0.541   3.319  2.7208  1.3359  1.8331
   85MOL   H39935847   4.934   0.709   3.341  0.0406 -1.6217  3.0831
   85MOL   H40035848   5.091   0.665   3.283 -0.1505 -0.7565 -0.5627
   85MOL   C40135849   4.574   0.878   2.759  0.3124 -0.4280 -0.2821
   85MOL   C40235850   4.441   0.898   2.824  0.3558  0.7743 -0.2145
   85MOL   C40335851   4.407   1.046   2.821 -0.1824  0.1329  0.0833
   85MOL   C40435852   4.263   1.066   2.887 -0.1347  0.1877 -0.3840
   85MOL   C40535853   4.236   1.211   2.942  0.0122  0.4486 -0.0124
   85MOL   C40635854   4.091   1.220   3.001  0.7946 -0.7368  0.2401
   85MOL   C40735855   4.039   1.354   2.984 -0.2590  0.6577 -0.2511
   85MOL   H40835856   4.560   0.903   2.654  2.1293  1.8561 -0.0389
   85MOL   H40935857   4.640   0.961   2.786 -1.1799  0.3796  0.9737
   85MOL   H41035858   4.438   0.861   2.927  0.6876  0.0444 -0.4603
   85MOL   H41135859   4.415   1.080   2.718  0.3967 -0.7586 -0.1764
   85MOL   H41235860   4.481   1.104   2.875  0.0155 -0.6326  0.6454
   85MOL   H41335861   4.248   0.995   2.968  2.1632 -1.3796 -1.3113
   85MOL   H41435862   4.199   1.040   2.803  1.0049 -1.5167 -0.7371
   85MOL   H41535863   4.312   1.236   3.016  0.0969  1.1039 -0.3239
   85MOL   H41635864   4.236   1.267   2.849  0.6594 -1.0558 -0.9296
   85MOL   H41735865   4.027   1.153   2.943 -0.1850  1.0657 -0.8530
   85MOL   H41835866   4.091   1.201   3.108 -0.5235  1.2561  0.6453
   85MOL   H41935867   4.098   1.433   3.031  2.5847 -0.7083 -1.4031
   85MOL   H42035868   3.935   1.362   3.015 -0.9791 -0.9590 -2.1681
   85MOL   H42135869   4.033   1.378   2.878 -0.5672  2.2709  0.1253
   85MOL   H42235870   4.359   0.841   2.779 -0.9331  2.6847 -0.3060
   86MOL     C135871   5.210   6.510   0.534  0.0308 -0.2451  0.2977
   86MOL     C235872   5.206   6.589   0.396  0.1874  0.5357  0.8994
   86MOL     C335873   5.064   6.574   0.338 -0.0347 -0.2497 -0.0422
   86MOL     C435874   4.946   6.627   0.423  0.5614 -0.3475 -0.4628
   86MOL     C535875   4.805   6.624   0.361 -0.8005  0.0843  0.1722
   86MOL     C635876   4.743   6.483   0.361  0.2535  0.3580 -0.4011
   86MOL     C735877   4.603   6.463   0.302  0.9908 -0.4940 -0.8934
   86MOL     H835878   5.139   6.427   0.534  2.0511 -2.0250 -0.4588
   86MOL     H935879   5.181   6.573   0.619  1.5173 -1.9809  2.1555
   86MOL    H1035880   5.225   6.696   0.406 -4.0230  1.0462  5.5609
   86MOL    H1135881   5.059   6.621   0.240  0.7335 -0.6291 -0.2641
   86MOL    H1235882   5.041   6.472   0.305  0.7642 -0.5769  0.3998
   86MOL    H1335883   4.939   6.569   0.515  2.8828 -1.3913 -0.9044
   86MOL    H1435884   4.957   6.733   0.445 -2.1302 -0.0150 -0.5408
   86MOL    H1535885   4.790   6.675   0.265 -3.1425  1.3835  1.1791
   86MOL    H1635886   4.737   6.684   0.421 -1.3281  1.4316 -1.6920
   86MOL    H1735887   4.740   6.439   0.461  2.1024  0.7637 -0.1358
   86MOL    H1835888   4.795   6.411   0.298  3.0833  2.6325 -0.7974
   86MOL    H1935889   4.527   6.524   0.351 -1.3595 -2.1420 -2.3514
   86MOL    H2035890   4.572   6.359   0.311  0.8797 -0.2571  1.6278
   86MOL    H2135891   4.604   6.502   0.200  3.1960  2.2645  0.1321
   86MOL    H2235892   5.309   6.477   0.565  1.1367  0.5239 -2.3339
   86MOL    C2335893   5.320   6.540   0.297  0.0491  0.0828  0.1781
   86MOL    C2435894   5.342   6.611   0.162  0.3077  0.9417 -0.0072
   86MOL    C2535895   5.428   6.525   0.066 -0.1540 -0.5360  0.0992
   86MOL    C2635896   5.577   6.508   0.107 -0.7011 -0.0860  0.7333
   86MOL    C2735897   5.658   6.436   0.002  0.5970 -0.0313  0.2652
   86MOL    C2835898   5.809   6.416   0.046 -1.0317 -0.0554  0.7864
   86MOL    C2935899   5.878   6.285   7.709 -0.3413 -0.7065 -0.4373
   86MOL    H3035900   5.415   6.558   0.348  0.8493 -0.4052 -1.1038
   86MOL    H3135901   5.311   6.432   0.286  1.5461  0.0974 -1.4764
   86MOL    H3235902   5.243   6.611   0.116 -0.0169  2.5202  0.6542
   86MOL    H3335903   5.430   6.583   7.687 -1.6532  1.1403  1.0809
   86MOL    H3435904   5.377   6.432   0.041 -2.1833  0.1948  1.4229
   86MOL    H3535905   5.573   6.430   0.183 -1.6148 -1.5305 -0.7462
   86MOL    H3635906   5.631   6.598   0.135 -0.7893 -0.2136  1.3147
   86MOL    H3735907   5.647   6.483   7.618  1.0789 -1.3479 -0.4420
   86MOL    H3835908   5.627   6.333   7.700  2.9641 -0.7105 -0.0328
   86MOL    H3935909   5.820   6.398   0.152  0.8584 -0.4555  0.5403
   86MOL    H4035910   5.865   6.506   0.021  0.2957 -0.9814  0.3830
   86MOL    H4135911   5.905   6.224   0.082  0.4915 -0.3108 -0.4124
   86MOL    H4235912   5.818   6.229   7.637 -1.9503  2.6194 -1.7849
   86MOL    H4335913   5.966   6.304   7.647  1.4086 -3.2213  1.1493
   86MOL    C4435914   5.396   6.756   0.170 -0.2440  0.1651 -0.1593
   86MOL    C4535915   5.306   6.868   0.104  0.2422 -0.0668 -0.0034
   86MOL    C4635916   5.241   6.942   0.214 -0.1024 -0.1485  0.3663
   86MOL    C4735917   5.108   7.012   0.182 -0.4533  0.5074  0.3919
   86MOL    C4835918   5.057   7.099   0.297 -0.3423  0.0869  0.7545
   86MOL    C4935919   4.928   7.183   0.276 -1.0740 -0.0540 -0.0712
   86MOL    C5035920   4.816   7.099   0.226 -0.0265  0.2805  0.5283
   86MOL    H5135921   5.500   6.768   0.139 -0.2519  1.2653  0.2236
   86MOL    H5235922   5.415   6.776   0.276 -2.9938 -0.8659  0.5691
   86MOL    H5335923   5.234   6.815   0.041 -0.9926  0.0959  1.2308
   86MOL    H5435924   5.312   7.015   0.254 -0.1167  0.3680 -0.5464
   86MOL    H5535925   5.218   6.874   0.295 -0.2339 -0.8054 -0.2208
   86MOL    H5635926   5.120   7.076   0.095 -0.3038  2.5121  1.8508
   86MOL    H5735927   5.040   6.934   0.149  0.3905 -0.3591  0.7041
   86MOL    H5835928   5.140   7.162   0.327  0.6345  0.3874 -2.4099
   86MOL    H5935929   5.035   7.026   0.375  0.5513  0.4718  1.3724
   86MOL    H6035930   4.962   7.243   0.192  1.3212  0.0631  0.9245
   86MOL    H6135931   4.901   7.239   0.365  1.7863  2.6329 -0.8107
   86MOL    H6235932   4.823   7.051   0.128 -1.1257 -1.0543  1.1009
   86MOL    H6335933   4.718   7.147   0.223 -0.0984  0.0427 -1.6345
   86MOL    H6435934   4.809   7.014   0.294 -0.6495 -1.4832 -1.6614
   86MOL    C6535935   5.390   6.975   0.023 -0.5397  0.4442 -0.3489
   86MOL    C6635936   5.459   6.911   7.614  0.7972  0.0080  0.3730
   86MOL    C6735937   5.595   6.981   7.585 -0.3248 -0.2378 -0.1543
   86MOL    C6835938   5.713   6.933   7.671  0.0131  0.0736  0.2482
   86MOL    C6935939   5.829   7.021   7.653  0.2194  0.3970 -0.3462
   86MOL    C7035940   5.946   6.955   7.713  0.2218  0.2642 -0.0722
   86MOL    C7135941   6.058   7.050   7.702  0.0399  0.4922  0.3807
   86MOL    H7235942   5.316   7.054   0.006 -0.7603  0.2370 -0.3581
   86MOL    H7335943   5.462   7.031   0.083 -0.9603  0.1242  0.4711
   86MOL    H7435944   5.482   6.807   7.639 -0.8992  0.2668  3.3062
   86MOL    H7535945   5.622   6.966   7.481  0.6303 -2.0992  0.3456
   86MOL    H7635946   5.583   7.088   7.598 -1.2471 -0.4360  0.6701
   86MOL    H7735947   5.679   6.935   0.061  0.0999  2.4668  0.2437
   86MOL    H7835948   5.734   6.830   7.642 -1.3444 -0.3384  0.6849
   86MOL    H7935949   5.858   7.033   7.548 -1.2551  1.5682 -0.6532
   86MOL    H8035950   5.809   7.125   7.681 -0.3137  0.9244 -2.5712
   86MOL    H8135951   5.969   6.859   7.669  1.8249 -0.0425  1.3814
   86MOL    H8235952   5.921   6.934   0.103 -1.3891 -0.5534 -0.6163
   86MOL    H8335953   6.148   6.991   0.006 -0.8269 -1.7345 -2.2928
   86MOL    H8435954   6.072   7.088   7.601  0.3520  0.9141  0.5817
   86MOL    H8535955   6.051   7.127   0.065  2.0091 -0.8628  1.9895
   86MOL    C8635956   5.367   6.922   7.489 -0.0850 -0.8469 -0.2940
   86MOL    C8735957   5.407   6.820   7.372 -0.0207 -0.1903 -0.4271
   86MOL    C8835958   5.324   6.687   7.378  0.2368 -0.0576 -0.5423
   86MOL    C8935959   5.371   6.565   7.299 -0.0324  0.3871 -0.0559
   86MOL    C9035960   5.496   6.496   7.362  0.3009 -0.4977  0.2751
   86MOL    C9135961   5.537   6.368   7.288 -0.2102 -0.0294 -0.9913
   86MOL    C9235962   5.667   6.305   7.337  0.1092 -0.5264 -0.0470
   86MOL    H9335963   5.260   6.909   7.504  0.1823 -3.0166 -0.1296
   86MOL    H9435964   5.366   7.023   7.447 -2.5749 -0.7950 -0.1464
   86MOL    H9535965   5.508   6.787   7.396  0.1105 -0.3770 -1.2126
   86MOL    H9635966   5.309   6.664   7.483  2.6686  0.4387 -0.0616
   86MOL    H9735967   5.224   6.704   7.338 -0.2697 -1.7307 -0.0579
   86MOL    H9835968   5.293   6.489   7.304  2.4199 -2.3025 -1.0099
   86MOL    H9935969   5.395   6.584   7.194  1.6961 -2.9357 -0.3485
   86MOL   H10035970   5.482   6.486   7.469 -1.4874  1.2727  0.2385
   86MOL   H10135971   5.571   6.574   7.354  0.1299 -0.3456  0.1544
   86MOL   H10235972   5.455   6.300   7.312 -0.5386  0.3874 -0.9293
   86MOL   H10335973   5.544   6.386   7.181  3.3498 -0.4471 -0.8682
   86MOL   H10435974   5.749   6.378   7.336 -1.0214  0.7714 -0.0093
   86MOL   H10535975   5.698   6.215   7.285 -1.5957  0.0057 -2.0377
   86MOL   H10635976   5.658   6.270   7.440  0.2696  1.8515  0.8155
   86MOL   C10735977   5.406   6.885   7.228  0.2604  0.3174 -0.5894
   86MOL   C10835978   5.511   6.993   7.201 -0.7146  0.2512 -0.3029
   86MOL   C10935979   5.656   6.926   7.175 -0.3936  0.1503  0.4210
   86MOL   C11035980   5.682   6.869   7.036  0.3548 -0.3535  0.2267
   86MOL   C11135981   5.821   6.807   7.023 -0.1519  1.2355 -0.6882
   86MOL   C11235982   5.932   6.903   7.006  1.0008 -0.3434  0.0605
   86MOL   C11335983   6.051   6.851   6.928  0.2192  0.0523 -0.0699
   86MOL   H11435984   5.308   6.931   7.221  1.0594  2.8409  3.3722
   86MOL   H11535985   5.412   6.813   7.146 -1.3173  0.9426 -1.2804
   86MOL   H11635986   5.513   7.047   7.295 -1.0577 -1.0967  0.4843
   86MOL   H11735987   5.677   6.852   7.252  2.7843  0.8371  0.2900
   86MOL   H11835988   5.729   7.002   7.203 -0.1876  0.4553 -0.8821
   86MOL   H11935989   5.599   6.800   7.023 -1.4977  1.3951  2.3363
   86MOL   H12035990   5.668   6.942   6.956 -1.8942 -0.1263  0.7967
   86MOL   H12135991   5.808   6.743   6.936  0.5436 -0.8163  0.6721
   86MOL   H12235992   5.835   6.740   7.108 -1.2569  2.5343  0.5605
   86MOL   H12335993   5.898   6.993   6.955  0.8099 -1.4456 -1.8057
   86MOL   H12435994   5.968   6.940   7.102  0.6676  0.9106 -0.2849
   86MOL   H12535995   6.059   6.742   6.925 -2.4708 -0.2178  1.4276
   86MOL   H12635996   6.047   6.875   6.822  0.8321 -0.6561 -0.2635
   86MOL   H12735997   6.147   6.895   6.954  1.6287 -1.3818 -2.5697
   86MOL   C12835998   5.470   7.102   7.106 -0.1167 -0.5029 -0.2716
   86MOL   C12935999   5.568   7.210   7.082 -0.4535 -0.3603  0.3667
   86MOL   C13036000   5.588   7.304   7.206 -0.0954  0.4149  0.0024
   86MOL   C13136001   5.737   7.352   7.238  1.2142  0.7527  0.5064
   86MOL   C13236002   5.764   7.364   7.396  0.3013  0.4180  0.6044
   86MOL   C13336003   5.912   7.403   7.413  0.2895  0.3836  0.2698
   86MOL   C13436004   5.956   7.414   7.559 -0.1978  0.4223  0.2377
   86MOL   H13536005   5.451   7.058   7.008  2.0712 -1.7017 -0.2086
   86MOL   H13636006   5.377   7.152   7.133  0.1023  1.0531 -2.3160
   86MOL   H13736007   5.669   7.171   7.068 -0.7397 -1.8470  2.3432
   86MOL   H13836008   5.544   7.259   7.295 -2.5738  0.5419 -1.1224
   86MOL   H13936009   5.521   7.390   7.199 -1.9588 -1.1987 -3.5386
   86MOL   H14036010   5.755   7.445   7.185  2.2938  0.1408 -0.2401
   86MOL   H14136011   5.816   7.290   7.194 -0.0170  0.1468 -0.9009
   86MOL   H14236012   5.751   7.267   7.445  1.2349 -0.5402 -0.9818
   86MOL   H14336013   5.705   7.441   7.444  0.3837  0.4323  0.6830
   86MOL   H14436014   5.932   7.498   7.363  3.3557 -0.3244  0.0151
   86MOL   H14536015   5.982   7.332   7.369 -2.1454 -2.1823  0.3696
   86MOL   H14636016   5.915   7.498   7.616  4.0327  2.2348  0.8004
   86MOL   H14736017   6.063   7.428   7.570 -0.6234  2.0485  2.7937
   86MOL   H14836018   5.940   7.324   7.618 -0.4432 -0.0065 -0.4791
   86MOL   C14936019   5.549   7.300   6.954 -0.2272 -0.3206  0.2302
   86MOL   C15036020   5.567   7.220   6.819 -0.5408  0.2420 -1.0501
   86MOL   C15136021   5.712   7.192   6.768  0.6393 -0.2017 -0.0089
   86MOL   C15236022   5.721   7.077   6.658  0.2104 -0.0910  0.0238
   86MOL   C15336023   5.869   7.053   6.619  0.1527  0.3045 -0.6177
   86MOL   C15436024   5.933   7.152   6.518 -0.3280 -0.1369 -0.2008
   86MOL   C15536025   6.085   7.138   6.492 -0.0497  0.4488 -0.8108
   86MOL   H15636026   5.448   7.342   6.960 -0.6813 -1.2894 -0.4500
   86MOL   H15736027   5.621   7.381   6.953 -2.1684  1.5587  3.1632
   86MOL   H15836028   5.532   7.119   6.840 -0.7104  0.5937  0.3826
   86MOL   H15936029   5.754   7.282   6.724 -0.1800  0.0040 -0.3852
   86MOL   H16036030   5.771   7.156   6.852  0.9757  2.4367  0.9010
   86MOL   H16136031   5.651   7.087   6.575 -0.9041 -1.1659  0.8132
   86MOL   H16236032   5.675   6.988   6.703 -1.3988  0.9972  0.5723
   86MOL   H16336033   5.860   6.957   6.568  0.7842  0.1286 -0.4069
   86MOL   H16436034   5.938   7.044   6.703 -0.6657  1.0913  0.1498
   86MOL   H16536035   5.932   7.252   6.561 -1.0748 -0.1465 -0.1829
   86MOL   H16636036   5.891   7.139   6.418 -0.8036  0.8241 -0.1377
   86MOL   H16736037   6.136   7.211   6.429  1.7189 -2.1093 -2.4414
   86MOL   H16836038   6.108   7.042   6.446 -1.2110 -0.8214  1.1987
   86MOL   H16936039   6.147   7.151   6.581 -1.1746 -0.3140  0.0975
   86MOL   C17036040   5.474   7.286   6.715  0.2434 -0.5681  0.9972
   86MOL   C17136041   5.319   7.271   6.744 -0.2917  0.1622 -0.2946
   86MOL   C17236042   5.249   7.409   6.763  0.2253  0.4363  0.2807
   86MOL   C17336043   5.239   7.491   6.637  0.1124  0.1293 -0.3085
   86MOL   C17436044   5.128   7.598   6.646 -0.3907  0.2886  0.0969
   86MOL   C17536045   5.139   7.680   6.513  0.8044  0.3134  0.3446
   86MOL   C17636046   5.067   0.105   6.504  1.1931  0.1056 -1.0006
   86MOL   H17736047   5.497   7.250   6.615  0.7020 -0.6158  1.1184
   86MOL   H17836048   5.496   7.392   6.720  0.4248 -0.5900  0.6588
   86MOL   H17936049   5.299   7.213   6.834  0.4013  1.5228  0.7580
   86MOL   H18036050   5.291   7.470   6.842 -1.0002  0.1739  1.1512
   86MOL   H18136051   5.149   7.379   6.795  0.0703 -1.1300 -1.5434
   86MOL   H18236052   5.207   7.424   6.557 -0.4613  0.1519 -0.1080
   86MOL   H18336053   5.334   7.540   6.621  0.8204 -0.2140  2.5231
   86MOL   H18436054   5.150   7.659   6.733  2.1995  0.2390 -0.4903
   86MOL   H18536055   5.028   7.558   6.661 -0.2870  0.2076  0.5660
   86MOL   H18636056   5.090   7.620   6.436 -0.2173  0.6865  0.6953
   86MOL   H18736057   5.241   7.692   6.478  1.5967 -1.9198  1.7900
   86MOL   H18836058   5.096   0.173   6.584  1.0832  0.0354 -0.9005
   86MOL   H18936059   4.962   0.082   6.523  1.4023  1.8097  2.6872
   86MOL   H19036060   5.073   0.159   6.410  0.3549 -0.5612 -1.4445
   86MOL   C19136061   5.264   7.170   6.636 -0.7770 -0.0164 -0.4854
   86MOL   C19236062   5.134   7.087   6.664 -0.1987  0.0303 -0.2523
   86MOL   C19336063   5.142   7.014   6.802 -0.1156 -0.6269 -0.3461
   86MOL   C19436064   5.261   6.915   6.810  0.0798  0.4325  0.0423
   86MOL   C19536065   5.248   6.810   6.917  0.0784  0.3863  0.0964
   86MOL   C19636066   5.154   6.694   6.884  0.2099  0.9970  0.1273
   86MOL   C19736067   5.155   6.587   6.999  0.0745 -0.0718 -0.0513
   86MOL   H19836068   5.340   7.092   6.639 -1.4563 -0.6492  0.2217
   86MOL   H19936069   5.259   7.216   6.537  0.9320  1.5996  0.1440
   86MOL   H20036070   5.130   7.001   6.597  0.0979 -0.7268  0.6923
   86MOL   H20136071   5.052   6.956   6.821  0.0459 -0.1372  2.0140
   86MOL   H20236072   5.146   7.085   6.884 -2.4036  0.8990 -1.4986
   86MOL   H20336073   5.348   6.975   6.836  0.8391  0.0517 -1.5358
   86MOL   H20436074   5.295   6.869   6.717  0.6315 -0.5468  0.7246
   86MOL   H20536075   5.350   6.773   6.925 -0.0929 -0.0797  0.1663
   86MOL   H20636076   5.217   6.849   7.013 -1.8363 -1.3611  0.2309
   86MOL   H20736077   5.165   6.646   6.787 -1.0180 -1.5537  1.2187
   86MOL   H20836078   5.051   6.729   6.879  0.1695  0.7062 -1.3307
   86MOL   H20936079   5.107   6.495   6.964 -1.1477  0.1142  1.0666
   86MOL   H21036080   5.101   6.622   7.087 -0.5559  1.5842 -1.0776
   86MOL   H21136081   5.252   6.549   7.030  0.4431 -2.0601 -3.4328
   86MOL   C21236082   5.001   7.163   6.650 -0.2365 -0.2262 -1.0561
   86MOL   C21336083   4.878   7.078   6.615  0.0872 -0.0945 -0.3035
   86MOL   C21436084   4.750   7.155   6.658 -0.3105  0.2370 -0.1708
   86MOL   C21536085   4.717   7.145   6.809  0.0971  0.1453  0.2440
   86MOL   C21636086   4.600   7.234   6.862 -0.1446 -0.4648 -0.7582
   86MOL   C21736087   4.573   7.218   7.012  0.0702  0.2316 -0.3205
   86MOL   C21836088   4.450   7.127   7.044 -0.4935  0.5473 -0.1259
   86MOL   H21936089   5.018   7.251   6.588 -0.3567  0.5901  0.0511
   86MOL   H22036090   4.990   7.199   6.753 -0.4173 -1.0760 -0.7728
   86MOL   H22136091   4.881   6.982   6.666 -0.2873  0.7857  1.4125
   86MOL   H22236092   4.750   7.263   6.640 -1.7758  0.3394  0.3707
   86MOL   H22336093   4.663   7.126   6.601  0.7539 -0.3421 -1.5181
   86MOL   H22436094   4.814   7.145   6.860  1.0547  1.1304 -1.5549
   86MOL   H22536095   4.683   7.042   6.818  0.3538 -0.0616 -1.0945
   86MOL   H22636096   4.635   7.334   6.836  0.5993 -0.8160 -1.1108
   86MOL   H22736097   4.508   7.225   6.804 -0.9387  1.0908  0.2361
   86MOL   H22836098   4.663   7.178   7.060 -1.6475 -1.1497  1.8631
   86MOL   H22936099   4.556   7.316   7.056 -3.5039 -1.0169  1.2705
   86MOL   H23036100   4.358   7.170   7.004 -1.8812 -0.4243  1.9097
   86MOL   H23136101   4.440   7.112   7.151  0.7549 -0.6868 -0.1668
   86MOL   H23236102   4.472   7.032   6.996  0.2582  1.2522 -1.1943
   86MOL   C23336103   4.884   7.045   6.466  0.4575 -0.4455 -0.2289
   86MOL   C23436104   4.800   6.926   6.423 -0.4612  0.3519  0.5795
   86MOL   C23536105   4.759   6.938   6.279  0.1633 -0.4875  0.0640
   86MOL   C23636106   4.646   7.025   6.241 -0.6023 -0.3253 -0.1674
   86MOL   C23736107   4.610   7.018   6.095  0.0098  0.5977  0.1519
   86MOL   C23836108   4.516   7.134   6.057  0.2001 -0.5060 -0.1805
   86MOL   C23936109   4.449   7.110   5.924 -0.3612 -0.3505  0.2481
   86MOL   H24036110   4.987   7.025   6.435  1.0068  1.5785  0.1800
   86MOL   H24136111   4.857   7.129   6.401  0.3553 -0.4931 -0.2466
   86MOL   H24236112   4.707   6.920   6.479 -1.5575 -1.8568 -1.3964
   86MOL   H24336113   4.731   6.842   6.237 -0.6113 -0.0376 -0.4634
   86MOL   H24436114   4.842   6.966   6.214 -1.1877 -0.3687 -1.6383
   86MOL   H24536115   4.671   7.129   6.264  1.3777 -0.5984 -0.9569
   86MOL   H24636116   4.555   7.006   6.297 -1.0270 -1.1774 -1.1530
   86MOL   H24736117   4.578   6.917   6.069 -1.2980  0.8796  0.6606
   86MOL   H24836118   4.701   7.028   6.036 -1.2442 -0.9996 -2.1055
   86MOL   H24936119   4.438   7.159   6.129 -1.6145  0.8957 -2.5628
   86MOL   H25036120   4.573   7.226   6.048 -0.8989  0.1041 -1.0299
   86MOL   H25136121   4.525   7.117   5.846 -1.2874 -0.0427 -0.6295
   86MOL   H25236122   4.411   7.008   5.935  0.0151 -0.6508 -1.0586
   86MOL   H25336123   4.376   7.188   5.903  1.4011  1.2098 -0.2682
   86MOL   C25436124   4.873   6.791   6.452 -0.5884 -0.2182  0.0162
   86MOL   C25536125   4.771   6.674   6.457 -0.0889  0.1843 -0.2430
   86MOL   C25636126   4.694   6.665   6.593  0.1571  0.5295 -0.0579
   86MOL   C25736127   4.770   6.641   6.719 -0.2691 -0.6034 -0.4901
   86MOL   C25836128   4.679   6.659   6.845  0.2927  0.2766  0.0017
   86MOL   C25936129   4.766   6.637   6.970 -0.0254 -0.2657 -0.3916
   86MOL   C26036130   4.815   6.498   6.989 -0.1212  0.4982  0.0925
   86MOL   H26136131   4.915   6.795   6.552  2.5150  1.8776 -1.2955
   86MOL   H26236132   4.952   6.780   6.378 -0.2879 -1.4378  0.5167
   86MOL   H26336133   4.688   6.678   6.385 -0.0591 -1.6317 -0.4078
   86MOL   H26436134   4.621   6.584   6.588  0.3547  0.2816  0.8943
   86MOL   H26536135   4.639   6.758   6.595  1.5462  1.3450  1.3791
   86MOL   H26636136   4.810   6.540   6.713 -1.2103 -0.9533 -0.9727
   86MOL   H26736137   4.857   6.706   6.716 -1.8079  1.7051  2.7191
   86MOL   H26836138   4.593   6.593   6.845  0.4495  0.0536  2.1188
   86MOL   H26936139   4.637   6.759   6.851 -0.6205 -0.1715  1.1347
   86MOL   H27036140   4.844   6.710   6.952 -1.3223  1.2738  0.0776
   86MOL   H27136141   4.709   6.668   7.058  1.1371  1.4970 -0.2368
   86MOL   H27236142   4.737   6.422   6.991  0.4790 -0.1498 -0.8407
   86MOL   H27336143   4.884   6.464   6.911 -0.8082 -0.2499 -0.1910
   86MOL   H27436144   4.864   6.478   7.084 -1.4302 -0.9767  0.4664
   86MOL   C27536145   4.833   6.543   6.417  0.1730 -0.4079 -0.2593
   86MOL   C27636146   4.865   6.533   6.265  0.0232 -0.1061 -0.5421
   86MOL   C27736147   4.736   6.519   6.181 -0.4029  0.7393  0.4892
   86MOL   C27836148   4.750   6.576   6.039  0.2741  0.2933  0.5070
   86MOL   C27936149   4.627   6.541   5.943  0.4939  0.2375  0.4919
   86MOL   C28036150   4.631   6.592   5.797  0.6641  0.3029  0.2079
   86MOL   C28136151   4.498   6.590   5.728 -0.3027 -0.4272 -0.3453
   86MOL   H28236152   4.769   6.458   6.445 -1.7979  0.8972 -0.7140
   86MOL   H28336153   4.920   6.528   6.481  0.0939  1.7193  0.3960
   86MOL   H28436154   4.901   6.633   6.244  0.7966 -0.4968 -1.0679
   86MOL   H28536155   4.714   6.413   6.169  0.6440  0.5102  0.5140
   86MOL   H28636156   4.650   6.571   6.222  0.2810  2.0210  0.3193
   86MOL   H28736157   4.846   6.554   5.992  1.1681 -0.0772  2.4344
   86MOL   H28836158   4.745   6.685   6.045 -4.0373  0.1267  0.9572
   86MOL   H28936159   4.531   6.562   5.989  0.6404  0.5865  0.6377
   86MOL   H29036160   4.625   6.432   5.940  0.5626  0.2490 -0.0246
   86MOL   H29136161   4.670   6.693   5.795  1.1441  0.1213  0.3016
   86MOL   H29236162   4.692   6.528   5.733  1.9841  2.1370 -0.3801
   86MOL   H29336163   4.508   6.609   5.621  0.3158  0.5519 -0.1120
   86MOL   H29436164   4.442   6.676   5.764  0.7556 -0.0383  0.3740
   86MOL   H29536165   4.439   6.499   5.740 -0.4880 -0.1316  1.1005
   86MOL   C29636166   4.983   6.436   6.221  0.4045  0.1595  0.2469
   86MOL   C29736167   5.124   6.448   6.289 -0.1628  0.0086 -0.5212
   86MOL   C29836168   5.174   6.592   6.282 -0.4408 -0.3260  0.3880
   86MOL   C29936169   5.313   6.614   6.357  0.1298  0.4075 -0.1689
   86MOL   C30036170   5.349   6.763   6.366 -0.0249 -0.6121 -0.5892
   86MOL   C30136171   5.467   6.809   6.450 -0.1358 -0.6339  0.5435
   86MOL   C30236172   5.610   6.783   6.405 -0.3472  0.7787  0.5629
   86MOL   H30336173   4.949   6.333   6.225  0.3402  0.0741 -1.8643
   86MOL   H30436174   5.012   6.448   6.116  0.0641 -1.5878 -0.0662
   86MOL   H30536175   5.112   6.421   6.393  1.7759 -0.5816 -0.4354
   86MOL   H30636176   5.186   6.617   6.177  0.4856  0.3217  0.6407
   86MOL   H30736177   5.105   6.656   6.338 -0.9732 -0.8921  0.3830
   86MOL   H30836178   5.388   6.550   6.311  1.0915  0.8654  0.7610
   86MOL   H30936179   5.303   6.572   6.457  3.3564 -1.2016 -0.4676
   86MOL   H31036180   5.259   6.810   6.404  0.5256  0.9508 -1.1667
   86MOL   H31136181   5.365   6.793   6.262 -0.1739 -1.9640 -1.0085
   86MOL   H31236182   5.446   6.913   6.474 -2.4209 -1.2243  1.2221
   86MOL   H31336183   5.448   6.766   6.549 -1.8700  2.1436  1.4767
   86MOL   H31436184   5.677   6.832   6.476 -0.0679  0.1390  0.7460
   86MOL   H31536185   5.644   6.680   6.396  1.0064  1.2541 -0.0330
   86MOL   H31636186   5.621   6.827   6.306 -1.4620 -0.7767 -0.2633
   86MOL   C31736187   5.220   6.347   6.212  0.2517 -0.1063 -0.3534
   86MOL   C31836188   5.325   6.287   6.310  0.0432 -0.0991  0.1612
   86MOL   C31936189   5.288   6.140   6.339 -0.6838  0.3367 -0.1113
   86MOL   C32036190   5.171   6.114   6.433  0.1408  0.1195  0.9181
   86MOL   C32136191   5.218   6.085   6.573  0.0880 -0.8451 -0.1501
   86MOL   C32236192   5.104   6.093   6.680  0.6326 -0.4874  0.6614
   86MOL   C32336193   5.019   5.963   6.685  0.7275  0.9022 -0.1547
   86MOL   H32436194   5.251   6.396   6.120 -0.9680 -0.0236 -0.7275
   86MOL   H32536195   5.156   6.265   6.181  0.5546  0.2004 -1.7935
   86MOL   H32636196   5.321   6.328   6.410  3.1666 -0.6383  0.5541
   86MOL   H32736197   5.381   6.094   6.372  0.4168  0.5250 -2.8131
   86MOL   H32836198   5.259   6.092   6.246 -1.8381 -0.4159  0.6169
   86MOL   H32936199   5.115   6.028   6.396 -0.0087  0.5739  0.0563
   86MOL   H33036200   5.117   6.208   6.417  1.5411  0.5095 -2.0629
   86MOL   H33136201   5.299   6.152   6.602  0.5607 -0.4762 -2.2587
   86MOL   H33236202   5.258   5.984   6.578 -0.2659 -0.9921 -0.2594
   86MOL   H33336203   5.046   6.182   6.653 -0.7354 -2.1191 -1.9611
   86MOL   H33436204   5.130   6.132   6.778  1.3585  1.7078 -0.3619
   86MOL   H33536205   5.079   5.875   6.707 -2.3743 -1.2576 -0.0133
   86MOL   H33636206   4.980   5.941   6.585 -1.1419 -0.1329  0.7650
   86MOL   H33736207   4.936   5.969   6.756  0.6773  1.8636 -0.2904
   86MOL   C33836208   5.467   6.300   6.252  0.1115  0.3653 -0.2577
   86MOL   C33936209   5.593   6.268   6.330 -0.4849  0.1507 -0.1756
   86MOL   C34036210   5.614   6.381   6.423 -0.0124  0.0863 -0.4959
   86MOL   C34136211   5.704   6.335   6.548  0.2552  0.0631  0.5350
   86MOL   C34236212   5.693   6.424   6.670 -0.2382  0.0452  0.3854
   86MOL   C34336213   5.556   6.416   6.726 -0.1336 -0.5775 -0.6203
   86MOL   C34436214   5.544   6.468   6.875  0.4236  0.3786  0.4116
   86MOL   H34536215   5.481   6.400   6.212  0.4826  0.8947  1.1738
   86MOL   H34636216   5.453   6.237   6.163  1.2985  0.1756 -0.3083
   86MOL   H34736217   5.579   6.177   6.388 -1.2051  2.1871  3.0145
   86MOL   H34836218   5.654   6.467   6.369 -1.8644 -1.0219 -3.7570
   86MOL   H34936219   5.521   6.420   6.464 -0.0423 -0.5097  0.0058
   86MOL   H35036220   5.806   6.323   6.511  0.8848 -1.5698  2.7366
   86MOL   H35136221   5.676   6.232   6.569 -0.1845 -0.0993 -0.8042
   86MOL   H35236222   5.765   6.375   6.736 -0.3930 -1.9347 -0.8381
   86MOL   H35336223   5.734   6.524   6.659  1.7778 -0.6180  1.5375
   86MOL   H35436224   5.491   6.478   6.664 -0.0767 -0.9798 -1.0875
   86MOL   H35536225   5.510   6.316   6.727 -2.6634  0.5369  0.2530
   86MOL   H35636226   5.441   6.468   6.911  0.0709 -1.7937 -0.4953
   86MOL   H35736227   5.572   6.573   6.881 -1.1934  0.9915 -2.0313
   86MOL   H35836228   5.605   6.414   6.947  3.2112  0.0150 -2.1118
   86MOL   C35936229   5.707   6.265   6.227 -0.8783  0.2985  0.2475
   86MOL   C36036230   5.727   6.144   6.138 -0.0040 -0.1297  0.7891
   86MOL   C36136231   5.804   6.156   6.001 -0.1031  0.2586 -0.2895
   86MOL   C36236232   5.726   6.237   5.894  0.2724  0.0734  0.0038
   86MOL   C36336233   5.608   6.164   5.827  0.8625  0.3568  0.3403
   86MOL   C36436234   5.543   6.248   5.721  0.5316 -0.3383  0.6507
   86MOL   C36536235   5.405   6.187   5.675  0.5711 -0.6299 -0.4188
   86MOL   H36636236   5.801   6.284   6.278  0.1059  1.5028 -1.9431
   86MOL   H36736237   5.702   6.358   6.170 -1.3357  0.0236 -0.1693
   86MOL   H36836238   5.628   6.105   6.113  0.4375 -0.4275 -0.5171
   86MOL   H36936239   5.902   6.202   6.008 -0.7072  1.4719  0.4404
   86MOL   H37036240   5.822   6.056   5.962  0.7444  1.1722 -2.3280
   86MOL   H37136241   5.686   6.326   5.941 -1.1616  0.0536 -1.1420
   86MOL   H37236242   5.790   6.278   5.816 -2.2227  0.8160 -1.7062
   86MOL   H37336243   5.645   6.079   5.770  1.7067  1.7011 -1.1370
   86MOL   H37436244   5.539   6.139   5.908 -1.2187  3.0737 -0.5233
   86MOL   H37536245   5.533   6.351   5.755 -0.2057  0.3048 -1.4379
   86MOL   H37636246   5.600   6.250   5.629 -1.6952  1.1778 -0.7471
   86MOL   H37736247   5.425   6.084   5.646 -0.6247 -0.6323 -1.2994
   86MOL   H37836248   5.322   6.206   5.743  0.4764  1.1040 -0.9990
   86MOL   H37936249   5.386   6.250   5.587 -1.6707 -1.0024 -0.2357
   86MOL   C38036250   5.795   6.028   6.218  0.4090 -0.3401 -0.0000
   86MOL   C38136251   5.771   5.879   6.177 -0.1392 -0.4230  0.2413
   86MOL   C38236252   5.904   5.810   6.171  0.3817 -0.2250  0.2756
   86MOL   C38336253   5.995   5.839   6.048  0.2722 -0.0111  0.1877
   86MOL   C38436254   6.108   5.734   6.039  1.0647 -0.6344  0.1955
   86MOL   C38536255   6.224   5.783   5.950 -0.2493 -0.7349 -0.0796
   86MOL   C38636256   6.321   5.884   6.018  0.2052 -0.7693 -0.1026
   86MOL   H38736257   5.902   6.046   6.219  0.6459 -1.7685  0.2225
   86MOL   H38836258   5.773   6.049   6.323  0.7781  1.4044 -0.2576
   86MOL   H38936259   5.728   5.881   6.077  0.3364 -0.0587  0.0468
   86MOL   H39036260   5.884   5.703   6.169  1.0381 -0.3671  1.0722
   86MOL   H39136261   5.957   5.828   6.265  1.0757  1.9207 -0.4857
   86MOL   H39236262   5.938   5.831   5.955  0.8781 -0.3638 -0.1632
   86MOL   H39336263   6.036   5.940   6.051  0.9535 -0.3043  0.9492
   86MOL   H39436264   6.129   5.696   6.139  2.2917 -1.1344 -0.2451
   86MOL   H39536265   6.072   5.642   5.993 -0.8077  0.1286  0.1019
   86MOL   H39636266   6.188   5.827   5.857 -1.3781 -1.0387  0.1985
   86MOL   H39736267   6.294   5.707   5.917  2.2919  1.2595  0.5545
   86MOL   H39836268   6.264   5.959   6.072 -0.7662 -1.0370 -0.7464
   86MOL   H39936269   6.374   5.944   5.943 -0.5210 -1.7162 -1.3855
   86MOL   H40036270   6.394   5.837   6.084 -1.3565 -0.6193  1.7671
   86MOL   C40136271   5.654   5.811   6.248  0.4045 -0.6329 -0.2169
   86MOL   C40236272   5.673   5.779   6.397 -0.0413  0.1480 -0.3065
   86MOL   C40336273   5.553   5.717   6.457  0.0707  0.2111  0.2033
   86MOL   C40436274   5.556   5.703   6.609 -0.5751  0.3912  0.4876
   86MOL   C40536275   5.437   5.621   6.660  0.3256  0.5577 -0.3087
   86MOL   C40636276   5.429   5.590   6.805  0.0051 -0.5608 -0.0423
   86MOL   C40736277   5.437   5.711   6.902  0.3279  0.5232  0.7357
   86MOL   H40836278   5.644   5.714   6.200  0.1871  0.2425 -1.9640
   86MOL   H40936279   5.560   5.865   6.230  0.5800 -0.7516 -1.5373
   86MOL   H41036280   5.706   5.867   6.451  0.5223  0.2062 -0.7426
   86MOL   H41136281   5.543   5.616   6.419  0.4735 -0.2757  1.3699
   86MOL   H41236282   5.464   5.770   6.423 -1.2206 -1.9555  0.1261
   86MOL   H41336283   5.555   5.798   6.663 -0.5371  1.0580 -0.6880
   86MOL   H41436284   5.650   5.650   6.629 -0.7212  0.2613  0.8341
   86MOL   H41536285   5.340   5.667   6.638 -0.0814  0.4932  1.2495
   86MOL   H41636286   5.431   5.522   6.615 -0.2549  0.8139 -0.7987
   86MOL   H41736287   5.331   5.547   6.821 -1.9031  3.7812  0.7316
   86MOL   H41836288   5.500   5.512   6.831  0.6437 -0.1434 -0.4898
   86MOL   H41936289   5.458   5.677   7.004  2.1151  2.6915  1.1192
   86MOL   H42036290   5.341   5.763   6.895  0.0712 -0.2266 -1.5694
   86MOL   H42136291   5.516   5.779   6.871  2.6138 -2.6950 -0.7691
   86MOL   H42236292   5.758   5.711   6.405  0.9633  1.4407  0.0414
   87MOL     C136293   3.830   0.386   3.469 -1.0079  0.2604 -0.1115
   87MOL     C236294   3.851   0.506   3.376 -0.1598 -0.5219  0.2508
   87MOL     C336295   3.915   0.468   3.241  0.3171 -0.1638  0.3726
   87MOL     C436296   3.813   0.373   3.159 -0.2570 -0.9015  0.7330
   87MOL     C536297   3.876   0.307   3.034 -0.5628 -0.9202  0.1552
   87MOL     C636298   3.789   0.212   2.950  0.2140  0.2170  0.2445
   87MOL     C736299   3.860   0.161   2.823 -0.3815 -0.4775  0.1046
   87MOL     H836300   3.769   0.415   3.555 -0.2868  0.6867  0.2553
   87MOL     H936301   3.917   0.345   3.520 -0.3112  1.1982 -0.5461
   87MOL    H1036302   3.744   0.522   3.357 -0.3722 -0.3480  1.5454
   87MOL    H1136303   3.951   0.554   3.184  0.0140 -0.5147 -0.3421
   87MOL    H1236304   4.003   0.406   3.256  1.9651  1.5266 -1.9153
   87MOL    H1336305   3.757   0.301   3.218  1.0243 -1.3180  1.4559
   87MOL    H1436306   3.746   0.451   3.124 -0.7243 -0.6495  2.1530
   87MOL    H1536307   3.963   0.247   3.063 -0.7898 -0.7961  1.1072
   87MOL    H1636308   3.896   0.395   2.973  0.7199  0.2871  2.2497
   87MOL    H1736309   3.703   0.261   2.904  1.6542  2.7210  0.1435
   87MOL    H1836310   3.752   0.127   3.008 -0.1239 -0.2055 -0.5824
   87MOL    H1936311   3.883   0.250   2.764 -3.1639  0.0997 -0.1925
   87MOL    H2036312   3.786   0.104   2.766 -0.9687  1.4803 -1.1550
   87MOL    H2136313   3.948   0.104   2.852  1.4263  1.4368 -1.4486
   87MOL    H2236314   3.776   0.301   3.428  0.6868 -1.3144  0.8662
   87MOL    C2336315   3.917   0.636   3.439 -0.3180  0.6668  0.0089
   87MOL    C2436316   3.881   0.766   3.358 -0.7231 -0.2343 -0.1283
   87MOL    C2536317   3.992   0.867   3.368 -0.5680 -0.0675 -0.3703
   87MOL    C2636318   4.124   0.824   3.302 -0.0070  1.1963  1.1503
   87MOL    C2736319   4.236   0.930   3.310  0.5183 -0.2485 -0.4503
   87MOL    C2836320   4.375   0.882   3.297 -0.4334 -0.3528  0.9975
   87MOL    C2936321   4.487   0.990   3.286 -0.4635 -0.0188 -0.6379
   87MOL    H3036322   3.887   0.652   3.543  1.2166 -1.5321  0.8439
   87MOL    H3136323   4.025   0.618   3.444 -0.1097  1.9458  0.2324
   87MOL    H3236324   3.884   0.749   3.250 -0.8063  0.2422 -0.2084
   87MOL    H3336325   4.013   0.874   3.475  0.4734 -2.2888 -0.4069
   87MOL    H3436326   3.950   0.961   3.332 -0.9537 -1.0700 -2.6464
   87MOL    H3536327   4.103   0.783   3.204 -0.3815  3.3920  0.2773
   87MOL    H3636328   4.148   0.738   3.365 -3.1711 -0.1224  0.6551
   87MOL    H3736329   4.220   0.980   3.406 -4.2500 -1.3077 -0.5784
   87MOL    H3836330   4.222   1.009   3.236 -1.7675  0.0355  0.2408
   87MOL    H3936331   4.386   0.813   3.213 -2.2457  0.5297 -0.0092
   87MOL    H4036332   4.400   0.819   3.382 -0.1050 -0.4573  0.8265
   87MOL    H4136333   4.567   0.922   3.256  1.2086  0.8621  1.7065
   87MOL    H4236334   4.469   1.065   3.209  0.5678  0.1824 -0.6886
   87MOL    H4336335   4.499   1.041   3.381 -2.2855 -3.1976  1.4017
   87MOL    C4436336   3.743   0.807   3.385 -0.4257  0.0794  0.1258
   87MOL    C4536337   3.679   0.869   3.267  0.2378 -0.3430  0.5468
   87MOL    C4636338   3.637   0.758   3.165  0.1152 -0.0290 -0.9613
   87MOL    C4736339   3.566   0.802   3.033  0.1303  1.1389 -0.7080
   87MOL    C4836340   3.540   0.679   2.951 -0.1704 -0.1940  0.2151
   87MOL    C4936341   3.467   0.715   2.822  0.4868  0.4423  0.7446
   87MOL    C5036342   3.433   0.596   2.722  0.7862  0.1762  0.1071
   87MOL    H5136343   3.741   0.877   3.469 -1.8633  0.2625 -0.0421
   87MOL    H5236344   3.678   0.726   3.417  0.1825 -0.3353  0.2963
   87MOL    H5336345   3.746   0.939   3.218 -1.0006 -0.4981 -1.4217
   87MOL    H5436346   3.563   0.695   3.216 -1.1588  1.9493 -0.2770
   87MOL    H5536347   3.719   0.695   3.132  0.5431  0.7426 -1.3873
   87MOL    H5636348   3.467   0.836   3.064 -1.4219 -1.4094 -2.7087
   87MOL    H5736349   3.616   0.883   2.980 -2.7035  3.0259 -0.5666
   87MOL    H5836350   3.484   0.604   3.008 -2.2849  0.5264 -0.8515
   87MOL    H5936351   3.635   0.637   2.920  0.6561  2.4267 -0.9794
   87MOL    H6036352   3.534   0.784   2.772  1.0707  0.1489  1.1164
   87MOL    H6136353   3.372   0.764   2.845 -0.4529 -0.8583 -0.2518
   87MOL    H6236354   3.435   0.616   2.615  1.0242  0.5119  0.1750
   87MOL    H6336355   3.338   0.547   2.742 -0.6132  2.9078  0.4081
   87MOL    H6436356   3.514   0.525   2.739  0.9310  0.1990 -0.4591
   87MOL    C6536357   3.547   0.946   3.308  0.0139  0.0012  0.7159
   87MOL    C6636358   3.556   1.068   3.399 -0.0625  0.2662  0.0511
   87MOL    C6736359   3.425   1.141   3.396 -0.7922 -0.3725 -0.0812
   87MOL    C6836360   3.313   1.067   3.477  0.3767  0.6344 -0.0973
   87MOL    C6936361   3.214   1.159   3.552  0.1992  0.3973  0.6764
   87MOL    C7036362   3.106   1.084   3.628  0.5371 -0.0191  0.0360
   87MOL    C7136363   3.019   0.982   3.559 -0.2848  0.2180 -0.2998
   87MOL    H7236364   3.506   0.989   3.217  1.8387  0.5098  0.1109
   87MOL    H7336365   3.465   0.886   3.346  0.0136 -0.6297 -0.2716
   87MOL    H7436366   3.579   1.025   3.496  1.3572 -0.2682 -0.4985
   87MOL    H7536367   3.438   1.239   3.442 -0.7920 -0.4735  0.1350
   87MOL    H7636368   3.391   1.171   3.297  1.2855  1.1661 -0.3583
   87MOL    H7736369   3.263   0.998   3.408  0.8239  1.0070 -0.7958
   87MOL    H7836370   3.362   1.004   3.552 -1.2702  1.3156  1.6054
   87MOL    H7936371   3.270   1.217   3.626  1.1783  0.3639 -0.0313
   87MOL    H8036372   3.167   1.221   3.476 -2.8046 -1.7981  0.6770
   87MOL    H8136373   3.043   1.161   3.672  0.6033  0.0694 -0.0222
   87MOL    H8236374   3.158   1.039   3.713  2.5367  0.3726 -0.9363
   87MOL    H8336375   2.980   1.013   3.462  1.6901 -0.7319 -1.4357
   87MOL    H8436376   3.079   0.891   3.551 -1.7656 -0.7075 -1.0515
   87MOL    H8536377   2.938   0.949   3.624  0.9040 -0.7541  0.7179
   87MOL    C8636378   3.688   1.149   3.356  0.8734  0.6563  0.0456
   87MOL    C8736379   3.704   1.270   3.445 -0.6902 -0.0359 -0.4419
   87MOL    C8836380   3.845   1.288   3.513 -0.8839  0.2548  0.3225
   87MOL    C8936381   3.969   1.326   3.428 -0.5134 -0.0068 -0.0066
   87MOL    C9036382   4.099   1.279   3.495 -0.4784  0.3386 -0.3808
   87MOL    C9136383   4.217   1.325   3.404 -0.0886  0.1714 -0.3855
   87MOL    C9236384   4.358   1.351   3.468 -0.0964  1.3764 -0.0977
   87MOL    H9336385   3.773   1.082   3.360 -1.6367 -2.7093 -0.2559
   87MOL    H9436386   3.678   1.187   3.255  0.6493 -0.8606 -0.5123
   87MOL    H9536387   3.648   1.247   3.536  0.6791 -0.4323  0.3132
   87MOL    H9636388   3.847   1.363   3.591 -2.0535 -2.0428  2.6421
   87MOL    H9736389   3.866   1.193   3.563  1.8461  0.7938  0.3027
   87MOL    H9836390   3.974   1.268   3.336  1.5301 -0.3816  0.3070
   87MOL    H9936391   3.975   1.429   3.395 -1.6890  0.0914  0.0642
   87MOL   H10036392   4.104   1.170   3.495  1.9815  0.3987  2.1651
   87MOL   H10136393   4.109   1.324   3.594 -0.9686  0.7972 -0.5375
   87MOL   H10236394   4.224   1.246   3.329  0.6907  0.1115 -0.2569
   87MOL   H10336395   4.197   1.410   3.339  0.9897 -0.6626 -1.8607
   87MOL   H10436396   4.355   1.452   3.510  0.0366  0.8652  1.1598
   87MOL   H10536397   4.441   1.352   3.397 -1.9685 -0.9961 -2.3941
   87MOL   H10636398   4.377   1.275   3.543 -1.8631 -0.7731 -1.7660
   87MOL   C10736399   3.641   1.401   3.378 -0.1338  0.4014 -0.2112
   87MOL   C10836400   3.595   1.519   3.470  0.5889 -0.0223 -0.4439
   87MOL   C10936401   3.584   1.653   3.397 -0.6188  0.0473  0.1656
   87MOL   C11036402   3.484   1.665   3.286 -0.1121 -0.3023 -0.6214
   87MOL   C11136403   3.495   1.805   3.219  0.3718 -0.4514  0.8877
   87MOL   C11236404   3.415   1.826   3.092  1.0476  0.8705  0.3626
   87MOL   C11336405   3.405   1.976   3.041 -0.6152  0.4529 -0.0175
   87MOL   H11436406   3.552   1.365   3.327 -0.0426 -0.6552  0.3588
   87MOL   H11536407   3.717   1.426   3.304  1.5483 -1.2023  0.9441
   87MOL   H11636408   3.682   1.525   3.537  2.0293  0.3728 -2.3087
   87MOL   H11736409   3.682   1.690   3.366 -1.2819  1.9545  0.2753
   87MOL   H11836410   3.561   1.731   3.470  2.2599  1.2292 -0.1167
   87MOL   H11936411   3.496   1.585   3.213 -2.1865 -0.8767 -0.3797
   87MOL   H12036412   3.378   1.653   3.310 -0.6012  0.9230 -2.1283
   87MOL   H12136413   3.600   1.814   3.190  0.8657 -2.7104  1.9043
   87MOL   H12236414   3.461   1.882   3.287 -0.4070 -0.0302  0.0309
   87MOL   H12336415   3.447   1.761   3.011 -0.5688 -2.5203  2.3471
   87MOL   H12436416   3.311   1.799   3.113  1.4108 -1.2964 -0.6184
   87MOL   H12536417   3.320   2.028   3.085 -1.4634 -0.9732  0.0787
   87MOL   H12636418   3.494   2.036   3.060  1.5469 -2.3091 -0.9149
   87MOL   H12736419   3.392   1.963   2.934 -0.4853  0.8608 -0.0830
   87MOL   C12836420   3.469   1.492   3.543  0.1805 -0.2311 -0.1318
   87MOL   C12936421   3.413   1.592   3.647  0.1278  0.3628  0.1883
   87MOL   C13036422   3.508   1.601   3.771 -0.0021 -0.5287 -0.5871
   87MOL   C13136423   3.462   1.702   3.873 -0.3769 -0.2216 -0.3817
   87MOL   C13236424   3.579   1.745   3.963  0.4250  0.6669 -0.1871
   87MOL   C13336425   3.635   1.621   4.047  0.1983 -0.4995  0.1219
   87MOL   C13436426   3.720   1.673   4.164 -0.1324 -0.7406  0.5915
   87MOL   H13536427   3.393   1.478   3.465 -1.5980  1.6496  1.1928
   87MOL   H13636428   3.489   1.399   3.594 -0.4121 -1.0322 -1.3290
   87MOL   H13736429   3.402   1.690   3.602 -2.8085 -0.9656 -2.1708
   87MOL   H13836430   3.609   1.623   3.738  0.1723  0.5472  0.6304
   87MOL   H13936431   3.506   1.501   3.815 -1.0983  0.1974  1.0861
   87MOL   H14036432   3.384   1.656   3.934 -0.2422 -0.9081 -0.7122
   87MOL   H14136433   3.418   1.790   3.827  2.6165 -0.0025 -3.0182
   87MOL   H14236434   3.548   1.831   4.023 -0.6134  0.9047 -1.0573
   87MOL   H14336435   3.660   1.794   3.910  0.2249  1.9641  0.6921
   87MOL   H14436436   3.694   1.560   3.978  2.9429  1.3245  0.7421
   87MOL   H14536437   3.554   1.559   4.083 -0.5951 -0.2975 -1.2594
   87MOL   H14636438   3.660   1.724   4.239 -0.9741 -1.5612  0.4944
   87MOL   H14736439   3.794   1.746   4.134  0.1038 -0.9194  0.7372
   87MOL   H14836440   3.765   1.583   4.206 -0.6209 -1.6598 -0.8205
   87MOL   C14936441   3.270   1.554   3.676 -0.2531  0.6367 -0.1017
   87MOL   C15036442   3.160   1.632   3.597 -0.2560 -0.4458 -0.2225
   87MOL   C15136443   3.150   1.774   3.654 -0.0892  0.0433 -0.1968
   87MOL   C15236444   3.048   1.859   3.587  0.2006 -0.7544  0.5835
   87MOL   C15336445   3.065   2.007   3.606 -0.1074  0.0985  0.5007
   87MOL   C15436446   2.942   2.085   3.544 -0.0565 -0.3680 -0.1315
   87MOL   C15536447   2.956   2.238   3.560 -0.3127 -0.2461  0.1322
   87MOL   H15636448   3.256   1.446   3.667  2.0479  0.2911  0.2602
   87MOL   H15736449   3.248   1.555   3.783 -3.3626 -3.9660 -0.5522
   87MOL   H15836450   3.193   1.637   3.494  1.6777  3.0653  0.4866
   87MOL   H15936451   3.108   1.762   3.754  1.5696  0.0665  0.5261
   87MOL   H16036452   3.245   1.824   3.673  0.6319 -2.3084  2.7481
   87MOL   H16136453   2.950   1.825   3.618 -0.9163  0.6105 -1.3504
   87MOL   H16236454   3.049   1.841   3.480 -0.9515 -2.4498  0.8420
   87MOL   H16336455   3.152   2.033   3.546  0.4606 -0.0689  1.2429
   87MOL   H16436456   3.080   2.038   3.709 -0.7567  2.0940  0.0059
   87MOL   H16536457   2.846   2.052   3.585 -0.3388 -1.3256 -1.4986
   87MOL   H16636458   2.946   2.069   3.436  2.3901  1.3305 -0.3377
   87MOL   H16736459   2.857   2.279   3.538 -0.5820 -0.8220  0.2773
   87MOL   H16836460   3.036   2.282   3.500  1.0398 -2.6188  0.1397
   87MOL   H16936461   2.977   2.269   3.663 -0.5225  1.5359 -0.3330
   87MOL   C17036462   3.023   1.560   3.596 -0.7778  0.1807 -0.3766
   87MOL   C17136463   2.948   1.572   3.461 -0.5046  0.1711 -0.5013
   87MOL   C17236464   3.030   1.498   3.343  0.6508  0.2036 -0.6321
   87MOL   C17336465   3.034   1.593   3.225 -0.2218  0.5053 -0.0715
   87MOL   C17436466   3.109   1.549   3.096 -0.2287 -0.9827 -0.2035
   87MOL   C17536467   3.082   1.631   2.968  0.8235 -0.0655  0.5954
   87MOL   C17636468   3.143   1.585   2.836  0.1443  0.0600  0.0843
   87MOL   H17736469   2.970   1.592   3.686 -0.5574  0.4924 -0.3547
   87MOL   H17836470   3.048   1.455   3.608  1.9393  0.8931  0.5223
   87MOL   H17936471   2.943   1.678   3.439  1.6095  0.6761  1.2315
   87MOL   H18036472   2.979   1.409   3.307  1.6340 -0.6676  0.1165
   87MOL   H18136473   3.124   1.458   3.380  1.1167  2.1451  0.3490
   87MOL   H18236474   3.059   1.689   3.270 -1.9112 -0.0571  2.1564
   87MOL   H18336475   2.928   1.593   3.197 -0.4467  0.6726  0.7552
   87MOL   H18436476   3.095   1.444   3.069 -1.9138 -0.4883 -1.3499
   87MOL   H18536477   3.214   1.563   3.123 -0.1224  0.3405 -1.2560
   87MOL   H18636478   3.122   1.731   2.984 -0.2473  0.3930  0.4458
   87MOL   H18736479   2.975   1.646   2.960  0.7746  0.3555  1.9593
   87MOL   H18836480   3.071   1.563   2.758 -0.3888  0.0188  0.5862
   87MOL   H18936481   3.196   1.492   2.859 -1.1857 -0.4175  1.2945
   87MOL   H19036482   3.216   1.658   2.801 -1.3232  1.1538 -0.7205
   87MOL   C19136483   2.801   1.521   3.478  0.5252 -0.0411  0.0198
   87MOL   C19236484   2.705   1.591   3.569  0.0615  0.5140 -0.2005
   87MOL   C19336485   2.669   1.730   3.518 -0.4166  0.3512  0.3090
   87MOL   C19436486   2.614   1.831   3.617 -1.0743  0.1981  0.2880
   87MOL   C19536487   2.573   1.966   3.570 -0.2234 -0.4345  0.2563
   87MOL   C19636488   2.528   2.063   3.672 -0.4824  0.2135 -0.7742
   87MOL   C19736489   2.487   2.200   3.615  0.2454  0.1828 -0.1682
   87MOL   H19836490   2.827   1.418   3.502  1.6438 -0.0605 -1.2125
   87MOL   H19936491   2.754   1.504   3.381 -0.3190 -0.2485  0.4612
   87MOL   H20036492   2.754   1.601   3.666 -0.4501 -0.5223  0.1720
   87MOL   H20136493   2.599   1.720   3.436 -0.4478  2.3112  0.0890
   87MOL   H20236494   2.760   1.777   3.479 -1.6458  1.1717 -1.6208
   87MOL   H20336495   2.685   1.852   3.697  0.7736  2.5034 -1.8992
   87MOL   H20436496   2.526   1.787   3.665 -0.2487 -3.2704 -1.2321
   87MOL   H20536497   2.649   2.016   3.510  0.4874 -1.2373  0.4612
   87MOL   H20636498   2.495   1.955   3.495  0.8915 -1.3122 -0.8050
   87MOL   H20736499   2.602   2.085   3.748 -1.2355  1.7303 -0.4625
   87MOL   H20836500   2.450   2.019   3.733  0.1514  1.9105  1.3301
   87MOL   H20936501   2.412   2.178   3.539 -0.0564  0.0155  0.1786
   87MOL   H21036502   2.570   2.247   3.562 -0.1244  2.4175  1.1684
   87MOL   H21136503   2.443   2.267   3.688  1.2186 -1.1355  1.6931
   87MOL   C21236504   2.571   1.506   3.587  0.8074 -0.2547 -0.1567
   87MOL   C21336505   2.578   1.359   3.632  0.0411  0.1753  0.1613
   87MOL   C21436506   2.655   1.333   3.760  0.5020  0.5640 -0.0193
   87MOL   C21536507   2.574   1.388   3.888  0.4128  0.6962  0.1016
   87MOL   C21636508   2.660   1.402   4.008 -0.5258  0.5990 -0.5127
   87MOL   C21736509   2.590   1.379   4.139  0.1950 -0.4907  0.0520
   87MOL   C21836510   2.696   1.367   4.252 -0.4995 -0.8124  0.3176
   87MOL   H21936511   2.512   1.511   3.495 -1.1915 -1.9210  0.9798
   87MOL   H22036512   2.505   1.555   3.659 -1.8238  0.2086 -2.7826
   87MOL   H22136513   2.624   1.299   3.554 -0.0393 -1.0656  1.0553
   87MOL   H22236514   2.669   1.227   3.782  1.7524  0.7915  0.3473
   87MOL   H22336515   2.754   1.380   3.763  0.6969  0.1468  0.0496
   87MOL   H22436516   2.504   1.305   3.902  0.1423  1.0127  0.6543
   87MOL   H22536517   2.520   1.480   3.864  2.2831  1.6246 -0.6101
   87MOL   H22636518   2.750   1.340   4.007  0.2880  1.7641 -1.1046
   87MOL   H22736519   2.704   1.502   4.018  2.6346 -0.8326  0.4713
   87MOL   H22836520   2.522   1.458   4.170  2.0641  1.0632  0.2843
   87MOL   H22936521   2.525   1.291   4.146 -0.4892  0.1925  2.7007
   87MOL   H23036522   2.771   1.446   4.243 -0.6206 -0.7698 -0.4132
   87MOL   H23136523   2.759   1.277   4.244  2.0770  0.9778 -0.3018
   87MOL   H23236524   2.643   1.361   4.346 -1.2330  1.4830  0.0670
   87MOL   C23336525   2.428   1.311   3.624  0.4895 -0.1482  0.3627
   87MOL   C23436526   2.396   1.167   3.654 -0.4032  0.4905  0.6985
   87MOL   C23536527   2.248   1.157   3.704  0.1597  0.2154  0.7405
   87MOL   C23636528   2.230   1.171   3.856  0.1210  0.0191 -0.5490
   87MOL   C23736529   2.083   1.164   3.901 -0.1500  0.5508 -0.1003
   87MOL   C23836530   2.043   1.017   3.937 -0.1189 -0.2316  0.2580
   87MOL   C23936531   1.902   1.001   3.997  0.3602 -0.3593 -0.2073
   87MOL   H24036532   2.384   1.332   3.527  0.9950  1.0593  0.3901
   87MOL   H24136533   2.371   1.379   3.688  0.2942  2.1063 -2.1605
   87MOL   H24236534   2.452   1.124   3.737  0.3732  0.0188 -0.0679
   87MOL   H24336535   2.210   1.057   3.685  2.9521 -0.9172  0.9077
   87MOL   H24436536   2.187   1.215   3.634  0.0614 -2.4586 -1.4884
   87MOL   H24536537   2.257   1.272   3.890  3.7221 -1.2347  0.5492
   87MOL   H24636538   2.297   1.108   3.915  2.4995  0.2036 -2.9595
   87MOL   H24736539   2.027   1.206   3.818  1.2876  2.1358 -0.3144
   87MOL   H24836540   2.088   1.230   3.988 -0.0615 -0.6722  0.8388
   87MOL   H24936541   2.056   0.955   3.849 -0.3810  2.3158 -1.6170
   87MOL   H25036542   2.124   0.978   3.999 -0.0111  0.8581  0.8167
   87MOL   H25136543   1.823   1.050   3.941  0.4329 -0.5078 -0.4380
   87MOL   H25236544   1.878   0.901   4.033 -1.0483  0.3036  0.7881
   87MOL   H25336545   1.911   1.047   4.096  2.6444 -1.1639 -0.0133
   87MOL   C25436546   2.424   1.077   3.530  0.6281 -0.4024 -0.4916
   87MOL   C25536547   2.430   0.923   3.562  0.0554  0.1518  0.6236
   87MOL   C25636548   2.573   0.892   3.613  0.0078  0.3907 -0.6345
   87MOL   C25736549   2.589   0.772   3.706  0.5007 -0.2905  0.3078
   87MOL   C25836550   2.739   0.740   3.745 -0.8252 -0.1375 -0.0742
   87MOL   C25936551   2.828   0.678   3.638  0.7345 -0.2856  0.1270
   87MOL   C26036552   2.783   0.534   3.602 -0.7375 -0.2185 -0.1630
   87MOL   H26136553   2.518   1.109   3.485  0.9545  0.3005  0.6632
   87MOL   H26236554   2.357   1.093   3.446 -0.4468 -2.3604 -0.0479
   87MOL   H26336555   2.368   0.904   3.650  1.4183 -1.2924  1.2834
   87MOL   H26436556   2.613   0.979   3.665 -2.5356  1.2864 -0.1404
   87MOL   H26536557   2.642   0.880   3.529 -0.8724 -1.9108 -1.0819
   87MOL   H26636558   2.526   0.788   3.794  0.8350 -2.2735  0.9374
   87MOL   H26736559   2.542   0.694   3.648  0.0530 -0.1087  0.4248
   87MOL   H26836560   2.732   0.669   3.828 -0.2518  0.2175  0.2817
   87MOL   H26936561   2.788   0.826   3.791 -0.6559  0.9107 -2.1678
   87MOL   H27036562   2.834   0.726   3.540 -1.4246 -0.7224 -0.2446
   87MOL   H27136563   2.929   0.678   3.679  0.2372 -1.7731  1.4043
   87MOL   H27236564   2.781   0.468   3.689 -2.7866 -0.6841 -0.5384
   87MOL   H27336565   2.690   0.533   3.545  1.4411 -2.0570 -3.8634
   87MOL   H27436566   2.853   0.479   3.539 -1.5711 -2.0222  0.4458
   87MOL   C27536567   2.387   0.832   3.447  0.6794 -0.2040 -0.6694
   87MOL   C27636568   2.231   0.821   3.422  0.2132 -0.9216  0.0520
   87MOL   C27736569   2.157   0.750   3.534 -0.2210 -0.7834 -0.0505
   87MOL   C27836570   2.224   0.621   3.581 -0.3210  0.1987  0.6533
   87MOL   C27936571   2.118   0.531   3.640  0.2101  0.2821  0.0538
   87MOL   C28036572   2.183   0.384   3.657 -0.4649  0.5599  0.6286
   87MOL   C28136573   2.318   0.380   3.742 -0.2448 -0.1000 -0.0538
   87MOL   H28236574   2.439   0.739   3.467 -0.1308 -0.3246  0.9379
   87MOL   H28336575   2.426   0.874   3.354  1.0874 -0.2475 -0.5183
   87MOL   H28436576   2.178   0.916   3.422  1.6339 -0.1206  0.2319
   87MOL   H28536577   2.132   0.808   3.622  1.0609  0.8318 -0.7250
   87MOL   H28636578   2.055   0.725   3.504 -0.8963  0.8761  0.8129
   87MOL   H28736579   2.301   0.644   3.655 -0.5391  3.3790 -0.0212
   87MOL   H28836580   2.272   0.579   3.493 -1.6254  1.0488 -0.4932
   87MOL   H28936581   2.024   0.511   3.589  0.0526  0.8591  0.1195
   87MOL   H29036582   2.104   0.563   3.743  0.6329  0.3853  0.0823
   87MOL   H29136583   2.115   0.312   3.705 -0.3364 -0.1601 -0.2673
   87MOL   H29236584   2.210   0.344   3.559  0.7130 -0.3004  1.2825
   87MOL   H29336585   2.289   0.436   3.831 -0.5613  1.2279 -0.9713
   87MOL   H29436586   2.395   0.444   3.700 -1.8340  1.1031 -1.1978
   87MOL   H29536587   2.359   0.280   3.755  0.9828  0.4243  0.1141
   87MOL   C29636588   2.193   0.760   3.282 -0.0783 -0.3722 -0.3222
   87MOL   C29736589   2.224   0.838   3.154  0.1649  0.6730 -1.0798
   87MOL   C29836590   2.164   0.979   3.133  0.7885 -0.4113  0.1781
   87MOL   C29936591   2.007   0.979   3.140  0.5743 -0.3562 -0.3334
   87MOL   C30036592   1.948   1.125   3.144 -0.3914 -0.4122 -0.0296
   87MOL   C30136593   1.803   1.144   3.140  0.4529  0.2936 -0.3282
   87MOL   C30236594   1.731   1.093   3.270  0.0086 -0.0033 -0.0222
   87MOL   H30336595   2.241   0.662   3.283  1.2800  0.2768 -1.1098
   87MOL   H30436596   2.088   0.730   3.272  0.2885 -2.0576  0.5922
   87MOL   H30536597   2.331   0.858   3.154  0.4171 -0.6627 -1.4925
   87MOL   H30636598   2.197   1.044   3.214 -0.0413  0.2288  0.0120
   87MOL   H30736599   2.202   1.035   3.048 -0.6485  1.0464  0.4587
   87MOL   H30836600   1.997   0.926   3.235  1.3630 -0.8519 -0.5196
   87MOL   H30936601   1.954   0.917   3.068  0.4666  0.5756 -1.0655
   87MOL   H31036602   1.984   1.188   3.063 -0.6560  0.2910  0.3965
   87MOL   H31136603   1.987   1.180   3.229 -0.5275  1.6457 -1.2617
   87MOL   H31236604   1.775   1.247   3.122 -0.8464 -0.0593 -0.3503
   87MOL   H31336605   1.766   1.090   3.053 -2.8824 -1.6928  2.1974
   87MOL   H31436606   1.751   1.159   3.354  1.3977  0.7236 -0.9040
   87MOL   H31536607   1.626   1.072   3.251 -0.1691  1.6345 -0.9180
   87MOL   H31636608   1.766   0.994   3.299  0.0709 -0.9450 -3.1054
   87MOL   C31736609   2.193   0.757   3.029 -0.2412 -0.1252  0.0442
   87MOL   C31836610   2.252   0.612   3.027  0.4111 -0.7271  0.5940
   87MOL   C31936611   2.195   0.532   2.912  0.0566 -0.2307 -0.1944
   87MOL   C32036612   2.053   0.482   2.955  0.1924  0.6230  0.3690
   87MOL   C32136613   1.989   0.370   2.867  0.0735 -0.5654  0.1378
   87MOL   C32236614   2.052   0.228   2.885  0.6936  0.6500  0.3223
   87MOL   C32336615   1.991   0.125   2.793 -0.0787  0.0125  0.4549
   87MOL   H32436616   2.236   0.814   2.946 -1.3282 -0.4814 -0.7651
   87MOL   H32536617   2.087   0.763   3.005 -0.1415 -0.2289 -0.4296
   87MOL   H32636618   2.241   0.555   3.119 -1.6229  1.4720  1.7519
   87MOL   H32736619   2.259   0.445   2.904  1.3694  0.5939  1.0932
   87MOL   H32836620   2.195   0.583   2.816 -1.4920  0.2270  0.0310
   87MOL   H32936621   1.973   0.556   2.956  1.4437  2.0133 -0.0481
   87MOL   H33036622   2.069   0.428   3.049  4.3639 -0.5285 -0.9078
   87MOL   H33136623   1.989   0.393   2.761  0.3460  0.7482  0.4105
   87MOL   H33236624   1.883   0.355   2.888 -0.2170  0.5250 -0.5176
   87MOL   H33336625   2.028   0.191   2.985  3.0279 -0.4779  0.5063
   87MOL   H33436626   2.160   0.228   2.867  0.5481 -0.4876 -0.6236
   87MOL   H33536627   2.037   0.027   2.806  0.2560  0.1509  0.3173
   87MOL   H33636628   2.006   0.150   2.688 -0.6505  2.2475  0.8785
   87MOL   H33736629   1.882   0.128   2.804 -0.0547  1.2533  0.4745
   87MOL   C33836630   2.406   0.620   3.020 -0.7069 -0.3301 -0.3055
   87MOL   C33936631   2.494   0.500   3.063  0.4750 -0.3746 -0.4764
   87MOL   C34036632   2.495   0.495   3.221 -0.5673 -0.3536 -0.4538
   87MOL   C34136633   2.558   0.366   3.277 -0.0767 -0.3656  0.6778
   87MOL   C34236634   2.505   0.325   3.409  0.1397  0.8103  0.2133
   87MOL   C34336635   2.596   0.227   3.483  0.0394  0.3878 -0.1852
   87MOL   C34436636   2.588   0.084   3.423 -0.0719  0.2125  0.2997
   87MOL   H34536637   2.446   0.697   3.086 -3.9712  0.4786  0.7971
   87MOL   H34636638   2.424   0.660   2.920 -0.4477  0.6428  0.1241
   87MOL   H34736639   2.438   0.414   3.027  0.0067 -1.2251  2.1477
   87MOL   H34836640   2.550   0.583   3.256 -0.6378 -1.2064  1.8938
   87MOL   H34936641   2.399   0.520   3.267  0.0491  1.1315  0.0864
   87MOL   H35036642   2.666   0.376   3.274 -0.1066  0.2402  1.3695
   87MOL   H35136643   2.527   0.294   3.201  0.8544  1.3347 -1.3915
   87MOL   H35236644   2.489   0.415   3.468 -1.7472  0.3301  0.4713
   87MOL   H35336645   2.401   0.292   3.401 -0.0054  1.5158 -1.0267
   87MOL   H35436646   2.697   0.268   3.479  0.2729  0.0796  1.9352
   87MOL   H35536647   2.566   0.218   3.587 -0.5428  0.3149 -0.3576
   87MOL   H35636648   2.611   0.075   3.317  0.2485 -1.4524  0.4869
   87MOL   H35736649   2.490   0.038   3.439  0.7171 -1.7421 -0.3292
   87MOL   H35836650   2.663   0.032   3.483  0.5728  0.6269 -0.1440
   87MOL   C35936651   2.646   0.516   3.009  0.3142  0.7156  0.0963
   87MOL   C36036652   2.724   0.386   2.973 -0.1128  1.0323  0.6421
   87MOL   C36136653   2.688   0.333   2.839  0.3767 -0.6752  0.1113
   87MOL   C36236654   2.730   0.422   2.718 -0.1272 -0.8269  0.1675
   87MOL   C36336655   2.664   0.393   2.582 -0.5797  0.3106  0.2154
   87MOL   C36436656   2.517   0.433   2.575  0.8602  0.0673  0.5096
   87MOL   C36536657   2.497   0.589   2.569 -0.5026 -0.7608 -0.3665
   87MOL   H36636658   2.692   0.574   3.089 -0.9917  0.6615  0.8850
   87MOL   H36736659   2.633   0.582   2.924 -2.2366 -0.5847 -0.5636
   87MOL   H36836660   2.707   0.303   3.041  2.7666 -1.0161 -1.0263
   87MOL   H36936661   2.734   0.234   2.837 -0.3535 -1.0387  0.9617
   87MOL   H37036662   2.581   0.309   2.839  0.5584 -1.5200  0.1688
   87MOL   H37136663   2.718   0.528   2.742 -0.4681 -0.4747 -1.4837
   87MOL   H37236664   2.837   0.404   2.705 -0.0070 -0.6014  0.8250
   87MOL   H37336665   2.721   0.436   2.500 -0.8330  1.0579  0.4265
   87MOL   H37436666   2.661   0.284   2.575 -3.2390  0.2616  1.2403
   87MOL   H37536667   2.470   0.376   2.496 -1.2776 -1.5494  2.8710
   87MOL   H37636668   2.463   0.401   2.664  0.9061  1.8274  1.1970
   87MOL   H37736669   2.537   0.650   2.649 -1.9236  1.7590 -1.5289
   87MOL   H37836670   2.552   0.628   2.482  0.4637 -0.4873  0.3537
   87MOL   H37936671   2.394   0.620   2.555  0.3547  0.9320 -3.4672
   87MOL   C38036672   2.875   0.395   2.987 -0.1701 -0.9440  0.6420
   87MOL   C38136673   2.933   0.409   3.136 -0.6490 -0.2834 -0.1611
   87MOL   C38236674   2.960   0.261   3.191 -0.0488  0.0751  0.6679
   87MOL   C38336675   3.021   0.249   3.333  0.4455  0.0531 -0.1979
   87MOL   C38436676   3.060   0.109   3.385  0.4147  0.1045  1.0234
   87MOL   C38536677   3.096   0.098   3.532 -0.1917 -1.4539 -0.5107
   87MOL   C38636678   2.978   0.081   3.626  1.1991  0.2658 -0.1549
   87MOL   H38736679   2.941   0.333   2.926  1.2121 -0.0994  1.2424
   87MOL   H38836680   2.897   0.490   2.940 -1.2798 -1.0381 -0.0882
   87MOL   H38936681   2.856   0.445   3.204 -0.2253  1.4336 -0.5484
   87MOL   H39036682   3.023   0.211   3.117  0.5733  0.9152  0.6317
   87MOL   H39136683   2.867   0.205   3.179 -0.3848  0.9352 -0.9027
   87MOL   H39236684   3.112   0.308   3.325  1.5161 -1.8220 -2.4659
   87MOL   H39336685   2.956   0.301   3.403  1.0116  0.0049  0.3728
   87MOL   H39436686   2.987   0.033   3.356  3.0554 -1.7719 -1.0237
   87MOL   H39536687   3.138   0.064   3.322 -0.4457  0.2051 -0.1309
   87MOL   H39636688   3.154   0.187   3.558 -0.3158 -1.3367 -0.6360
   87MOL   H39736689   3.145   0.001   3.528  0.6268 -1.0359 -0.7087
   87MOL   H39836690   2.902   0.157   3.640  1.7283  0.5981  0.9185
   87MOL   H39936691   3.022   0.071   3.725  2.1636 -0.2933 -0.6240
   87MOL   H40036692   2.934   7.700   3.594 -0.5548  1.2454 -0.6798
   87MOL   C40136693   3.059   0.508   3.146  0.4465 -0.6399 -0.2231
   87MOL   C40236694   3.022   0.661   3.129  0.1707  0.1821  0.3921
   87MOL   C40336695   3.152   0.747   3.151  0.3660  0.1032 -0.0329
   87MOL   C40436696   3.142   0.903   3.148 -0.0056 -0.5335 -0.1945
   87MOL   C40536697   3.076   0.964   3.025 -0.1045  0.2372 -0.0867
   87MOL   C40636698   3.112   1.109   3.008 -0.3216  0.3493 -0.0066
   87MOL   C40736699   3.079   1.178   2.872 -0.1687 -0.0008  0.1904
   87MOL   H40836700   3.126   0.477   3.065 -0.4994 -0.2458 -1.1754
   87MOL   H40936701   3.101   0.495   3.246  1.1239  2.4024 -0.0733
   87MOL   H41036702   2.954   0.698   3.205 -0.4665 -0.9562  0.3932
   87MOL   H41136703   3.221   0.715   3.072 -0.7519  4.0773 -2.7861
   87MOL   H41236704   3.193   0.714   3.246 -0.8075  1.4862  0.9496
   87MOL   H41336705   3.238   0.954   3.159 -0.9945  1.5676 -1.0560
   87MOL   H41436706   3.078   0.937   3.229 -1.6351  0.6469 -1.9506
   87MOL   H41536707   3.115   0.904   2.943 -1.1274  0.2611 -0.5921
   87MOL   H41636708   2.969   0.948   3.029 -0.0770  0.2644  0.8994
   87MOL   H41736709   3.067   1.171   3.085 -3.0686  0.7539 -1.8414
   87MOL   H41836710   3.217   1.137   3.003  0.2833 -1.9984 -1.0193
   87MOL   H41936711   2.977   1.149   2.846 -0.2907 -0.9135  1.6434
   87MOL   H42036712   3.156   1.149   2.801  0.8793  1.1325  0.8456
   87MOL   H42136713   3.075   1.285   2.891  0.2874  0.1020 -0.2866
   87MOL   H42236714   2.969   0.680   3.035 -0.5169 -0.5677  0.6182
   88MOL     C136715   6.548   3.992   3.247  0.1810  0.1428  0.0035
   88MOL     C236716   6.403   4.023   3.294 -0.0077  0.2135 -0.0030
   88MOL     C336717   6.375   4.109   3.420  0.1812  0.4170 -0.4537
   88MOL     C436718   6.424   4.255   3.428  0.0006 -0.1794  0.6189
   88MOL     C536719   6.362   4.347   3.538  0.3336  0.5191 -0.3640
   88MOL     C636720   6.409   4.494   3.516 -0.2490  0.6170  0.4131
   88MOL     C736721   6.333   4.572   3.617 -0.5320 -0.0182 -0.3102
   88MOL     H836722   6.596   4.089   3.231 -0.7239  0.4965 -0.5433
   88MOL     H936723   6.559   3.935   3.155  3.3007 -0.6595  0.7967
   88MOL    H1036724   6.375   4.091   3.214 -3.2480  1.7954  2.3579
   88MOL    H1136725   6.267   4.125   3.426  0.3489  1.3740  0.1408
   88MOL    H1236726   6.415   4.066   3.512 -1.8591 -1.4595 -0.4021
   88MOL    H1336727   6.532   4.247   3.432  0.0579  0.2447  0.1130
   88MOL    H1436728   6.403   4.308   3.335 -2.7917 -0.8950  0.7950
   88MOL    H1536729   6.387   4.315   3.639 -0.3632  1.8905  0.2505
   88MOL    H1636730   6.254   4.343   3.526  0.2652 -0.5450  0.4648
   88MOL    H1736731   6.389   4.520   3.412  1.3116 -1.4877 -0.4553
   88MOL    H1836732   6.515   4.502   3.537 -0.0822 -2.6092  1.0824
   88MOL    H1936733   6.231   4.599   3.589 -0.6783  0.4160  0.6164
   88MOL    H2036734   6.379   4.670   3.625 -2.7791  0.9925  0.8455
   88MOL    H2136735   6.327   4.518   3.711  1.8835 -0.6274 -0.4773
   88MOL    H2236736   6.607   3.939   3.321  0.7612  0.5007 -0.1940
   88MOL    C2336737   6.317   3.904   3.266 -0.6595 -0.0483  0.0368
   88MOL    C2436738   6.164   3.916   3.269 -0.0559  0.4976 -0.4753
   88MOL    C2536739   6.091   3.779   3.268  0.0900 -0.4729 -0.0033
   88MOL    C2636740   6.138   3.684   3.153  0.8577 -0.5641  0.4837
   88MOL    C2736741   6.036   3.574   3.127  0.6785 -0.1102 -0.2630
   88MOL    C2836742   5.911   3.620   3.048 -0.2434 -0.9996  0.2123
   88MOL    C2936743   5.808   3.509   3.041  0.2895  0.2022  0.4968
   88MOL    H3036744   6.347   3.847   3.177 -0.0670 -1.8557  1.3666
   88MOL    H3136745   6.338   3.843   3.354  0.7663 -0.0576 -0.2885
   88MOL    H3236746   6.138   3.958   3.366 -1.8206  0.2371 -0.8199
   88MOL    H3336747   5.982   3.784   3.274  0.0242 -0.6505 -0.9758
   88MOL    H3436748   6.115   3.727   3.361  0.3148  1.9355  1.3139
   88MOL    H3536749   6.233   3.646   3.192  0.4562 -0.4649  1.5846
   88MOL    H3636750   6.160   3.743   3.064 -1.8507 -0.1077  0.0722
   88MOL    H3736751   6.001   3.526   3.219 -0.6055  0.3546 -0.4900
   88MOL    H3836752   6.089   3.495   3.074  0.4408 -2.3485  2.6776
   88MOL    H3936753   5.929   3.655   2.946  1.6059 -1.6951  0.2759
   88MOL    H4036754   5.866   3.707   3.096 -0.3009 -0.6431 -0.4796
   88MOL    H4136755   5.743   3.539   2.959 -1.4939  0.5092  1.9973
   88MOL    H4236756   5.841   3.411   3.005 -0.0840  0.4783 -0.6103
   88MOL    H4336757   5.750   3.488   3.131 -2.9060 -0.5344 -1.6530
   88MOL    C4436758   6.128   4.004   3.153 -0.0148  0.5036 -0.0967
   88MOL    C4536759   5.986   4.016   3.107 -0.4124 -1.1065 -0.4242
   88MOL    C4636760   5.891   4.066   3.212 -0.6165 -0.2290  0.5499
   88MOL    C4736761   5.899   4.213   3.249 -0.5593  0.2726  0.3676
   88MOL    C4836762   5.811   4.249   3.371 -0.8482 -0.0393  0.1234
   88MOL    C4936763   5.838   4.395   3.410  0.4094 -0.9552  0.1713
   88MOL    C5036764   5.744   4.449   3.515  0.1730 -0.1711  0.1648
   88MOL    H5136765   6.182   3.978   3.062 -0.5021  1.4532 -0.6619
   88MOL    H5236766   6.160   4.106   3.172  2.0806  0.1376 -1.4810
   88MOL    H5336767   5.951   3.916   3.078 -0.8031  0.0299 -4.1027
   88MOL    H5436768   5.917   4.005   3.299 -1.5973 -1.9092 -0.3127
   88MOL    H5536769   5.795   4.036   3.172 -0.6551  1.7576 -0.9293
   88MOL    H5636770   6.004   4.225   3.277 -0.6015  1.5638  0.0162
   88MOL    H5736771   5.866   4.279   3.167  1.8929 -0.7998 -1.5475
   88MOL    H5836772   5.823   4.175   3.450  0.7034  0.4636  0.3799
   88MOL    H5936773   5.709   4.239   3.334 -1.1578  0.3325  0.8572
   88MOL    H6036774   5.824   4.466   3.328 -0.7145 -1.2404  0.1153
   88MOL    H6136775   5.942   4.412   3.439  0.7158  1.0346 -1.8695
   88MOL    H6236776   5.759   4.415   3.617 -3.3921  0.7980  1.0948
   88MOL    H6336777   5.638   4.428   3.498  0.7416  0.0329 -4.2585
   88MOL    H6436778   5.752   4.557   3.525  0.2246 -0.1318 -0.2924
   88MOL    C6536779   5.961   4.101   2.975  0.9602 -0.3439 -0.5589
   88MOL    C6636780   5.997   4.050   2.836 -0.0659  0.1790 -0.0910
   88MOL    C6736781   5.923   3.924   2.798 -0.1441 -0.2474  0.0555
   88MOL    C6836782   5.772   3.934   2.823 -0.0376 -0.0092 -0.6856
   88MOL    C6936783   5.699   3.820   2.750 -0.3663 -0.2741 -0.2110
   88MOL    C7036784   5.566   3.781   2.814  0.4112  0.2637 -0.2348
   88MOL    C7136785   5.454   3.885   2.783  0.4915 -0.2582  0.4501
   88MOL    H7236786   5.855   4.128   2.979  1.1194  0.2814 -0.4347
   88MOL    H7336787   6.004   4.201   2.980  0.8130 -0.3347  0.7831
   88MOL    H7436788   5.950   4.118   2.764  3.5482  0.8607 -1.9033
   88MOL    H7536789   5.939   3.905   2.692 -1.2734 -0.3565 -0.1044
   88MOL    H7636790   5.967   3.845   2.860 -0.7317 -0.7544 -0.1752
   88MOL    H7736791   5.760   3.939   2.931  0.1757 -3.0843 -0.4927
   88MOL    H7836792   5.730   4.031   2.795 -1.3031 -0.3895 -0.1377
   88MOL    H7936793   5.682   3.838   2.644 -0.5509  2.0753  0.1909
   88MOL    H8036794   5.766   3.735   2.762  2.5622  2.0358  0.5074
   88MOL    H8136795   5.578   3.779   2.922  0.0778 -0.0811 -0.2040
   88MOL    H8236796   5.533   3.688   2.768  0.5590 -0.1537  0.5119
   88MOL    H8336797   5.491   3.983   2.811 -3.7872  0.9994  2.1524
   88MOL    H8436798   5.439   3.876   2.676  0.2386 -2.0823  0.6203
   88MOL    H8536799   5.365   3.868   2.843 -0.8096  0.8534 -1.1394
   88MOL    C8636800   6.142   4.044   2.781 -0.1683  0.6207 -0.1087
   88MOL    C8736801   6.228   4.170   2.806  0.0106  0.0562 -0.0836
   88MOL    C8836802   6.373   4.136   2.772 -0.2990  0.2465 -0.8223
   88MOL    C8936803   6.402   4.087   2.632  0.1116 -0.3466 -0.0450
   88MOL    C9036804   6.547   4.054   2.617  0.0007  0.3363  0.0832
   88MOL    C9136805   6.587   4.017   2.475  0.6769 -0.1488 -0.4687
   88MOL    C9236806   6.553   3.876   2.432 -0.1821  0.0614 -0.1111
   88MOL    H9336807   6.188   3.960   2.832  0.8077  1.4989  0.4636
   88MOL    H9436808   6.134   4.019   2.675  1.0187 -0.4832  0.0613
   88MOL    H9536809   6.231   4.185   2.914 -2.8266  0.3724 -0.0252
   88MOL    H9636810   6.444   4.217   2.789 -0.3026  0.7226 -2.9115
   88MOL    H9736811   6.399   4.059   2.844  0.1157  1.6186  0.5335
   88MOL    H9836812   6.345   4.004   2.590  0.6984 -1.1008  0.6429
   88MOL    H9936813   6.373   4.171   2.568  0.7348 -0.7620 -0.8763
   88MOL   H10036814   6.569   3.974   2.688 -0.2924  0.1238 -0.0623
   88MOL   H10136815   6.609   4.134   2.655 -0.2015  0.7067 -0.3592
   88MOL   H10236816   6.533   4.080   2.404 -1.0184 -0.5125  0.4661
   88MOL   H10336817   6.695   4.033   2.472  0.9739 -1.3417  2.4974
   88MOL   H10436818   6.445   3.858   2.436 -0.4487  1.3163 -1.6205
   88MOL   H10536819   6.613   3.801   2.483 -0.2370 -0.4329 -0.7638
   88MOL   H10636820   6.582   3.851   2.330 -0.0673 -2.1656  0.4343
   88MOL   C10736821   6.184   4.300   2.741  0.0608 -0.1003 -0.3061
   88MOL   C10836822   6.250   4.435   2.792  1.0462 -0.4252  0.4903
   88MOL   C10936823   6.187   4.559   2.711  0.6958  0.3684 -1.3160
   88MOL   C11036824   6.193   4.540   2.565 -0.1575 -0.2438  1.0602
   88MOL   C11136825   6.190   4.677   2.493 -0.3683 -0.6947 -0.1700
   88MOL   C11236826   6.140   4.663   2.351  0.1961 -0.2271 -0.0642
   88MOL   C11336827   6.096   4.803   2.287 -0.2726 -0.7034 -0.4938
   88MOL   H11436828   6.075   4.309   2.738  0.0964  1.0388  1.5483
   88MOL   H11536829   6.209   4.282   2.636 -0.8272 -0.3042 -0.4937
   88MOL   H11636830   6.358   4.435   2.785  1.0441  0.4623  0.4131
   88MOL   H11736831   6.240   4.650   2.736 -0.2000  0.7257 -0.7246
   88MOL   H11836832   6.085   4.578   2.744  1.5541 -0.2982  1.8968
   88MOL   H11936833   6.285   4.486   2.544 -1.1550 -0.9445 -1.7468
   88MOL   H12036834   6.106   4.478   2.543  0.6158  0.0456 -3.2669
   88MOL   H12136835   6.280   4.737   2.502  0.4155 -1.8465 -0.1390
   88MOL   H12236836   6.118   4.745   2.538 -0.7014  0.1469 -1.9563
   88MOL   H12336837   6.209   4.603   2.291 -0.0445  0.4217 -0.9961
   88MOL   H12436838   6.052   4.600   2.346 -0.0505  0.2067 -1.2922
   88MOL   H12536839   6.092   4.788   2.179  0.3316  2.0941 -0.9461
   88MOL   H12636840   5.997   4.829   2.324  0.5306  0.2979  1.0174
   88MOL   H12736841   6.167   4.880   2.315 -1.9957  0.6002  0.3731
   88MOL   C12836842   6.209   4.466   2.937  0.0490  1.0102  0.0292
   88MOL   C12936843   6.314   4.555   3.019 -0.0626  0.6075  0.1275
   88MOL   C13036844   6.438   4.466   3.054  0.2989  0.4993  0.4780
   88MOL   C13136845   6.557   4.539   3.120 -0.3830 -0.5399  0.0972
   88MOL   C13236846   6.679   4.452   3.127  0.1139  0.0862  0.4826
   88MOL   C13336847   6.787   4.513   3.215 -0.3962  0.2687 -0.5002
   88MOL   C13436848   6.749   4.537   3.362  0.1056  0.0477  0.6648
   88MOL   H13536849   6.108   4.508   2.942 -0.3003  0.3157 -1.0981
   88MOL   H13636850   6.197   4.375   2.995 -1.6068  2.0577  1.3893
   88MOL   H13736851   6.341   4.631   2.945 -2.4187 -0.4839 -1.9190
   88MOL   H13836852   6.468   4.405   2.969  1.1374 -1.1963  1.9505
   88MOL   H13936853   6.403   4.385   3.118 -0.4273  0.1919 -0.2921
   88MOL   H14036854   6.530   4.582   3.216  2.8505  1.0847  0.3441
   88MOL   H14136855   6.586   4.626   3.061  1.4584 -0.9769  0.3156
   88MOL   H14236856   6.724   4.424   3.031 -2.1729  3.1607 -1.6020
   88MOL   H14336857   6.646   4.363   3.180  3.2387  0.0518  2.4868
   88MOL   H14436858   6.822   4.610   3.179  2.8398 -0.9681 -0.8790
   88MOL   H14536859   6.874   4.448   3.202  0.0380  0.7881 -0.2025
   88MOL   H14636860   6.833   4.556   3.429  0.1876  1.3215  0.2312
   88MOL   H14736861   6.695   4.449   3.396 -1.2954 -0.3176 -2.2951
   88MOL   H14836862   6.688   4.628   3.367  0.7037  0.4562  0.5861
   88MOL   C14936863   6.243   4.625   3.137 -0.0666  0.4667  1.1485
   88MOL   C15036864   6.162   4.752   3.098 -0.2536  0.1284  0.1173
   88MOL   C15136865   6.253   4.865   3.051  0.4342  0.7210  0.2723
   88MOL   C15236866   6.373   4.905   3.139  0.1860  0.1166 -0.4482
   88MOL   C15336867   6.458   5.015   3.070 -0.2464  0.3088  0.4168
   88MOL   C15436868   6.592   5.037   3.139  0.3880 -0.1983 -0.2363
   88MOL   C15536869   6.686   5.140   3.081  0.8485  0.0730 -0.3331
   88MOL   H15636870   6.185   4.546   3.184 -0.4625 -0.8326 -1.4171
   88MOL   H15736871   6.313   4.660   3.213 -0.0432  0.4015  1.1553
   88MOL   H15836872   6.093   4.722   3.019 -0.1064  1.4782 -0.5469
   88MOL   H15936873   6.277   4.850   2.946  0.0854  0.4698  0.2236
   88MOL   H16036874   6.199   4.960   3.052 -2.7109 -0.9834 -0.9463
   88MOL   H16136875   6.442   4.821   3.151 -2.6641 -2.2398  0.0695
   88MOL   H16236876   6.348   4.936   3.240 -1.7432  1.0596 -1.1790
   88MOL   H16336877   6.396   5.104   3.078 -2.1728 -1.0431  1.0183
   88MOL   H16436878   6.465   4.983   2.966 -1.4614  0.1311  0.3797
   88MOL   H16536879   6.645   4.942   3.131  0.0775 -0.2907 -1.2933
   88MOL   H16636880   6.581   5.080   3.239 -2.2194 -0.5566 -0.3159
   88MOL   H16736881   6.715   5.125   2.978  1.2404 -0.4654 -0.1460
   88MOL   H16836882   6.767   5.147   3.154 -1.2266  0.2603  2.0450
   88MOL   H16936883   6.638   5.238   3.077  1.8061  0.8132  3.4017
   88MOL   C17036884   6.068   4.786   3.225  0.1597 -0.2161  0.1014
   88MOL   C17136885   5.937   4.858   3.182 -0.1724  0.6128  0.4379
   88MOL   C17236886   5.819   4.756   3.158  0.1115  0.3076  0.0827
   88MOL   C17336887   5.843   4.643   3.058 -0.1214 -0.5837  0.3328
   88MOL   C17436888   5.717   4.555   3.047  0.1262 -0.0670 -0.0867
   88MOL   C17536889   5.747   4.447   2.946  0.2750 -0.0950  0.3354
   88MOL   C17636890   5.627   4.354   2.922  0.1040  0.5421  0.3109
   88MOL   H17736891   6.124   4.846   3.296  1.0412 -1.1345  0.1944
   88MOL   H17836892   6.035   4.701   3.284 -3.6005  0.9876 -0.1241
   88MOL   H17936893   5.963   4.906   3.088 -1.2683 -0.8052 -0.6041
   88MOL   H18036894   5.736   4.818   3.126  0.0177 -1.0019 -2.3285
   88MOL   H18136895   5.785   4.713   3.252  0.9065  0.0609  0.2645
   88MOL   H18236896   5.929   4.579   3.075  1.4661  1.4275  0.0240
   88MOL   H18336897   5.861   4.707   2.971 -1.0191  1.2988  1.5079
   88MOL   H18436898   5.636   4.616   3.006  1.2140  1.7302  0.3480
   88MOL   H18536899   5.673   4.516   3.138  0.1200  0.4039  0.1168
   88MOL   H18636900   5.826   4.382   2.985  0.4868 -0.6936 -1.0700
   88MOL   H18736901   5.789   4.486   2.853  0.8876  2.2198  1.5461
   88MOL   H18836902   5.661   4.295   2.837  0.0032  1.0462 -0.0852
   88MOL   H18936903   5.542   4.408   2.878  2.1841  2.4686 -1.4972
   88MOL   H19036904   5.591   4.296   3.007 -0.0212  0.5591  0.2695
   88MOL   C19136905   5.887   4.972   3.275  0.1990  1.2745 -0.3637
   88MOL   C19236906   5.987   5.086   3.307  0.8090 -0.0525 -0.1916
   88MOL   C19336907   5.962   5.182   3.189  0.3873  0.0005 -0.3741
   88MOL   C19436908   6.077   5.285   3.174 -0.3725 -0.7226  0.0828
   88MOL   C19536909   6.038   5.391   3.072 -0.1254 -0.1510 -0.4247
   88MOL   C19636910   6.136   5.505   3.069 -0.3573 -0.3630 -0.1960
   88MOL   C19736911   6.271   5.471   3.013 -0.2801  0.3247 -0.6562
   88MOL   H19836912   5.863   4.934   3.374  0.8343  2.3013  0.2009
   88MOL   H19936913   5.794   5.009   3.233 -1.0125 -1.3700 -0.0571
   88MOL   H20036914   6.091   5.057   3.292  0.6746 -0.6573  0.0497
   88MOL   H20136915   5.876   5.244   3.214  0.2589 -0.5942  0.6635
   88MOL   H20236916   5.947   5.125   3.097 -0.0580 -1.6947  0.7469
   88MOL   H20336917   6.171   5.243   3.138  0.5020  1.9220 -0.8308
   88MOL   H20436918   6.101   5.335   3.268  2.2197  2.3352 -2.0924
   88MOL   H20536919   6.035   5.337   2.978  0.0760 -1.8949  0.5625
   88MOL   H20636920   5.938   5.433   3.085 -0.0019 -0.0959  0.3731
   88MOL   H20736921   6.148   5.556   3.165 -0.8664 -1.5448  0.4979
   88MOL   H20836922   6.093   5.574   2.996 -0.6099  0.8137  1.0549
   88MOL   H20936923   6.260   5.424   2.915  0.6735  0.2575 -0.7422
   88MOL   H21036924   6.323   5.398   3.074 -0.8872  0.5078  0.0838
   88MOL   H21136925   6.329   5.563   3.010 -1.3245  0.9567 -1.7107
   88MOL   C21236926   5.975   5.150   3.445 -0.2658 -0.1070  0.1412
   88MOL   C21336927   6.021   5.067   3.568  0.1948 -0.6893  0.4128
   88MOL   C21436928   6.166   5.022   3.557 -0.2318 -0.2052 -0.1931
   88MOL   C21536929   6.274   5.128   3.516  0.6698 -0.2206  0.0923
   88MOL   C21636930   6.411   5.080   3.536 -0.4001  0.1773  0.3775
   88MOL   C21736931   6.519   5.180   3.503 -0.4582 -0.7213 -0.0789
   88MOL   C21836932   6.662   5.117   3.501 -0.6893 -0.1916 -0.1612
   88MOL   H21936933   5.867   5.164   3.454 -0.5107 -1.1996 -0.9453
   88MOL   H22036934   6.033   5.243   3.445  0.7914 -0.7602  0.5348
   88MOL   H22136935   5.962   4.975   3.565 -0.1541 -0.4614  0.3412
   88MOL   H22236936   6.199   4.982   3.652 -4.4523 -1.1353  0.9827
   88MOL   H22336937   6.161   4.940   3.486 -0.4049  1.9855 -2.8210
   88MOL   H22436938   6.266   5.225   3.566  1.9473 -0.8314  1.5099
   88MOL   H22536939   6.266   5.142   3.408 -0.7972 -2.4660 -0.1154
   88MOL   H22636940   6.429   5.055   3.641  0.8352  1.5606  0.5175
   88MOL   H22736941   6.415   4.997   3.465  2.2776  0.1950  0.4484
   88MOL   H22836942   6.507   5.224   3.404  0.2036  0.8425  0.5252
   88MOL   H22936943   6.516   5.267   3.569  1.2050  0.1884 -1.1606
   88MOL   H23036944   6.719   5.119   3.594  1.4039 -1.5310 -1.3523
   88MOL   H23136945   6.717   5.166   3.421 -1.4391 -2.2440 -1.9944
   88MOL   H23236946   6.658   5.012   3.470  1.0660 -0.7382  1.3318
   88MOL   C23336947   5.990   5.139   3.700 -0.1324  0.2776  0.1111
   88MOL   C23436948   5.853   5.218   3.719 -0.4695  0.4832  0.1139
   88MOL   C23536949   5.844   5.357   3.647 -0.0481 -0.3008 -0.0498
   88MOL   C23636950   5.967   5.443   3.643 -0.3076  0.4274  0.2136
   88MOL   C23736951   5.953   5.577   3.567 -0.5028  0.1217  0.5355
   88MOL   C23836952   5.986   5.562   3.418 -0.0340  0.4407  0.9610
   88MOL   C23936953   5.984   5.698   3.350  0.2533  0.7684  0.4223
   88MOL   H24036954   6.066   5.209   3.735 -1.1890  1.7756 -0.5475
   88MOL   H24136955   6.002   5.061   3.776  0.8788 -0.2382 -0.5709
   88MOL   H24236956   5.843   5.240   3.826 -3.7857 -2.5438  0.5080
   88MOL   H24336957   5.767   5.418   3.694  0.5267 -0.2724  0.8725
   88MOL   H24436958   5.812   5.345   3.543  1.4348 -1.3055 -0.4117
   88MOL   H24536959   6.048   5.379   3.607  0.2389  0.9508  0.5043
   88MOL   H24636960   6.004   5.478   3.739  1.5963  0.4752 -0.5140
   88MOL   H24736961   6.020   5.651   3.612  1.6786 -0.2535 -1.9398
   88MOL   H24836962   5.850   5.610   3.575 -0.9060 -1.2229  1.0027
   88MOL   H24936963   6.088   5.525   3.408  1.0003  2.8026  2.3419
   88MOL   H25036964   5.913   5.491   3.379  1.5474  0.3072 -1.8882
   88MOL   H25136965   6.006   5.689   3.243  0.1029 -2.0667  0.5978
   88MOL   H25236966   5.894   5.758   3.359  2.1961  3.5583  2.0578
   88MOL   H25336967   6.066   5.760   3.387  0.3340 -0.3344  2.1032
   88MOL   C25436968   5.725   5.133   3.699 -0.1044  0.1292  0.6695
   88MOL   C25536969   5.704   5.006   3.788  0.1333  0.2909 -0.2074
   88MOL   C25636970   5.666   4.883   3.703 -0.4005 -0.3710  0.4460
   88MOL   C25736971   5.520   4.872   3.652 -0.8681 -0.0635 -0.4993
   88MOL   C25836972   5.514   4.775   3.534 -0.4232  0.1461  0.4280
   88MOL   C25936973   5.369   4.762   3.484 -0.2226  0.3772 -0.3231
   88MOL   C26036974   5.368   4.679   3.352 -0.2411 -0.1640 -0.1119
   88MOL   H26136975   5.727   5.113   3.592  1.2707  2.2032  0.2917
   88MOL   H26236976   5.637   5.195   3.714 -0.0441  0.6853 -1.1754
   88MOL   H26336977   5.804   4.979   3.821  1.3113  2.9048 -1.5415
   88MOL   H26436978   5.684   4.791   3.758  0.2785  0.0975  1.0181
   88MOL   H26536979   5.733   4.873   3.618 -1.9774  1.7437 -1.1044
   88MOL   H26636980   5.445   4.857   3.729  1.0367  1.4714  1.7152
   88MOL   H26736981   5.486   4.971   3.624  0.2536  0.6697  0.6528
   88MOL   H26836982   5.559   4.676   3.550 -2.3147 -1.0079 -1.1861
   88MOL   H26936983   5.576   4.816   3.455 -0.5368 -0.6568 -0.0871
   88MOL   H27036984   5.317   4.713   3.566 -0.4008  0.6005 -0.3019
   88MOL   H27136985   5.321   4.858   3.462 -1.1072  0.0455  0.1591
   88MOL   H27236986   5.430   4.590   3.349  1.1719  0.7788  0.6236
   88MOL   H27336987   5.269   4.646   3.322  0.1659 -0.7799 -0.7886
   88MOL   H27436988   5.410   4.751   3.282  0.5967  0.6803  1.2324
   88MOL   C27536989   5.608   5.017   3.915  0.4000  0.1986  0.6417
   88MOL   C27636990   5.638   5.131   4.019  0.0425 -0.0022 -0.1220
   88MOL   C27736991   5.772   5.112   4.100 -0.4865 -0.4496  0.1172
   88MOL   C27836992   5.799   5.233   4.187 -0.3573  0.4299  0.3010
   88MOL   C27936993   5.808   5.378   4.132 -0.2335 -0.5500  0.6257
   88MOL   C28036994   5.850   5.486   4.231  0.3259 -0.0985 -0.6589
   88MOL   C28136995   5.735   5.523   4.331 -0.5107 -0.4946 -0.2917
   88MOL   H28236996   5.630   4.921   3.963 -1.6668 -2.2558 -3.0335
   88MOL   H28336997   5.504   5.009   3.883  0.6180 -1.5271  0.3146
   88MOL   H28436998   5.637   5.225   3.964  0.6190  1.0209  1.6011
   88MOL   H28536999   5.763   5.024   4.163  0.5624 -0.2468  0.5429
   88MOL   H28637000   5.861   5.105   4.038 -1.8329 -0.2215 -1.9041
   88MOL   H28737001   5.898   5.213   4.227  0.4930  2.5687 -0.6156
   88MOL   H28837002   5.737   5.243   4.276  0.6891 -0.6549  1.1664
   88MOL   H28937003   5.711   5.410   4.096  0.6010  0.7456 -0.5135
   88MOL   H29037004   5.874   5.375   4.044 -0.5810 -0.1493  0.3520
   88MOL   H29137005   5.939   5.459   4.288  1.8682  0.9399 -2.5336
   88MOL   H29237006   5.871   5.585   4.190  1.0295  0.2103  0.4020
   88MOL   H29337007   5.716   5.443   4.403 -0.1051  1.1006  1.6162
   88MOL   H29437008   5.643   5.550   4.279 -0.1931 -1.4818 -1.3911
   88MOL   H29537009   5.771   5.609   4.387 -1.0608  0.3622 -1.2360
   88MOL   C29637010   5.525   5.156   4.124 -0.3508  0.2712 -0.6226
   88MOL   C29737011   5.375   5.149   4.076 -0.6934  0.2482  0.4237
   88MOL   C29837012   5.342   5.236   3.946  0.2625  0.1991 -0.2934
   88MOL   C29937013   5.218   5.180   3.865  0.6420  1.0243  0.0328
   88MOL   C30037014   5.204   5.257   3.733  0.2325 -0.7817  0.8875
   88MOL   C30137015   5.093   5.216   3.634 -0.0856  0.4913 -0.5527
   88MOL   C30237016   5.113   5.095   3.542  0.4170  0.2588 -0.2141
   88MOL   H30337017   5.522   5.089   4.210 -1.9146 -2.1090 -2.4388
   88MOL   H30437018   5.546   5.252   4.169  0.3382 -0.0775 -0.1961
   88MOL   H30537019   5.360   5.051   4.032 -2.6289 -0.5251  2.7065
   88MOL   H30637020   5.323   5.340   3.974  1.3771  0.3437 -0.0537
   88MOL   H30737021   5.428   5.241   3.880  0.1004  0.4639 -0.4840
   88MOL   H30837022   5.125   5.198   3.920  0.7991 -0.3126  0.7773
   88MOL   H30937023   5.224   5.072   3.852 -0.4575  0.8661  0.7791
   88MOL   H31037024   5.298   5.260   3.678 -0.7301 -0.8570 -0.7788
   88MOL   H31137025   5.191   5.364   3.750 -3.1610 -1.0032 -0.0332
   88MOL   H31237026   5.000   5.195   3.687 -0.8589  0.5403 -1.8532
   88MOL   H31337027   5.075   5.305   3.573 -0.8601  1.4235  0.9966
   88MOL   H31437028   5.183   5.131   3.467 -0.1873  1.6478 -0.1280
   88MOL   H31537029   5.148   5.003   3.589 -0.7509  0.4285  1.0164
   88MOL   H31637030   5.020   5.077   3.489 -0.2385  0.0618  0.9882
   88MOL   C31737031   5.270   5.196   4.180 -0.1092 -0.2476 -0.4466
   88MOL   C31837032   5.248   5.087   4.292  0.0549  0.8207  0.0827
   88MOL   C31937033   5.209   5.153   4.424  0.0491  0.3939 -0.2544
   88MOL   C32037034   5.335   5.194   4.497 -0.1204 -0.4786 -0.5956
   88MOL   C32137035   5.287   5.275   4.625 -0.3769  0.1017  0.2190
   88MOL   C32237036   5.412   5.314   4.701  0.1176  0.5501  0.8043
   88MOL   C32337037   5.377   5.410   4.813  0.3294 -0.5099 -0.8019
   88MOL   H32437038   5.175   5.227   4.138  1.1659  1.3433 -2.2840
   88MOL   H32537039   5.305   5.293   4.217 -1.4510  1.2636 -3.0212
   88MOL   H32637040   5.340   5.032   4.312 -0.9892 -1.0472 -0.1975
   88MOL   H32737041   5.163   5.073   4.483  0.5162 -0.3701 -0.9150
   88MOL   H32837042   5.133   5.230   4.413 -0.3496  0.2016  1.1163
   88MOL   H32937043   5.398   5.259   4.437 -1.9963  1.3617 -0.6224
   88MOL   H33037044   5.393   5.111   4.538  1.6056  1.9205  1.9645
   88MOL   H33137045   5.230   5.205   4.685 -0.4243 -1.1862 -1.3023
   88MOL   H33237046   5.231   5.366   4.606  0.3406  0.7247  1.0376
   88MOL   H33337047   5.489   5.358   4.638 -0.6349 -0.5792 -0.9290
   88MOL   H33437048   5.453   5.226   4.749 -2.9563 -0.8613  0.9899
   88MOL   H33537049   5.289   5.365   4.860  0.6051  0.7754  0.9817
   88MOL   H33637050   5.353   5.508   4.770 -2.0520 -0.9000 -0.4227
   88MOL   H33737051   5.461   5.423   4.881  0.5895  1.0206 -1.3826
   88MOL   C33837052   5.133   5.001   4.246  0.3477  0.1332  0.2350
   88MOL   C33937053   5.133   4.869   4.315  0.0926 -0.2436 -0.1121
   88MOL   C34037054   5.195   4.753   4.229  0.3531 -0.6826 -0.5589
   88MOL   C34137055   5.349   4.778   4.214  0.6188  0.0255  0.4301
   88MOL   C34237056   5.419   4.647   4.181 -0.1205  0.4905  0.3107
   88MOL   C34337057   5.568   4.647   4.208 -0.4549  0.1334  0.7785
   88MOL   C34437058   5.627   4.522   4.139  0.4312 -0.5255 -0.3828
   88MOL   H34537059   5.148   4.961   4.146 -1.5453 -0.1977  0.0662
   88MOL   H34637060   5.038   5.053   4.257 -0.3984 -1.0629 -0.4658
   88MOL   H34737061   5.194   4.878   4.404  0.1716  1.5041 -0.3283
   88MOL   H34837062   5.179   4.657   4.278 -1.3139 -0.3303 -0.3892
   88MOL   H34937063   5.148   4.744   4.130 -1.5290  1.7270  0.0535
   88MOL   H35037064   5.384   4.819   4.309  0.8240  0.0452  0.3441
   88MOL   H35137065   5.381   4.855   4.144 -0.0298 -0.0016  0.0978
   88MOL   H35237066   5.385   4.556   4.231  2.1628 -0.9658 -0.7038
   88MOL   H35337067   5.401   4.634   4.075 -0.7367  1.9523  0.2203
   88MOL   H35437068   5.612   4.737   4.165  0.1573 -0.1979  0.7013
   88MOL   H35537069   5.587   4.641   4.316 -0.8060 -1.3358  0.7741
   88MOL   H35637070   5.588   4.433   4.188 -2.0905  0.1017 -1.1584
   88MOL   H35737071   5.735   4.510   4.144  0.5161  0.4633  0.1723
   88MOL   H35837072   5.598   4.529   4.034 -1.2157 -2.1557 -0.0587
   88MOL   C35937073   4.994   4.832   4.368  0.5532 -0.0432 -0.2891
   88MOL   C36037074   4.888   4.810   4.257  0.7748 -0.2213 -0.6834
   88MOL   C36137075   4.866   4.657   4.243  0.2612 -0.8758  0.5263
   88MOL   C36237076   4.794   4.613   4.108  0.7410 -0.0582  0.1143
   88MOL   C36337077   4.763   4.464   4.113  0.3027 -0.3948  0.0601
   88MOL   C36437078   4.648   4.431   4.026  0.2844  0.0441  0.7008
   88MOL   C36537079   4.602   4.285   4.020  0.1284 -0.4139 -0.1738
   88MOL   H36637080   4.956   4.918   4.424 -0.2649 -0.5581 -0.0595
   88MOL   H36737081   4.995   4.752   4.442  0.0378 -1.3469 -1.6762
   88MOL   H36837082   4.921   4.841   4.158  2.1590 -0.8710 -0.4247
   88MOL   H36937083   4.961   4.605   4.232  1.6157  1.6301 -0.2106
   88MOL   H37037084   4.818   4.610   4.329  0.3485  0.4424  1.3104
   88MOL   H37137085   4.709   4.680   4.102  0.3632 -0.3832  1.5937
   88MOL   H37237086   4.849   4.633   4.016 -2.3595  2.4234 -1.2978
   88MOL   H37337087   4.856   4.416   4.086  1.5544  0.4216  2.6977
   88MOL   H37437088   4.734   4.430   4.213 -0.6825 -0.1152 -0.1212
   88MOL   H37537089   4.557   4.489   4.042  0.9010  1.2431 -0.0581
   88MOL   H37637090   4.671   4.462   3.924  0.7670 -1.7938  0.2276
   88MOL   H37737091   4.587   4.246   4.121 -2.3406  0.4372 -0.1871
   88MOL   H37837092   4.513   4.269   3.959 -0.2738  0.7544  0.1114
   88MOL   H37937093   4.690   4.236   3.978 -0.3266  0.6005 -2.3513
   88MOL   C38037094   4.748   4.875   4.295  0.6478 -0.5098 -0.0173
   88MOL   C38137095   4.736   5.031   4.278  0.6045  0.9801 -0.2027
   88MOL   C38237096   4.745   5.088   4.137 -0.3274  0.5440  0.5076
   88MOL   C38337097   4.795   5.234   4.144 -0.1731 -0.4831  0.0296
   88MOL   C38437098   4.828   5.297   4.012  0.3074  0.3143  0.1896
   88MOL   C38537099   4.891   5.439   4.022 -0.1760 -0.4989  0.6440
   88MOL   C38637100   4.891   5.518   3.891  0.3441  0.1509  0.1044
   88MOL   H38737101   4.664   4.833   4.240 -0.4269  0.8100  0.5888
   88MOL   H38837102   4.728   4.847   4.399  0.5565 -3.6200 -0.8016
   88MOL   H38937103   4.823   5.068   4.332  1.3119  1.1236 -1.4076
   88MOL   H39037104   4.643   5.085   4.097 -0.6572 -1.1642  1.4513
   88MOL   H39137105   4.813   5.030   4.075 -1.4764 -2.6133  2.0723
   88MOL   H39237106   4.722   5.304   4.185  0.3616  0.7144 -1.0079
   88MOL   H39337107   4.886   5.244   4.205  0.6000  1.0416 -1.3142
   88MOL   H39437108   4.898   5.232   3.959 -2.2282 -2.5930  0.2366
   88MOL   H39537109   4.730   5.304   3.965 -0.0980  1.5148  1.1798
   88MOL   H39637110   4.994   5.431   4.057 -0.3838 -1.3183  1.0950
   88MOL   H39737111   4.847   5.501   4.101 -0.4829 -0.5199  0.4904
   88MOL   H39837112   4.958   5.476   3.815 -0.4667 -0.0371 -0.5168
   88MOL   H39937113   4.930   5.614   3.926  1.0483 -0.7692  1.8847
   88MOL   H40037114   4.791   5.534   3.851  0.3889  0.6544  0.1829
   88MOL   C40137115   4.609   5.092   4.350  0.2636  0.1740 -0.5315
   88MOL   C40237116   4.468   5.056   4.305  0.2632  0.0776  0.5586
   88MOL   C40337117   4.357   5.127   4.385 -0.3288  0.6756  0.0471
   88MOL   C40437118   4.223   5.060   4.375  0.1983 -0.0319 -0.3485
   88MOL   C40537119   4.149   5.102   4.247 -0.0035  0.2838  0.5220
   88MOL   C40637120   4.006   5.066   4.245  0.3364  0.3550 -0.3039
   88MOL   C40737121   3.950   5.120   4.111  0.3546  0.4553  0.4311
   88MOL   H40837122   4.615   5.200   4.362 -3.2271  0.3308  0.1671
   88MOL   H40937123   4.618   5.071   4.457 -0.2980  2.2040 -0.0658
   88MOL   H41037124   4.449   4.949   4.309 -0.0986  0.1781  1.6418
   88MOL   H41137125   4.353   5.227   4.343 -2.1287  0.0504 -1.3325
   88MOL   H41237126   4.400   5.132   4.486  0.0382 -1.4376  0.0324
   88MOL   H41337127   4.157   5.084   4.458  0.1693  1.3137 -0.7533
   88MOL   H41437128   4.247   4.954   4.363  0.1275 -0.2422  1.2480
   88MOL   H41537129   4.156   5.209   4.230  2.7807  0.5876  3.0543
   88MOL   H41637130   4.189   5.059   4.156  1.2127  0.0704  1.1411
   88MOL   H41737131   4.003   4.957   4.247  0.8332  0.3659  2.5758
   88MOL   H41837132   3.946   5.110   4.324 -0.4124 -2.1995  0.6100
   88MOL   H41937133   3.842   5.110   4.097  0.5744  0.6392 -1.4515
   88MOL   H42037134   3.991   5.060   4.030  0.7622  1.4233 -0.0876
   88MOL   H42137135   3.966   5.224   4.083  1.1983  0.5370  1.1851
   88MOL   H42237136   4.453   5.093   4.203  0.4597 -0.0710  0.4748
   89MOL     C137137   5.863   2.467   5.104 -0.7651  0.6541 -0.3751
   89MOL     C237138   5.959   2.358   5.156 -0.0686 -0.0870 -0.7375
   89MOL     C337139   6.022   2.399   5.286 -0.2622 -0.1951  0.0275
   89MOL     C437140   5.921   2.437   5.399  0.4931  0.4989  0.8058
   89MOL     C537141   5.817   2.322   5.432 -0.0838 -0.4431 -0.3238
   89MOL     C637142   5.736   2.346   5.561 -0.1431 -0.5260  1.0388
   89MOL     C737143   5.650   2.229   5.594  0.8214  0.4872 -0.4953
   89MOL     H837144   5.810   2.434   5.015  0.5894 -2.4641 -0.0970
   89MOL     H937145   5.912   2.556   5.064 -1.1602  0.7526 -0.6324
   89MOL    H1037146   5.902   2.265   5.156 -1.5056  0.7777 -0.4116
   89MOL    H1137147   6.084   2.320   5.328 -1.2336  0.4017  2.6842
   89MOL    H1237148   6.089   2.483   5.270 -0.4624  0.3136  1.7687
   89MOL    H1337149   5.985   2.461   5.484 -2.1788 -0.3833  3.1468
   89MOL    H1437150   5.873   2.531   5.373  0.6009  0.4866  0.5599
   89MOL    H1537151   5.878   2.233   5.448  0.3648 -0.0892 -0.0296
   89MOL    H1637152   5.746   2.303   5.352  0.4044 -0.8614 -0.6629
   89MOL    H1737153   5.663   2.425   5.547 -0.2663 -0.9820 -1.1452
   89MOL    H1837154   5.804   2.369   5.643 -1.2889  0.5077  1.7099
   89MOL    H1937155   5.592   2.186   5.512  0.7090  0.5616 -0.4546
   89MOL    H2037156   5.583   2.260   5.674  1.3148  0.6184 -0.1267
   89MOL    H2137157   5.706   2.143   5.630  0.1578 -0.1290 -0.9417
   89MOL    H2237158   5.785   2.495   5.175 -0.2550  0.9263  0.0856
   89MOL    C2337159   6.067   2.311   5.059 -0.2516  0.7936 -0.3362
   89MOL    C2437160   6.031   2.302   4.908 -0.2729  0.9987  0.0282
   89MOL    C2537161   5.932   2.182   4.890  0.1875  0.3025  0.0184
   89MOL    C2637162   5.899   2.152   4.740  0.2688  0.2497  0.5051
   89MOL    C2737163   5.798   2.043   4.735 -0.3158 -0.1564 -0.0821
   89MOL    C2837164   5.739   2.031   4.594  0.9167  0.0006 -0.5094
   89MOL    C2937165   5.842   1.968   4.490  0.6112 -0.1324 -0.3072
   89MOL    H3037166   6.157   2.373   5.067 -0.1089  0.4265  1.0806
   89MOL    H3137167   6.115   2.222   5.099 -0.1694 -0.4150 -2.9900
   89MOL    H3237168   5.969   2.388   4.880  0.7137  1.8071  0.2776
   89MOL    H3337169   5.835   2.197   4.936  0.1158 -1.5930  0.5556
   89MOL    H3437170   5.974   2.095   4.942 -0.8214  0.6266  1.4002
   89MOL    H3537171   5.987   2.124   4.681 -2.2698 -0.3888 -3.1897
   89MOL    H3637172   5.868   2.241   4.685  0.3194  0.0245  0.1049
   89MOL    H3737173   5.718   2.063   4.805 -1.6273  0.6759 -1.7780
   89MOL    H3837174   5.850   1.953   4.768  0.2261 -0.6734 -2.2678
   89MOL    H3937175   5.712   2.129   4.554  0.3097  0.6428  1.4045
   89MOL    H4037176   5.650   1.969   4.600  0.8913  0.1667  1.0005
   89MOL    H4137177   5.807   1.963   4.387 -2.3668 -1.1189  0.7184
   89MOL    H4237178   5.930   2.029   4.469  1.0815 -1.2667 -1.7576
   89MOL    H4337179   5.878   1.871   4.522 -1.3072 -0.4873  0.8398
   89MOL    C4437180   6.150   2.280   4.818  0.2467  0.5042 -0.2612
   89MOL    C4537181   6.261   2.385   4.818 -0.3736 -0.3387  0.3600
   89MOL    C4637182   6.355   2.354   4.705 -0.1542 -0.5754 -0.5077
   89MOL    C4737183   6.427   2.215   4.721  0.7005 -0.2018  0.5548
   89MOL    C4837184   6.548   2.202   4.630 -0.4154  0.2798 -0.3298
   89MOL    C4937185   6.614   2.068   4.636  0.6816 -0.1140 -0.3111
   89MOL    C5037186   6.695   2.038   4.763 -0.1720 -0.5065  0.5665
   89MOL    H5137187   6.131   2.260   4.713 -0.4248 -0.5332  0.0541
   89MOL    H5237188   6.198   2.187   4.849 -0.8151  0.6425  1.8565
   89MOL    H5337189   6.321   2.365   4.907 -0.3907  1.9692  0.9329
   89MOL    H5437190   6.433   2.430   4.716 -0.6177 -0.3087  1.1217
   89MOL    H5537191   6.324   2.365   4.602 -2.1147  1.4164  0.2545
   89MOL    H5637192   6.453   2.203   4.827 -1.2807 -1.3587  0.9411
   89MOL    H5737193   6.359   2.134   4.694  1.2472 -0.8522  1.0927
   89MOL    H5837194   6.627   2.273   4.655 -0.9713  0.4475  0.9569
   89MOL    H5937195   6.510   2.216   4.528 -0.4138 -1.1110 -0.5386
   89MOL    H6037196   6.682   2.057   4.552 -1.3070  0.1160 -1.9704
   89MOL    H6137197   6.556   1.978   4.620  0.7172 -0.5761  1.9594
   89MOL    H6237198   6.626   2.014   4.844 -1.1118 -1.5450 -0.5194
   89MOL    H6337199   6.761   2.118   4.795 -2.3700  0.8843  1.7121
   89MOL    H6437200   6.760   1.952   4.748  0.8163  0.0843  1.3895
   89MOL    C6537201   6.209   2.533   4.799 -0.2762  0.2778  0.4032
   89MOL    C6637202   6.316   2.649   4.802 -0.4594  0.0021 -0.0898
   89MOL    C6737203   6.410   2.637   4.928 -0.1367 -0.3314  0.4821
   89MOL    C6837204   6.343   2.646   5.066 -0.0656  0.4913 -0.4302
   89MOL    C6937205   6.442   2.623   5.183 -0.5983  0.2304  0.3316
   89MOL    C7037206   6.373   2.629   5.323  1.1839 -0.0527 -0.8567
   89MOL    C7137207   6.465   2.571   5.435  0.4081  0.2506  0.5399
   89MOL    H7237208   6.155   2.543   4.705  1.3148 -1.7207 -0.7569
   89MOL    H7337209   6.127   2.566   4.863 -0.2566  0.9897  0.0660
   89MOL    H7437210   6.379   2.633   4.715  3.0851 -3.4143  2.9139
   89MOL    H7537211   6.464   2.543   4.915  1.3754  0.6192 -0.4403
   89MOL    H7637212   6.494   2.705   4.913 -0.7641  0.3516  0.0674
   89MOL    H7737213   6.288   2.739   5.079  0.3038  0.6612 -0.0720
   89MOL    H7837214   6.276   2.561   5.057  0.2285 -0.0069  1.7923
   89MOL    H7937215   6.496   2.528   5.176  1.0124  1.2547 -1.7980
   89MOL    H8037216   6.515   2.704   5.181 -0.6082  0.2919  1.6963
   89MOL    H8137217   6.284   2.568   5.315  0.0545  1.6315 -1.5187
   89MOL    H8237218   6.337   2.729   5.348  0.8563 -0.7323  1.5513
   89MOL    H8337219   6.401   2.551   5.521 -0.3362 -1.8252 -0.4485
   89MOL    H8437220   6.502   2.472   5.407  0.8400  0.5015  0.2276
   89MOL    H8537221   6.548   2.638   5.457  0.5518  1.2521 -2.7508
   89MOL    C8637222   6.252   2.782   4.806  0.4856  0.9786  0.2559
   89MOL    C8737223   6.205   2.843   4.672 -0.3181 -0.3545 -0.4381
   89MOL    C8837224   6.074   2.927   4.703 -0.3677  0.3873  0.3841
   89MOL    C8937225   5.978   2.966   4.589  0.5130 -0.0134  0.1749
   89MOL    C9037226   5.966   3.114   4.577 -0.3955 -0.1365 -0.2685
   89MOL    C9137227   5.859   3.165   4.477 -0.1721 -0.8514 -0.1203
   89MOL    C9237228   5.847   3.317   4.475 -0.0972 -0.0789  0.0196
   89MOL    H9337229   6.173   2.788   4.881 -0.5375  0.3202 -0.7519
   89MOL    H9437230   6.327   2.854   4.839 -0.0734  1.6148  0.1620
   89MOL    H9537231   6.184   2.758   4.608 -0.8409  0.6874 -1.6824
   89MOL    H9637232   6.018   2.859   4.768  1.1386 -1.3842 -0.1221
   89MOL    H9737233   6.106   2.997   4.780 -2.0905 -0.0825  1.5501
   89MOL    H9837234   6.020   2.933   4.494 -0.6013  0.9424 -0.6670
   89MOL    H9937235   5.883   2.914   4.604  0.1266 -1.0250 -4.9404
   89MOL   H10037236   6.061   3.161   4.551  0.2907 -1.1455  0.3962
   89MOL   H10137237   5.945   3.152   4.677  0.5640 -1.2705  0.3805
   89MOL   H10237238   5.877   3.131   4.375 -1.7716  0.1587 -0.7546
   89MOL   H10337239   5.764   3.122   4.508 -0.2280  0.5525  1.7573
   89MOL   H10437240   5.793   3.347   4.565 -1.5705 -0.1966 -0.8033
   89MOL   H10537241   5.782   3.354   4.396 -1.0722 -2.2189 -0.2133
   89MOL   H10637242   5.937   3.379   4.469 -0.5314  0.6332  0.7336
   89MOL   C10737243   6.307   2.949   4.620 -0.1774 -0.6884 -0.0395
   89MOL   C10837244   6.438   2.893   4.549 -0.0117 -1.2262  0.4307
   89MOL   C10937245   6.409   2.813   4.414 -0.1570 -0.1073 -0.1547
   89MOL   C11037246   6.525   2.737   4.346 -0.4301  0.1740 -0.1996
   89MOL   C11137247   6.585   2.608   4.408 -0.4988 -0.1761 -1.3547
   89MOL   C11237248   6.658   2.526   4.294  0.6939  0.9961  0.6551
   89MOL   C11337249   6.728   2.409   4.365  0.2612  0.9866 -0.8996
   89MOL   H11437250   6.311   3.028   4.694 -1.2360  1.6252 -2.3957
   89MOL   H11537251   6.264   3.003   4.536 -2.6942 -2.8210 -0.1943
   89MOL   H11637252   6.494   2.831   4.619  1.6935  1.6035  1.6755
   89MOL   H11737253   6.356   2.890   4.358 -3.3931 -1.0425  1.5038
   89MOL   H11837254   6.334   2.739   4.439 -1.3637  0.6978 -1.3285
   89MOL   H11937255   6.488   2.717   4.245 -0.0816 -0.2684 -0.2420
   89MOL   H12037256   6.606   2.809   4.334 -0.1813 -0.2495 -1.1192
   89MOL   H12137257   6.495   2.554   4.438  0.1531 -1.0256 -0.9288
   89MOL   H12237258   6.635   2.630   4.502  1.7036 -2.6117 -1.9129
   89MOL   H12337259   6.587   2.493   4.217 -1.5231  2.7127  1.9102
   89MOL   H12437260   6.725   2.574   4.223 -0.1031  1.2282  0.0476
   89MOL   H12537261   6.817   2.435   4.421 -0.3947  1.1727  0.0726
   89MOL   H12637262   6.661   2.363   4.438  1.8215  0.2745  0.1038
   89MOL   H12737263   6.756   2.328   4.298  0.4961 -1.3056  1.8439
   89MOL   C12837264   6.544   3.010   4.530 -0.0834  0.2903  0.2070
   89MOL   C12937265   6.622   3.062   4.653  0.4917 -0.3344 -0.2548
   89MOL   C13037266   6.689   3.200   4.614 -0.1380 -0.2596  0.3533
   89MOL   C13137267   6.588   3.317   4.569 -0.5637  0.5177  0.4395
   89MOL   C13237268   6.471   3.347   4.658  0.2143  0.1477 -0.3587
   89MOL   C13337269   6.365   3.415   4.565  0.0822 -0.2872 -0.2063
   89MOL   C13437270   6.240   3.455   4.650  0.4426 -0.4629 -0.1925
   89MOL   H13537271   6.622   2.981   4.459 -1.3377  2.0502 -1.9521
   89MOL   H13637272   6.483   3.090   4.489  0.6037  2.8314  3.8686
   89MOL   H13737273   6.565   3.079   4.744  0.0919 -2.5965 -0.0592
   89MOL   H13837274   6.757   3.188   4.530 -0.8223  1.6216 -0.4936
   89MOL   H13937275   6.759   3.237   4.688  1.8194  0.9524 -2.0043
   89MOL   H14037276   6.562   3.302   4.464  2.9507  0.2500 -0.4530
   89MOL   H14137277   6.637   3.414   4.560 -1.0652  0.6927 -0.4514
   89MOL   H14237278   6.499   3.408   4.744  0.3153  0.8145 -0.8595
   89MOL   H14337279   6.435   3.251   4.692  1.6291 -0.4103 -0.3860
   89MOL   H14437280   6.334   3.345   4.488  0.7193 -0.9721  0.1616
   89MOL   H14537281   6.420   3.498   4.521  1.8995  0.3752  3.1328
   89MOL   H14637282   6.158   3.448   4.579  1.7344  1.7771 -1.9550
   89MOL   H14737283   6.224   3.549   4.703 -1.2014  0.3530 -2.0973
   89MOL   H14837284   6.233   3.378   4.727 -2.9936  1.5789  1.6622
   89MOL   C14937285   6.719   2.959   4.699 -0.0546 -0.2628  0.4365
   89MOL   C15037286   6.810   2.991   4.830  0.1487 -0.5560  0.3179
   89MOL   C15137287   6.951   2.926   4.823 -0.5116  0.2104  0.3462
   89MOL   C15237288   6.954   2.773   4.836 -0.3468  0.4534  0.3447
   89MOL   C15337289   7.104   2.729   4.823  0.1379 -0.3348  0.7125
   89MOL   C15437290   7.143   2.712   4.674 -0.0662  0.3830  0.2941
   89MOL   C15537291   7.281   2.657   4.670 -0.1493  0.0636 -0.1925
   89MOL   H15637292   6.683   2.858   4.716  0.2525 -0.1937  1.5124
   89MOL   H15737293   6.776   2.947   4.607 -0.4441 -0.0451  0.1660
   89MOL   H15837294   6.824   3.099   4.820  0.8701 -0.6809 -0.0049
   89MOL   H15937295   6.998   2.965   4.733 -0.8050 -0.0442  0.0817
   89MOL   H16037296   7.010   2.969   4.904 -0.6982 -0.3705  0.7885
   89MOL   H16137297   6.886   2.718   4.771  0.2574  3.2314 -2.7221
   89MOL   H16237298   6.922   2.740   4.935  1.2688  0.6129  0.9329
   89MOL   H16337299   7.132   2.631   4.860  1.4707  0.5580  2.1490
   89MOL   H16437300   7.165   2.799   4.880  2.2237 -0.7329 -0.9545
   89MOL   H16537301   7.141   2.807   4.621 -0.4236  0.4572  0.4411
   89MOL   H16637302   7.079   2.634   4.632 -0.9624  0.6525  1.1516
   89MOL   H16737303   7.315   2.648   4.567  0.8865 -0.6658  0.2060
   89MOL   H16837304   7.302   2.569   4.730  1.2790  0.2023 -0.4839
   89MOL   H16937305   7.360   2.723   4.706 -0.5654  0.5217 -0.1048
   89MOL   C17037306   6.754   2.953   4.970  0.0982  0.2554 -0.2563
   89MOL   C17137307   6.673   3.068   5.036  0.0672 -0.1102  0.3899
   89MOL   C17237308   6.523   3.035   5.056 -0.2287  0.3428 -1.1088
   89MOL   C17337309   6.421   3.162   5.063  0.2646  0.5493 -0.0688
   89MOL   C17437310   6.275   3.120   5.067  0.4135 -0.2021  0.1875
   89MOL   C17537311   6.174   3.239   5.096  0.2771 -0.1416 -0.1057
   89MOL   C17637312   6.053   3.239   5.010  0.2451 -0.3692  0.0041
   89MOL   H17737313   6.836   2.922   5.035 -0.2826  1.0933  0.6336
   89MOL   H17837314   6.689   2.865   4.978  0.2425  0.2200  0.5812
   89MOL   H17937315   6.680   3.163   4.982 -0.8568 -1.8715 -3.0058
   89MOL   H18037316   6.514   2.974   5.146  0.2781  1.9150  0.0377
   89MOL   H18137317   6.499   2.986   4.962 -0.8135 -2.7571  0.5915
   89MOL   H18237318   6.439   3.236   4.985  2.8154 -1.1843 -1.1929
   89MOL   H18337319   6.435   3.226   5.150 -0.3614 -0.7463  1.0123
   89MOL   H18437320   6.262   3.046   5.146  3.4409 -2.1606 -1.0249
   89MOL   H18537321   6.248   3.075   4.971  1.5203  0.0440 -0.2510
   89MOL   H18637322   6.223   3.335   5.080  0.1849  0.1630  1.4557
   89MOL   H18737323   6.141   3.247   5.199  1.1675 -3.7786  0.5136
   89MOL   H18837324   6.073   3.217   4.905 -1.2749 -2.5014  0.1200
   89MOL   H18937325   5.996   3.332   5.007 -0.4004 -0.6039  3.1118
   89MOL   H19037326   5.973   3.175   5.048  0.9658 -0.9050  0.6189
   89MOL   C19137327   6.732   3.094   5.175  0.0844 -0.0505  0.2743
   89MOL   C19237328   6.865   3.173   5.185  0.2528  0.1201 -0.2867
   89MOL   C19337329   6.837   3.316   5.157  0.1331 -0.2352 -0.2445
   89MOL   C19437330   6.900   3.373   5.031  0.0207  0.6674 -0.2571
   89MOL   C19537331   6.855   3.506   5.000  0.3840 -0.9318  0.3690
   89MOL   C19637332   6.932   3.573   4.885  0.1046 -0.3844 -0.5587
   89MOL   C19737333   6.925   3.487   4.755 -0.2275 -0.9275  0.3310
   89MOL   H19837334   6.741   3.001   5.231 -3.3554 -0.4578  0.3053
   89MOL   H19937335   6.661   3.146   5.240 -1.4798 -1.8934  0.0943
   89MOL   H20037336   6.938   3.130   5.116 -0.1790  0.3704 -0.8989
   89MOL   H20137337   6.870   3.371   5.246 -0.5396 -1.5564  0.8495
   89MOL   H20237338   6.731   3.337   5.163  0.2217  0.8413 -2.1754
   89MOL   H20337339   6.872   3.305   4.951 -0.2709  0.0685  0.3536
   89MOL   H20437340   7.009   3.369   5.029  0.0074 -1.0404  1.5528
   89MOL   H20537341   6.749   3.511   4.976  0.4833  0.1806  0.1446
   89MOL   H20637342   6.861   3.565   5.091  1.0041 -1.6655  0.8144
   89MOL   H20737343   7.039   3.581   4.903  0.0145 -2.3059  0.9518
   89MOL   H20837344   6.902   3.675   4.859  1.6199  0.1653 -0.1780
   89MOL   H20937345   6.818   3.473   4.736 -0.2391  0.6142 -0.9075
   89MOL   H21037346   6.991   3.403   4.732  0.2718 -0.6917  0.9066
   89MOL   H21137347   6.967   3.544   4.672  0.0579 -2.4445 -0.5920
   89MOL   C21237348   6.933   3.156   5.320 -0.7540  0.2783 -0.3099
   89MOL   C21337349   7.078   3.208   5.340 -0.2570  0.0261  0.0929
   89MOL   C21437350   7.094   3.262   5.485 -0.0899  0.3436 -0.4401
   89MOL   C21537351   7.078   3.157   5.593  0.2498 -0.0569  0.7048
   89MOL   C21637352   7.091   3.194   5.743 -0.6977 -0.0600  0.8374
   89MOL   C21737353   7.024   3.330   5.772  0.0385  0.0647  0.1166
   89MOL   C21837354   6.871   3.334   5.748 -0.3623  0.4811  0.3470
   89MOL   H21937355   6.926   3.052   5.352 -3.5247  0.7437  0.7432
   89MOL   H22037356   6.869   3.200   5.397  0.3406  1.0473  0.1665
   89MOL   H22137357   7.098   3.299   5.284 -0.6215 -0.2286 -0.4540
   89MOL   H22237358   7.194   3.307   5.485 -0.3593  0.9499 -1.6683
   89MOL   H22337359   7.031   3.350   5.496 -0.8313 -0.3431  1.0214
   89MOL   H22437360   7.143   3.073   5.570 -0.4143  0.2431 -2.6153
   89MOL   H22537361   6.975   3.123   5.584  0.4724 -0.4309 -0.6450
   89MOL   H22637362   7.065   3.114   5.812  0.6633 -0.1973  1.1984
   89MOL   H22737363   7.198   3.207   5.753 -0.5899  1.3602 -1.7578
   89MOL   H22837364   7.040   3.363   5.875  1.9176  0.9804 -0.4401
   89MOL   H22937365   7.072   3.407   5.711 -2.9600  1.5045 -0.5518
   89MOL   H23037366   6.829   3.424   5.794 -1.4300 -1.1046  2.5616
   89MOL   H23137367   6.834   3.252   5.809  0.6499 -0.6562 -0.5481
   89MOL   H23237368   6.839   3.326   5.645  0.7803 -1.7402  0.1429
   89MOL   C23337369   7.197   3.111   5.305  0.0193 -0.4259 -0.0437
   89MOL   C23437370   7.205   3.063   5.166 -0.9309 -0.6622  0.9043
   89MOL   C23537371   7.258   3.174   5.074 -0.2023 -0.7882 -0.2414
   89MOL   C23637372   7.261   3.135   4.926 -0.0931 -0.7535 -0.0910
   89MOL   C23737373   7.284   3.254   4.830 -0.6434  0.0859 -0.6738
   89MOL   C23837374   7.263   3.229   4.677  0.0003  0.2702  0.0351
   89MOL   C23937375   7.348   3.333   4.589  0.0978  0.2224 -0.4806
   89MOL   H24037376   7.174   3.023   5.364 -0.6883 -1.1213 -1.3273
   89MOL   H24137377   7.296   3.149   5.329 -0.4862  1.8727 -1.4530
   89MOL   H24237378   7.110   3.036   5.120 -0.1811 -0.5039 -0.7535
   89MOL   H24337379   7.352   3.207   5.118 -1.1094 -0.2856  1.3414
   89MOL   H24437380   7.187   3.256   5.083  0.1684 -0.3182 -1.4247
   89MOL   H24537381   7.169   3.089   4.889  0.7722 -1.4437 -1.4463
   89MOL   H24637382   7.341   3.062   4.910  0.2560 -0.4206  0.1395
   89MOL   H24737383   7.386   3.287   4.845 -0.2292 -2.1635  1.6594
   89MOL   H24837384   7.220   3.335   4.866  1.6211  1.4750  0.3162
   89MOL   H24937385   7.285   3.125   4.655 -3.3291 -0.3363 -0.6438
   89MOL   H25037386   7.159   3.233   4.645 -0.1414  1.2299  0.5946
   89MOL   H25137387   7.333   3.428   4.639 -1.2189 -1.5141  2.5507
   89MOL   H25237388   7.456   3.315   4.585 -0.6127 -4.8502 -0.4474
   89MOL   H25337389   7.322   3.324   4.483  1.1484 -1.1489 -0.6531
   89MOL   C25437390   7.293   2.932   5.162 -0.1228  0.1470  0.5134
   89MOL   C25537391   7.258   2.800   5.239  0.1025 -0.5069  0.9998
   89MOL   C25637392   7.374   2.697   5.217  0.1225  0.1749  0.4307
   89MOL   C25737393   7.380   2.631   5.089 -0.2358 -0.5395  0.0970
   89MOL   C25837394   7.514   2.561   5.067 -0.5834 -0.2287  0.2344
   89MOL   C25937395   7.551   2.441   5.158 -0.1333  0.7048 -0.4211
   89MOL   C26037396   7.696   2.405   5.120 -0.1642  0.1761  0.1220
   89MOL   H26137397   7.393   2.957   5.199  0.4186  0.8147 -1.3561
   89MOL   H26237398   7.312   2.915   5.056 -1.5362 -0.2293  0.3059
   89MOL   H26337399   7.256   2.827   5.344 -0.4065 -0.5286  0.9988
   89MOL   H26437400   7.375   2.626   5.299 -2.9343 -2.5100 -1.7163
   89MOL   H26537401   7.467   2.753   5.215  1.1081 -1.4406 -1.1241
   89MOL   H26637402   7.305   2.553   5.099  0.6313 -1.4788 -0.6134
   89MOL   H26737403   7.374   2.696   5.002  2.0755  0.1708  0.4196
   89MOL   H26837404   7.593   2.635   5.055 -0.2550 -0.5016  0.6984
   89MOL   H26937405   7.516   2.536   4.961 -0.8184 -0.5887  0.3118
   89MOL   H27037406   7.566   2.461   5.264 -2.4789  0.6366 -0.0557
   89MOL   H27137407   7.486   2.354   5.161  0.7459  0.0064 -1.0677
   89MOL   H27237408   7.685   2.363   5.020 -2.6121  1.3794 -0.1419
   89MOL   H27337409   0.056   2.486   5.125  0.1334 -0.1195  0.5350
   89MOL   H27437410   0.017   2.324   5.184  0.6656  0.6693  0.3201
   89MOL   C27537411   7.114   2.755   5.203 -0.9444 -0.8281  0.1936
   89MOL   C27637412   7.072   2.621   5.277  0.0393  0.1140 -0.2103
   89MOL   C27737413   6.931   2.583   5.221 -0.8290 -0.5731 -0.6494
   89MOL   C27837414   6.943   2.496   5.094 -0.0749 -0.2659 -0.8199
   89MOL   C27937415   6.800   2.485   5.023 -0.1580 -0.1875  0.7494
   89MOL   C28037416   6.788   2.373   4.916 -1.1271 -0.6503 -0.1167
   89MOL   C28137417   6.896   2.392   4.809  0.0259 -0.5616 -0.2506
   89MOL   H28237418   7.115   2.744   5.095  1.9894  1.2703 -0.0762
   89MOL   H28337419   7.047   2.840   5.219 -0.8784 -0.7933  0.2932
   89MOL   H28437420   7.147   2.543   5.262 -0.2395 -0.4413  1.1962
   89MOL   H28537421   6.869   2.531   5.295 -2.9223 -0.4778 -2.2868
   89MOL   H28637422   6.871   2.673   5.212 -1.9340 -1.2327 -0.0104
   89MOL   H28737423   6.970   2.398   5.132  0.0750 -0.1603 -0.6526
   89MOL   H28837424   7.013   2.541   5.023 -0.5056 -1.1061 -1.7838
   89MOL   H28937425   6.787   2.585   4.981  1.8405  0.0424  0.6623
   89MOL   H29037426   6.724   2.454   5.095 -0.6127 -1.4512 -0.2461
   89MOL   H29137427   6.777   2.267   4.940  0.9261 -0.4812  1.7087
   89MOL   H29237428   6.697   2.395   4.861 -1.3438  0.0448  0.5205
   89MOL   H29337429   6.999   2.371   4.837  0.0411  0.7792  0.7839
   89MOL   H29437430   6.909   2.494   4.771  1.4129 -0.5030  0.3488
   89MOL   H29537431   6.877   2.328   4.724 -0.6572 -1.7019  0.7581
   89MOL   C29637432   7.067   2.627   5.431  0.1789  0.1308 -0.0134
   89MOL   C29737433   7.066   2.494   5.508 -0.0966 -0.2734 -0.4654
   89MOL   C29837434   7.032   2.529   5.653  0.5285 -0.1739 -0.8742
   89MOL   C29937435   6.999   2.415   5.752  0.0351 -0.2269  0.4214
   89MOL   C30037436   6.965   2.462   5.898  0.2418  0.2331 -0.1740
   89MOL   C30137437   6.823   2.515   5.903  0.5452 -0.1434 -0.5150
   89MOL   C30237438   6.783   2.560   6.047  0.8480  0.1608  0.8921
   89MOL   H30337439   7.153   2.691   5.451 -0.9052  1.4539  0.4813
   89MOL   H30437440   6.977   2.680   5.462 -0.0544  1.2732 -2.4402
   89MOL   H30537441   6.978   2.438   5.476  0.4367 -0.5086 -1.5595
   89MOL   H30637442   7.121   2.578   5.692 -1.1382  1.6761  0.6911
   89MOL   H30737443   6.947   2.597   5.653 -0.7559 -1.7366 -1.3376
   89MOL   H30837444   7.088   2.353   5.760 -0.1429 -0.4138  0.9539
   89MOL   H30937445   6.919   2.355   5.709  0.2286 -1.6289  1.9711
   89MOL   H31037446   7.033   2.543   5.926  0.1366 -0.0787  1.0359
   89MOL   H31137447   6.980   2.388   5.977 -3.2641 -0.0995  0.2577
   89MOL   H31237448   6.823   2.606   5.844 -1.5937  0.6270  0.6324
   89MOL   H31337449   6.744   2.447   5.870  0.3556 -0.2434  0.1260
   89MOL   H31437450   6.875   2.587   6.098  1.5454 -0.3174 -0.1084
   89MOL   H31537451   6.708   2.640   6.050 -1.1986 -1.6120 -0.9401
   89MOL   H31637452   6.741   2.476   6.103 -2.2403  1.5858  0.8144
   89MOL   C31737453   7.191   2.405   5.498  0.4233  0.2408 -0.0664
   89MOL   C31837454   7.158   2.286   5.401 -0.5217 -0.6526  0.2858
   89MOL   C31937455   7.278   2.229   5.326 -0.4908 -0.3878 -0.9763
   89MOL   C32037456   7.382   2.180   5.431 -0.0052  0.3745 -0.0363
   89MOL   C32137457   7.512   2.129   5.361  0.2475  0.1016 -0.1279
   89MOL   C32237458   7.588   2.031   5.451 -0.6531  0.5829  0.2127
   89MOL   C32337459   0.013   1.989   5.398  0.1645 -0.3277  0.2356
   89MOL   H32437460   7.233   2.373   5.593 -0.2189 -1.3846 -0.3278
   89MOL   H32537461   7.262   2.479   5.460 -1.5676  2.4513  0.3645
   89MOL   H32637462   7.081   2.309   5.327 -1.6871 -2.0943  1.0354
   89MOL   H32737463   7.316   2.313   5.269 -0.1434  0.6099  0.6982
   89MOL   H32837464   7.247   2.159   5.248 -0.5603 -0.3543 -0.9783
   89MOL   H32937465   7.332   2.095   5.476  0.4895 -0.5847 -1.2736
   89MOL   H33037466   7.402   2.253   5.509 -1.2727  0.1078  0.5557
   89MOL   H33137467   7.574   2.215   5.335 -1.2766  0.7866 -1.6550
   89MOL   H33237468   7.484   2.077   5.269 -2.7937 -0.9111  1.3164
   89MOL   H33337469   7.524   1.943   5.450  0.4852 -0.2526 -1.0825
   89MOL   H33437470   7.596   2.080   5.548  2.2097 -0.0224  0.3224
   89MOL   H33537471   0.088   2.068   5.396 -0.6215  0.4343  0.3960
   89MOL   H33637472   7.711   1.943   5.300  1.4498 -1.1536  0.4077
   89MOL   H33737473   0.060   1.917   5.464  1.1304 -0.3541 -0.4821
   89MOL   C33837474   7.075   2.176   5.479 -0.0860 -0.2316 -0.4308
   89MOL   C33937475   7.038   2.046   5.398  0.0976  0.7906 -0.5129
   89MOL   C34037476   6.937   2.075   5.279  0.4019 -0.3686  0.1211
   89MOL   C34137477   6.802   2.136   5.320  0.1804 -0.0103 -0.0499
   89MOL   C34237478   6.696   2.125   5.207 -0.2604  0.0325  0.7868
   89MOL   C34337479   6.578   2.216   5.234  0.4252 -0.1168  0.6068
   89MOL   C34437480   6.478   2.237   5.126 -0.3500  0.3971  0.3970
   89MOL   H34537481   6.988   2.229   5.518  1.0940  1.1394  0.3653
   89MOL   H34637482   7.126   2.137   5.567  0.7206  3.5957  0.8512
   89MOL   H34737483   7.120   1.989   5.354 -1.5953  0.1187 -2.8592
   89MOL   H34837484   6.974   2.147   5.205 -0.9347  0.1617 -0.0441
   89MOL   H34937485   6.918   1.988   5.217 -1.6479  0.8643 -1.0395
   89MOL   H35037486   6.819   2.243   5.338 -1.5835  0.1970  0.4773
   89MOL   H35137487   6.752   2.088   5.404  0.0916 -0.6201 -0.4479
   89MOL   H35237488   6.749   2.151   5.115  0.0966 -2.0163  0.3885
   89MOL   H35337489   6.660   2.023   5.195 -0.2800  0.1125  0.0994
   89MOL   H35437490   6.517   2.185   5.319  0.1144  3.3338  1.6803
   89MOL   H35537491   6.616   2.314   5.259 -0.2645  0.4289 -0.4283
   89MOL   H35637492   6.523   2.305   5.053  0.4244  1.2569  1.6570
   89MOL   H35737493   6.388   2.290   5.158 -1.0596  0.8648 -2.2428
   89MOL   H35837494   6.457   2.137   5.088 -2.1987  0.1611  1.9520
   89MOL   C35937495   6.999   1.936   5.497  0.2055 -0.6020  0.0578
   89MOL   C36037496   6.988   1.788   5.444 -0.4090  0.6192 -0.2818
   89MOL   C36137497   7.124   1.709   5.468 -0.1526  0.1671 -0.1943
   89MOL   C36237498   7.146   1.601   5.354  1.0024 -0.1143  0.2690
   89MOL   C36337499   7.194   1.645   5.211  0.1435 -0.5365  0.4814
   89MOL   C36437500   7.313   1.744   5.198  0.2611  0.2983 -0.0995
   89MOL   C36537501   7.314   1.824   5.063 -0.5668 -0.3931 -0.4948
   89MOL   H36637502   6.912   1.968   5.555 -0.3222  0.1153 -1.1259
   89MOL   H36737503   7.082   1.930   5.568  1.2436 -1.3017 -1.1732
   89MOL   H36837504   6.998   1.791   5.336  1.8043  0.4916 -0.1097
   89MOL   H36937505   7.208   1.775   5.487  1.5289 -2.2825  1.2561
   89MOL   H37037506   7.113   1.649   5.558  0.5633 -1.8596 -1.4142
   89MOL   H37137507   7.205   1.519   5.395  3.3164  2.8774  3.1264
   89MOL   H37237508   7.056   1.544   5.330  2.3383 -2.4906  0.7329
   89MOL   H37337509   7.209   1.549   5.162 -1.4140  0.9167 -2.9985
   89MOL   H37437510   7.121   1.701   5.154 -0.5735  0.0794  1.9744
   89MOL   H37537511   7.288   1.816   5.276 -2.2797 -1.5886  0.9393
   89MOL   H37637512   7.410   1.701   5.222 -0.0756 -0.4114  0.0256
   89MOL   H37737513   7.407   1.875   5.037 -0.3295 -1.4474 -1.7573
   89MOL   H37837514   7.297   1.755   4.980 -1.9939  1.4285 -1.7757
   89MOL   H37937515   7.226   1.888   5.067 -0.0459  0.2435  1.0659
   89MOL   C38037516   6.867   1.709   5.494 -0.2645  0.1216 -0.1098
   89MOL   C38137517   6.733   1.742   5.433  0.2200 -0.9856  0.5249
   89MOL   C38237518   6.679   1.661   5.316  0.3068 -1.1594 -0.2386
   89MOL   C38337519   6.774   1.652   5.199  0.0459 -0.5164  0.1701
   89MOL   C38437520   6.705   1.598   5.072  0.0322 -0.2498 -0.8025
   89MOL   C38537521   6.807   1.551   4.965 -0.3606  0.2854  0.0204
   89MOL   C38637522   6.729   1.495   4.853 -0.0136 -0.0170  0.0785
   89MOL   H38737523   6.884   1.602   5.482 -3.2872 -0.1463 -2.6041
   89MOL   H38837524   6.869   1.717   5.603  0.0938  0.1508 -0.1172
   89MOL   H38937525   6.746   1.843   5.395 -1.7918 -1.0277 -0.3001
   89MOL   H39037526   6.589   1.709   5.280  0.0787 -1.1196  0.3766
   89MOL   H39137527   6.647   1.562   5.349 -0.9745 -0.0512  1.9203
   89MOL   H39237528   6.809   1.751   5.170 -0.8258 -0.4907 -0.8159
   89MOL   H39337529   6.870   1.605   5.221  1.6677  1.5756 -2.1208
   89MOL   H39437530   6.628   1.526   5.097 -0.4010  0.0765 -1.1971
   89MOL   H39537531   6.639   1.666   5.018  0.4127 -1.9418 -3.5156
   89MOL   H39637532   6.879   1.478   5.004  0.3796  0.0357 -1.7577
   89MOL   H39737533   6.879   1.626   4.934 -0.2538  0.4078  0.5558
   89MOL   H39837534   6.776   1.420   4.790 -2.3451  0.7718 -2.7382
   89MOL   H39937535   6.721   1.576   4.780  0.3530 -1.2400 -1.3559
   89MOL   H40037536   6.627   1.462   4.875 -0.3671 -1.0412 -2.8445
   89MOL   C40137537   6.627   1.773   5.545  0.6119 -0.1096 -0.2043
   89MOL   C40237538   6.502   1.850   5.492 -0.1176  0.1560 -0.2617
   89MOL   C40337539   6.401   1.905   5.592  1.0005 -0.1741 -0.4854
   89MOL   C40437540   6.314   2.029   5.548  0.0346  0.3296  0.3556
   89MOL   C40537541   6.237   2.101   5.663  0.4663 -0.3537  0.4255
   89MOL   C40637542   6.158   2.219   5.606 -0.5920  0.0392  0.2515
   89MOL   C40737543   6.073   2.287   5.712 -0.1575  0.0261 -0.6655
   89MOL   H40837544   6.678   1.837   5.618  1.4913 -2.1644  1.0241
   89MOL   H40937545   6.591   1.687   5.602 -2.1822 -0.0925 -1.8589
   89MOL   H41037546   6.446   1.787   5.423  1.8800 -0.0445 -1.7662
   89MOL   H41137547   6.465   1.932   5.676  1.7473  0.0652 -1.1377
   89MOL   H41237548   6.336   1.827   5.632 -1.1982  0.3817 -2.8184
   89MOL   H41337549   6.255   2.014   5.458  0.8138  0.1127 -0.1248
   89MOL   H41437550   6.386   2.101   5.510  0.4185 -0.4841 -0.4768
   89MOL   H41537551   6.164   2.031   5.702  0.4963 -0.3860  0.4229
   89MOL   H41637552   6.306   2.127   5.743 -1.1746  3.0237  0.8420
   89MOL   H41737553   6.232   2.294   5.580 -0.5710 -0.6204 -1.6335
   89MOL   H41837554   6.096   2.182   5.524 -1.9746 -1.5653  1.9588
   89MOL   H41937555   6.123   2.304   5.807  0.8146  0.2642 -1.2105
   89MOL   H42037556   5.980   2.233   5.732  1.5835 -2.2795  1.5271
   89MOL   H42137557   6.036   2.383   5.676 -1.4873  0.1966  1.0601
   89MOL   H42237558   6.542   1.934   5.435 -0.1059  0.2512 -0.1143
   90MOL     C137559   5.343   3.023   6.701  0.5746  0.5818 -0.6767
   90MOL     C237560   5.455   2.914   6.705 -0.3150  0.2754  0.7110
   90MOL     C337561   5.528   2.908   6.566 -0.2842  0.9299  0.1399
   90MOL     C437562   5.657   2.987   6.564 -0.0565  0.5444  0.0563
   90MOL     C537563   5.640   3.136   6.610  0.0039  0.4315 -0.7526
   90MOL     C637564   5.775   3.208   6.607 -0.2597 -0.4384  0.5486
   90MOL     C737565   5.768   3.360   6.632  0.4161  0.3530 -0.1926
   90MOL     H837566   5.293   3.018   6.797  0.5756  0.6319 -0.6748
   90MOL     H937567   5.280   3.013   6.612  0.9206  0.2925 -0.8953
   90MOL    H1037568   5.524   2.946   6.782 -0.9230  1.3491  0.8176
   90MOL    H1137569   5.540   2.804   6.534 -0.4195  0.6817  0.8913
   90MOL    H1237570   5.468   2.954   6.488 -1.6065 -0.4640  0.3071
   90MOL    H1337571   5.731   2.943   6.631  0.1798 -0.5394 -0.8991
   90MOL    H1437572   5.705   2.988   6.467 -0.1365 -3.2718 -0.1153
   90MOL    H1537573   5.594   3.141   6.708  1.8611 -0.8624  0.2114
   90MOL    H1637574   5.561   3.182   6.551 -1.2531 -1.6487 -0.7218
   90MOL    H1737575   5.811   3.188   6.506 -1.3356 -3.7706  0.7592
   90MOL    H1837576   5.841   3.167   6.684 -0.0049  0.6585  0.9237
   90MOL    H1937577   5.713   3.422   6.562 -0.8927  0.9458  1.3365
   90MOL    H2037578   5.870   3.398   6.631  0.7343 -0.4260  0.7317
   90MOL    H2137579   5.722   3.364   6.731 -1.7094  1.4608 -1.2222
   90MOL    H2237580   5.393   3.119   6.696  0.4933  0.5629 -2.2364
   90MOL    C2337581   5.396   2.773   6.731  0.3554  0.5724 -0.2519
   90MOL    C2437582   5.461   2.689   6.840 -0.5965 -0.6678 -0.7039
   90MOL    C2537583   5.590   2.610   6.805 -0.3030 -0.9874 -0.9031
   90MOL    C2637584   5.562   2.493   6.702  0.2983  0.7788  0.2731
   90MOL    C2737585   5.666   2.387   6.689 -0.0596 -0.0992  0.2473
   90MOL    C2837586   5.648   2.303   6.562 -0.2322  0.3447  0.3675
   90MOL    C2937587   5.786   2.225   6.538 -0.1466  0.6692  0.0284
   90MOL    H3037588   5.293   2.786   6.765  0.3782  2.4519 -0.8788
   90MOL    H3137589   5.388   2.723   6.634 -0.3696 -0.0402  0.1103
   90MOL    H3237590   5.484   2.760   6.920  0.1364 -0.0290 -1.4651
   90MOL    H3337591   5.632   2.572   6.898  1.6068  1.2754 -0.8187
   90MOL    H3437592   5.660   2.680   6.758 -0.4894 -0.4015 -0.3076
   90MOL    H3537593   5.573   2.545   6.606  0.3960  0.7724  0.2802
   90MOL    H3637594   5.458   2.462   6.708  0.5650 -0.8918 -2.7062
   90MOL    H3737595   5.674   2.324   6.778  1.4190  1.5952  1.3532
   90MOL    H3837596   5.761   2.440   6.685 -0.4842  0.6700  0.3179
   90MOL    H3937597   5.633   2.357   6.468 -2.2256  0.4240  0.7064
   90MOL    H4037598   5.572   2.226   6.577  0.1672  0.0482  0.8914
   90MOL    H4137599   5.873   2.289   6.526 -0.2335  0.6420 -0.7588
   90MOL    H4237600   5.802   2.161   6.625 -1.3219  0.0913 -0.1699
   90MOL    H4337601   5.774   2.172   6.444  1.7198 -1.7180  1.0538
   90MOL    C4437602   5.362   2.594   6.917 -0.5072 -0.2926  0.2049
   90MOL    C4537603   5.270   2.657   7.031  0.3151 -0.5391 -0.3268
   90MOL    C4637604   5.144   2.572   7.063 -0.6368  0.1128 -0.6259
   90MOL    C4737605   5.041   2.563   6.946 -0.2434  0.7057 -0.1021
   90MOL    C4837606   4.944   2.444   6.968  0.4357  0.1087 -0.0466
   90MOL    C4937607   4.825   2.453   6.872  0.1530  0.4990 -0.3999
   90MOL    C5037608   4.712   2.354   6.911 -0.1289 -0.3026  0.2792
   90MOL    H5137609   5.411   2.512   6.969 -1.1251 -0.3045  0.7693
   90MOL    H5237610   5.301   2.541   6.843 -1.4797  0.8341  0.1908
   90MOL    H5337611   5.230   2.750   6.989 -1.0094 -0.6086  0.7230
   90MOL    H5437612   5.097   2.605   7.155  2.3008  0.3467  0.8279
   90MOL    H5537613   5.185   2.471   7.069  1.9324  0.9333 -3.1865
   90MOL    H5637614   4.994   2.660   6.932 -1.4831  0.2423  0.7518
   90MOL    H5737615   5.087   2.535   6.851 -1.2149  0.7343 -0.5862
   90MOL    H5837616   4.904   2.446   7.069 -0.0145 -0.1002 -0.2182
   90MOL    H5937617   4.998   2.350   6.962 -0.3116 -0.3364  0.1478
   90MOL    H6037618   4.866   2.433   6.772 -3.5335 -2.3898 -1.4613
   90MOL    H6137619   4.781   2.551   6.885 -0.0352  0.3495  0.1027
   90MOL    H6237620   4.631   2.347   6.838 -0.4833 -0.3642  0.6768
   90MOL    H6337621   4.670   2.372   7.010  0.2578  1.7145  0.1053
   90MOL    H6437622   4.744   2.250   6.922 -0.3612 -0.3995  0.0421
   90MOL    C6537623   5.353   2.678   7.160  0.1633  0.7191 -0.2665
   90MOL    C6637624   5.285   2.789   7.247  0.3245  0.7438  0.5171
   90MOL    C6737625   5.374   2.912   7.250 -0.0237 -0.5555 -0.6344
   90MOL    C6837626   5.374   2.998   7.122 -0.1474 -0.1499 -0.6900
   90MOL    C6937627   5.438   3.136   7.147  0.4279 -0.4366  0.0744
   90MOL    C7037628   5.484   3.206   7.025 -0.3046 -0.1754 -0.1201
   90MOL    C7137629   5.557   3.333   7.073  0.1265 -0.0801  0.2969
   90MOL    H7237630   5.349   2.580   7.208 -2.5139  1.5441  1.3027
   90MOL    H7337631   5.459   2.698   7.144 -0.1844  1.7285 -1.4467
   90MOL    H7437632   5.193   2.804   7.190 -0.0354 -1.3143  0.5289
   90MOL    H7537633   5.331   2.975   7.327  0.9860 -0.9840  0.3001
   90MOL    H7637634   5.479   2.887   7.269 -0.2649  0.1312  1.7419
   90MOL    H7737635   5.440   2.941   7.056 -0.7707 -0.7876 -0.7700
   90MOL    H7837636   5.274   3.001   7.078 -0.2125 -0.9788 -0.6137
   90MOL    H7937637   5.372   3.191   7.215 -2.6172 -0.4746 -2.7042
   90MOL    H8037638   5.527   3.104   7.201  0.1951 -1.3910 -0.0853
   90MOL    H8137639   5.398   3.219   6.960 -0.1368  0.7884 -0.1521
   90MOL    H8237640   5.544   3.141   6.962 -3.9601 -2.1319 -1.7460
   90MOL    H8337641   5.637   3.307   7.142 -1.1259 -1.4566  1.2646
   90MOL    H8437642   5.587   3.395   6.989  0.2460  2.2917  2.0461
   90MOL    H8537643   5.485   3.394   7.128 -0.4200 -0.8300  0.4255
   90MOL    C8637644   5.257   2.736   7.389 -0.2356 -0.1516 -0.1387
   90MOL    C8737645   5.177   2.830   7.480  0.1555 -0.6876  0.2379
   90MOL    C8837646   5.026   2.845   7.430  0.0699  0.0492  0.0876
   90MOL    C8937647   5.007   2.978   7.358  0.6864  0.5983  0.3680
   90MOL    C9037648   4.859   2.995   7.305 -0.0397  0.0874 -0.8781
   90MOL    C9137649   4.827   2.905   7.189  0.0908 -0.2565 -0.0495
   90MOL    C9237650   4.867   2.970   7.054 -0.2191 -0.1392 -0.0766
   90MOL    H9337651   5.212   2.637   7.381  1.2079 -0.8807  0.6910
   90MOL    H9437652   5.355   2.714   7.429 -1.1103 -3.3394  0.3804
   90MOL    H9537653   5.219   2.930   7.480 -2.1504  0.3097 -0.3831
   90MOL    H9637654   4.989   2.756   7.380  0.0404 -0.0687  0.3206
   90MOL    H9737655   4.970   2.850   7.524 -1.5210  0.5619 -0.8624
   90MOL    H9837656   5.042   3.053   7.429  1.7624 -0.0598  0.5332
   90MOL    H9937657   5.085   2.976   7.281  0.4775 -1.0467  0.1970
   90MOL   H10037658   4.836   3.098   7.279  0.1967  0.1923 -0.6773
   90MOL   H10137659   4.779   2.963   7.372  0.0737  1.3918 -0.0898
   90MOL   H10237660   4.878   2.809   7.197  1.8686  0.6567 -0.2811
   90MOL   H10337661   4.718   2.892   7.189 -0.1746  1.8158 -0.7873
   90MOL   H10437662   4.800   3.054   7.035  1.0762  0.9362 -0.0152
   90MOL   H10537663   4.863   2.901   6.970 -0.9684  0.9695 -0.9629
   90MOL   H10637664   4.970   3.005   7.059  0.3729 -1.6775 -1.2379
   90MOL   C10737665   5.174   2.782   7.624  0.6741  0.0375 -0.5539
   90MOL   C10837666   5.130   2.902   0.003  0.7018  0.5502  0.5043
   90MOL   C10937667   5.092   2.840   0.138 -0.0290 -0.1748 -0.9599
   90MOL   C11037668   4.957   2.768   0.130 -0.3428 -0.6820  0.1143
   90MOL   C11137669   4.945   2.647   0.232  0.2836  0.0059 -0.5302
   90MOL   C11237670   4.829   2.546   0.219  0.2355  0.4086  0.3906
   90MOL   C11337671   4.832   2.416   0.306  0.0435 -0.3488 -0.2831
   90MOL   H11437672   5.269   2.741   7.659 -0.2772 -2.0041 -0.3104
   90MOL   H11537673   5.107   2.697   7.632 -0.1220  0.4700 -2.2235
   90MOL   H11637674   5.042   2.954   7.679  1.8359  2.4641  0.4194
   90MOL   H11737675   5.071   2.921   0.208 -1.1966 -0.3590 -1.0809
   90MOL   H11837676   5.171   2.778   0.180  0.1391  0.2772 -0.6086
   90MOL   H11937677   4.886   2.851   0.129 -1.3813 -1.5577  0.4225
   90MOL   H12037678   4.944   2.730   0.028 -2.8715  3.6768 -1.3332
   90MOL   H12137679   4.941   2.678   0.336 -0.7455  1.1251 -0.8934
   90MOL   H12237680   5.037   2.592   0.215  1.5211  1.8122  0.1201
   90MOL   H12337681   4.735   2.600   0.228  1.7188  2.8879  1.5453
   90MOL   H12437682   4.832   2.508   0.117 -1.1036 -0.6789  0.7403
   90MOL   H12537683   4.915   2.347   0.291  0.8178  0.8048 -1.3728
   90MOL   H12637684   4.849   2.451   0.408  0.1506  1.8744 -1.0578
   90MOL   H12737685   4.742   2.355   0.303 -0.5861  0.6550 -2.1168
   90MOL   C12837686   5.231   3.018   0.028  0.9971  0.0611  0.4293
   90MOL   C12937687   5.187   3.166   7.709 -0.0870  0.4502  0.6192
   90MOL   C13037688   5.309   3.262   0.009 -0.5231 -0.7102 -0.2029
   90MOL   C13137689   5.385   3.273   7.591  0.1693 -0.0784 -0.3796
   90MOL   C13237690   5.497   3.382   7.603 -0.3944  0.4153 -0.0124
   90MOL   C13337691   5.586   3.398   7.474  0.9024 -0.3977  0.0877
   90MOL   C13437692   5.671   3.275   7.451 -0.7342  0.1377 -0.5248
   90MOL   H13537693   5.294   3.020   0.117 -0.3360  0.3432  1.3829
   90MOL   H13637694   5.306   2.996   7.666 -0.7644 -4.1848 -0.1800
   90MOL   H13737695   5.159   3.169   7.603 -1.4740 -0.4128  0.9521
   90MOL   H13837696   5.372   3.222   0.088  1.0611  1.3614 -0.3774
   90MOL   H13937697   5.269   3.358   0.040 -0.2634 -1.1400  1.5245
   90MOL   H14037698   5.314   3.284   7.509  0.3632  1.2929 -0.3659
   90MOL   H14137699   5.423   3.174   7.565  1.2779  0.1728  0.2802
   90MOL   H14237700   5.560   3.358   7.689  0.4029 -0.1266 -0.7375
   90MOL   H14337701   5.446   3.477   7.620 -1.1632 -0.3678  2.2773
   90MOL   H14437702   5.640   3.493   7.484 -0.2560  0.4251 -1.3301
   90MOL   H14537703   5.534   3.407   7.379  0.2993 -1.8688  0.2712
   90MOL   H14637704   5.619   3.183   7.425 -0.6749 -0.1751  0.4208
   90MOL   H14737705   5.729   3.262   7.543 -2.4200 -1.5055  0.3371
   90MOL   H14837706   5.747   3.310   7.381 -0.6788  1.2859  0.0872
   90MOL   C14937707   5.077   3.205   0.084  0.7157 -1.0273 -0.4743
   90MOL   C15037708   5.004   3.333   0.044  0.8452  0.2199  0.3113
   90MOL   C15137709   4.944   3.395   0.182  0.3275 -0.0220 -0.2605
   90MOL   C15237710   4.841   3.315   0.266  0.9977 -0.0354  0.7178
   90MOL   C15337711   4.809   3.376   0.405 -0.3868  0.7045  0.5348
   90MOL   C15437712   4.673   3.344   0.477 -0.3441 -0.1566 -0.5581
   90MOL   C15537713   4.654   3.202   0.519 -0.2243 -0.5691  0.1717
   90MOL   H15637714   5.006   3.122   0.095 -0.1308 -0.5435 -2.1445
   90MOL   H15737715   5.117   3.214   0.185  0.2598  0.4354 -0.4196
   90MOL   H15837716   5.067   3.413   0.006  0.8060 -0.7656 -1.8805
   90MOL   H15937717   5.033   3.419   0.239 -0.6714  1.8863  0.5499
   90MOL   H16037718   4.887   3.487   0.166  0.0567 -0.1032  0.2153
   90MOL   H16137719   4.878   3.215   0.289 -0.6911 -0.5599  1.2808
   90MOL   H16237720   4.744   3.323   0.217 -0.0177 -3.3761  1.9764
   90MOL   H16337721   4.788   3.482   0.396 -0.1346  0.8952  2.0822
   90MOL   H16437722   4.892   3.371   0.476 -0.7262  0.0659  0.8928
   90MOL   H16537723   4.582   3.358   0.419 -0.1648  2.0510 -0.3786
   90MOL   H16637724   4.670   3.415   0.560  1.2842 -2.5718  1.6536
   90MOL   H16737725   4.561   3.190   0.575  0.3834  0.0946  1.3394
   90MOL   H16837726   4.733   3.188   0.593 -0.6365 -1.4401  0.4558
   90MOL   H16937727   4.662   3.132   0.436 -1.3449  0.0384 -0.4608
   90MOL   C17037728   4.899   3.296   7.657  0.1166 -0.0651  0.8284
   90MOL   C17137729   4.832   3.419   7.584  0.3568 -0.1642 -0.0570
   90MOL   C17237730   4.851   3.419   7.428 -0.4174  0.1629 -0.1215
   90MOL   C17337731   5.000   3.433   7.394  0.4689 -0.6827 -0.0450
   90MOL   C17437732   5.034   3.434   7.241 -0.1105  0.5243 -0.2677
   90MOL   C17537733   5.033   3.305   7.171  0.7273 -0.1226  0.1914
   90MOL   C17637734   5.102   3.307   7.037  0.5692 -0.7262  0.1330
   90MOL   H17737735   4.828   3.229   7.706 -0.4103  1.0694  1.6277
   90MOL   H17837736   4.943   3.234   7.578  1.3202  2.5656 -0.6207
   90MOL   H17937737   4.872   3.517   7.611  1.2006 -0.6730  0.5888
   90MOL   H18037738   4.801   3.507   7.389  0.0188  1.0050  1.1765
   90MOL   H18137739   4.801   3.333   7.383 -0.1143 -0.2433  0.3072
   90MOL   H18237740   5.063   3.357   7.441  1.7428  0.5886  0.3732
   90MOL   H18337741   5.032   3.529   7.433  0.5142 -1.6093  2.2649
   90MOL   H18437742   5.134   3.478   7.231  0.0925  0.0346 -0.3999
   90MOL   H18537743   4.976   3.499   7.176 -1.7466 -1.5927 -0.9933
   90MOL   H18637744   4.927   3.281   7.158  0.1901  2.5184 -0.6916
   90MOL   H18737745   5.071   3.227   7.237  2.4297  0.4266 -0.1348
   90MOL   H18837746   5.089   3.210   6.990 -0.4921 -1.5542  2.0816
   90MOL   H18937747   5.207   3.337   7.034  0.1417  0.9050  0.6398
   90MOL   H19037748   5.061   3.367   6.955 -1.7478  1.8826  3.0712
   90MOL   C19137749   4.686   3.422   7.611 -0.1160  0.5144 -0.8063
   90MOL   C19237750   4.601   3.543   7.567 -0.6042 -0.5994  0.2962
   90MOL   C19337751   4.451   3.511   7.602  0.4655 -0.6697 -0.5559
   90MOL   C19437752   4.414   3.537   0.033  0.0559 -0.2783  0.1821
   90MOL   C19537753   4.279   3.464   0.064 -0.5023  0.4345 -0.0269
   90MOL   C19637754   4.219   3.500   0.202 -0.0568 -0.3003 -0.0989
   90MOL   C19737755   4.294   3.448   0.321  0.0303 -0.2988  0.1359
   90MOL   H19837756   4.679   3.418   0.007  0.1728  2.7670 -0.6686
   90MOL   H19937757   4.637   3.335   7.569 -1.2829  1.6050 -1.7546
   90MOL   H20037758   4.600   3.542   7.458  1.5837 -0.3059  0.2597
   90MOL   H20137759   4.416   3.414   7.566  1.5079 -0.5646 -1.8898
   90MOL   H20237760   4.391   3.582   7.545  0.1161 -1.0856 -0.7120
   90MOL   H20337761   4.402   3.644   0.047 -0.8325 -0.2876 -0.4610
   90MOL   H20437762   4.494   3.511   0.103 -1.4308 -1.4884  1.4618
   90MOL   H20537763   4.208   3.495   7.701 -0.0786  0.3644 -0.4485
   90MOL   H20637764   4.301   3.358   0.050  1.7125  0.8043  0.4175
   90MOL   H20737765   4.120   3.459   0.225  1.0952 -2.6616  0.8568
   90MOL   H20837766   4.216   3.608   0.211 -2.4844 -0.5797  3.5142
   90MOL   H20937767   4.316   3.341   0.317 -1.6098 -0.5991 -1.6610
   90MOL   H21037768   4.241   3.478   0.412  0.3027  1.4300 -0.2692
   90MOL   H21137769   4.382   3.511   0.313 -0.3991  0.4592  1.3388
   90MOL   C21237770   4.655   3.681   7.607 -0.1156  0.6276 -0.1844
   90MOL   C21337771   4.594   3.791   7.526 -0.0910 -0.6502  0.5376
   90MOL   C21437772   4.627   3.932   7.596  0.6466  0.3815  0.4618
   90MOL   C21537773   4.539   3.964   0.007 -0.0727 -0.6563  0.0861
   90MOL   C21637774   4.554   4.110   0.065 -0.2026  0.7908  0.9706
   90MOL   C21737775   4.462   4.147   0.183  0.3717 -0.2618  1.0851
   90MOL   C21837776   4.317   4.092   0.165 -0.2225 -0.4900 -0.4884
   90MOL   H21937777   4.764   3.680   7.611 -0.1697 -1.0201  2.0914
   90MOL   H22037778   4.630   3.698   7.712 -1.4826  2.0601 -0.7147
   90MOL   H22137779   4.486   3.779   7.524 -0.1567 -0.2851  1.4389
   90MOL   H22237780   4.724   3.924   7.644  0.4038 -1.4504  0.6562
   90MOL   H22337781   4.619   4.015   7.525 -2.6074 -0.0123  0.2880
   90MOL   H22437782   4.541   3.893   0.090  1.5975  1.9762  2.3568
   90MOL   H22537783   4.435   3.960   7.687  0.2015  1.7190 -1.2055
   90MOL   H22637784   4.651   4.134   0.109  1.7641 -1.4112 -1.9542
   90MOL   H22737785   4.546   4.185   7.700  0.8826  0.4907  0.5574
   90MOL   H22837786   4.500   4.113   0.279  1.2113 -1.2793  0.3888
   90MOL   H22937787   4.454   4.255   0.201 -1.7461 -0.2601  0.3663
   90MOL   H23037788   4.310   3.984   0.183  1.2016 -0.2328  1.7491
   90MOL   H23137789   4.290   4.104   0.060  1.0808 -5.0299 -1.4930
   90MOL   H23237790   4.244   4.133   0.234 -0.7359 -1.5010 -0.4197
   90MOL   C23337791   4.647   3.806   7.382  0.1927 -0.0657  0.1011
   90MOL   C23437792   4.567   3.889   7.278 -1.0660  0.2822 -0.7155
   90MOL   C23537793   4.651   3.936   7.155 -0.6883 -0.2470  0.1939
   90MOL   C23637794   4.719   3.825   7.076 -0.2121  0.3966  0.3831
   90MOL   C23737795   4.782   3.869   6.941 -0.0399 -0.6238 -0.0426
   90MOL   C23837796   4.896   3.970   6.962 -0.1087 -0.0399 -0.1803
   90MOL   C23937797   5.011   3.906   7.040  0.3098  0.4917  0.0870
   90MOL   H24037798   4.655   3.707   7.337 -1.0029 -1.1350  2.1183
   90MOL   H24137799   4.752   3.833   7.390  0.3368 -0.5728 -0.0855
   90MOL   H24237800   4.536   3.979   7.331  0.4376  0.5010 -0.1707
   90MOL   H24337801   4.737   3.993   7.191  1.5743 -1.8927 -2.4332
   90MOL   H24437802   4.599   4.009   7.092 -0.1344  0.6297  0.7524
   90MOL   H24537803   4.644   3.754   7.040 -0.4903  1.2586 -0.7596
   90MOL   H24637804   4.793   3.768   7.132 -1.6567 -0.3158  1.5854
   90MOL   H24737805   4.706   3.912   6.877  0.6074  1.2811  0.4403
   90MOL   H24837806   4.818   3.777   6.894  2.3202 -0.2643  0.9838
   90MOL   H24937807   4.930   3.994   6.862  1.5676 -2.8863 -0.3439
   90MOL   H25037808   4.856   4.059   7.012 -0.6960  0.8780 -2.2545
   90MOL   H25137809   4.989   3.894   7.146 -1.3805 -1.4077 -0.4325
   90MOL   H25237810   5.020   3.807   6.996 -0.3799  1.5364 -2.4904
   90MOL   H25337811   5.102   3.964   7.030  0.7982 -0.6826 -2.6599
   90MOL   C25437812   4.437   3.811   7.242 -0.7838 -0.1435 -0.7715
   90MOL   C25537813   4.355   3.880   7.132  0.0214  0.9753  0.1153
   90MOL   C25637814   4.309   4.022   7.179 -0.1021 -0.0272 -0.0470
   90MOL   C25737815   4.245   4.105   7.062  0.1084  0.1008  0.3410
   90MOL   C25837816   4.236   4.257   7.080  0.9322 -0.0163  0.0066
   90MOL   C25937817   4.163   4.327   6.972  0.6984 -0.6021  0.3449
   90MOL   C26037818   4.156   4.477   6.988  0.3338 -0.0072 -0.7070
   90MOL   H26137819   4.375   3.783   7.326  0.7470 -1.9982 -0.2136
   90MOL   H26237820   4.473   3.718   7.198  0.6216  0.5606 -1.1550
   90MOL   H26337821   4.411   3.901   7.040  0.1266 -1.2166 -0.3504
   90MOL   H26437822   4.394   4.073   7.224  0.5067  0.8398 -2.1370
   90MOL   H26537823   4.233   4.014   7.257  1.2189 -1.8260  1.1187
   90MOL   H26637824   4.301   4.081   6.972 -0.1292  1.6601 -0.2357
   90MOL   H26737825   4.147   4.063   7.037  0.0332  0.1742  0.5108
   90MOL   H26837826   4.339   4.291   7.085  1.0406 -0.3740  0.2262
   90MOL   H26937827   4.191   4.270   7.178  1.0174 -0.5291  0.1137
   90MOL   H27037828   4.212   4.303   6.877 -1.1079 -1.9481 -0.2829
   90MOL   H27137829   4.059   4.296   6.971  0.3574  0.5347 -0.1176
   90MOL   H27237830   4.128   4.514   7.087  0.7399 -0.8318 -0.2771
   90MOL   H27337831   4.245   4.527   6.950  1.3161  1.1248  2.8561
   90MOL   H27437832   4.074   4.512   6.925 -1.1583 -2.3022 -0.1131
   90MOL   C27537833   4.235   3.796   7.074  0.2791  0.5652  0.2122
   90MOL   C27637834   4.232   3.775   6.916  0.5668 -0.3856  0.4004
   90MOL   C27737835   4.100   3.710   6.870  0.2408  0.0419 -0.0126
   90MOL   C27837836   4.079   3.560   6.909  0.1421 -0.5706  0.1456
   90MOL   C27937837   3.954   3.498   6.844 -0.1379  0.3681  0.6896
   90MOL   C28037838   3.987   3.431   6.705  0.0848  0.1252 -0.1655
   90MOL   C28137839   3.866   3.330   6.668  0.2241 -0.0315  0.6588
   90MOL   H28237840   4.144   3.848   7.104  0.6445  1.5961 -0.4380
   90MOL   H28337841   4.217   3.693   7.105 -1.1002  0.4604 -0.8992
   90MOL   H28437842   4.234   3.874   6.870 -1.6921 -0.5242 -0.0867
   90MOL   H28537843   4.009   3.756   6.910  0.2069 -1.9587  2.2626
   90MOL   H28637844   4.083   3.723   6.763 -0.2770 -0.4834  0.0044
   90MOL   H28737845   4.073   3.551   7.017 -0.0892 -2.6467 -0.0244
   90MOL   H28837846   4.167   3.502   6.882  1.1179  1.5677 -1.4582
   90MOL   H28937847   3.875   3.573   6.837  0.1404  0.5140 -0.9400
   90MOL   H29037848   3.908   3.426   6.913 -3.3672  0.7854 -0.9518
   90MOL   H29137849   3.995   3.506   6.626 -2.4136  2.0161  1.3121
   90MOL   H29237850   4.083   3.380   6.705 -0.2162 -0.4385  0.3738
   90MOL   H29337851   3.866   3.246   6.737  0.6011 -0.0242  0.6680
   90MOL   H29437852   3.884   3.284   6.571  1.7209  1.6392  0.1247
   90MOL   H29537853   3.767   3.374   6.677 -0.3668 -1.5101  1.6407
   90MOL   C29637854   4.353   3.696   6.867 -0.4330  0.7287  0.3714
   90MOL   C29737855   4.355   3.643   6.722  0.2047 -0.9122  0.6963
   90MOL   C29837856   4.464   3.530   6.695 -0.7899 -0.5162  0.5373
   90MOL   C29937857   4.604   3.566   6.759  0.5644 -0.3749  0.4038
   90MOL   C30037858   4.711   3.470   6.723 -0.3522 -0.3149  0.5538
   90MOL   C30137859   4.716   3.345   6.812  0.3472  0.2884  0.0123
   90MOL   C30237860   4.823   3.243   6.767  0.6469 -0.0875  0.2314
   90MOL   H30337861   4.448   3.745   6.890  2.2572 -1.9207 -4.3371
   90MOL   H30437862   4.359   3.606   6.928  1.3554 -0.2772 -1.2026
   90MOL   H30537863   4.264   3.588   6.699 -0.4457 -0.5277  2.3236
   90MOL   H30637864   4.426   3.438   6.740  0.5527 -1.4952 -0.3040
   90MOL   H30737865   4.475   3.515   6.588 -1.2643 -0.5483  0.4931
   90MOL   H30837866   4.599   3.588   6.866  1.7814  1.5973  0.0847
   90MOL   H30937867   4.622   3.664   6.713  1.0879  0.1006  1.5894
   90MOL   H31037868   4.813   3.506   6.733  0.5205 -2.0664 -1.5739
   90MOL   H31137869   4.701   3.447   6.617  2.9800  0.0499  0.1124
   90MOL   H31237870   4.729   3.383   6.913 -2.0279  1.6097 -0.1441
   90MOL   H31337871   4.616   3.301   6.810 -0.7561  2.7683 -0.3647
   90MOL   H31437872   4.830   3.152   6.827  1.3141 -1.6723 -2.2015
   90MOL   H31537873   4.793   3.208   6.669  1.5197 -1.1711  0.3366
   90MOL   H31637874   4.921   3.290   6.763 -0.1175  1.5032  0.0197
   90MOL   C31737875   4.353   3.757   6.618 -0.3950 -0.2067  0.3083
   90MOL   C31837876   4.317   3.717   6.472  0.3905  0.2728 -0.2607
   90MOL   C31937877   4.217   3.819   6.407 -0.7003  0.0013 -0.1761
   90MOL   C32037878   4.069   3.777   6.418  0.2170  0.7060  0.1302
   90MOL   C32137879   4.018   3.666   6.321 -0.3226  0.0436  0.1831
   90MOL   C32237880   3.876   3.620   6.357  0.2645 -0.7014  0.3089
   90MOL   C32337881   3.828   3.506   6.265  0.4156 -0.4254  0.9191
   90MOL   H32437882   4.441   3.822   6.619  0.3079 -1.1456  1.5708
   90MOL   H32537883   4.275   3.830   6.638 -0.3702  0.2849 -1.3813
   90MOL   H32637884   4.271   3.618   6.467 -0.9238  0.8460  0.0297
   90MOL   H32737885   4.236   3.841   6.302 -2.1306  1.9232 -0.0660
   90MOL   H32837886   4.214   3.912   6.465  1.1433  0.4621 -0.7914
   90MOL   H32937887   4.010   3.868   6.404  0.9724  1.5150  1.9685
   90MOL   H33037888   4.053   3.752   6.523 -2.6562 -0.2560 -0.4861
   90MOL   H33137889   4.093   3.588   6.324 -2.3331 -1.9182  0.8925
   90MOL   H33237890   4.013   3.696   6.216  0.6078  1.3186  0.4885
   90MOL   H33337891   3.813   3.708   6.353  0.7071 -0.4357 -0.8666
   90MOL   H33437892   3.875   3.586   6.461 -0.3500 -1.9922 -0.1024
   90MOL   H33537893   3.728   3.473   6.293 -1.2627  1.3746 -2.6820
   90MOL   H33637894   3.899   3.425   6.284  0.1454 -1.3174 -1.6821
   90MOL   H33737895   3.827   3.538   6.161 -2.6310 -0.4060  0.9060
   90MOL   C33837896   4.449   3.723   6.385 -0.1569 -0.0132  0.6342
   90MOL   C33937897   4.439   3.637   6.257 -0.4464  0.2735  0.4160
   90MOL   C34037898   4.480   3.485   6.280  0.2156 -0.8065  0.0062
   90MOL   C34137899   4.621   3.467   6.332 -0.7752 -0.4533 -0.1917
   90MOL   C34237900   4.673   3.325   6.359 -0.2527 -0.4075 -0.7981
   90MOL   C34337901   4.708   3.249   6.234  0.5020 -0.1973 -0.3822
   90MOL   C34437902   4.593   3.192   6.143 -0.2696 -0.1034 -0.3780
   90MOL   H34537903   4.546   3.708   6.434  0.9341 -0.1180 -1.5032
   90MOL   H34637904   4.455   3.827   6.352 -2.3532 -0.8879 -2.6995
   90MOL   H34737905   4.337   3.630   6.220 -0.1857  0.5898 -0.3661
   90MOL   H34837906   4.412   3.435   6.349  1.1485 -2.0659  0.0247
   90MOL   H34937907   4.466   3.429   6.187 -1.4981  1.4323 -1.1437
   90MOL   H35037908   4.641   3.527   6.421  0.8470 -1.2172 -0.0170
   90MOL   H35137909   4.686   3.509   6.255 -1.3902 -0.2706 -0.6140
   90MOL   H35237910   4.762   3.334   6.421 -1.6040  2.8817  0.7701
   90MOL   H35337911   4.598   3.262   6.407  0.2277 -1.0391 -0.8695
   90MOL   H35437912   4.794   3.293   6.184  1.1695 -1.2937 -0.2241
   90MOL   H35537913   4.745   3.152   6.268 -2.4968 -1.0387  0.6383
   90MOL   H35637914   4.639   3.119   6.077 -1.3194 -2.0157  0.9428
   90MOL   H35737915   4.554   3.264   6.070 -2.1728 -1.2502 -0.5416
   90MOL   H35837916   4.505   3.160   6.199 -1.6557  1.4700 -1.5597
   90MOL   C35937917   4.527   3.702   6.142  0.4645  0.4006  0.0430
   90MOL   C36037918   4.451   3.786   6.042 -0.1532 -0.3253  0.1114
   90MOL   C36137919   4.552   3.890   5.978  0.5324 -0.1211 -0.3512
   90MOL   C36237920   4.576   4.018   6.055 -0.1717 -0.5461  0.1192
   90MOL   C36337921   4.654   4.125   5.966  0.3442  0.1744 -1.0849
   90MOL   C36437922   4.705   4.247   6.046 -0.4705 -0.4761 -0.1396
   90MOL   C36537923   4.843   4.233   6.109  0.1011 -0.2563 -0.1061
   90MOL   H36637924   4.582   3.629   6.084 -0.6309  0.5787 -1.2402
   90MOL   H36737925   4.605   3.761   6.190 -1.9996  3.4097  0.5414
   90MOL   H36837926   4.370   3.845   6.085 -0.4570 -0.0202 -0.8564
   90MOL   H36937927   4.645   3.836   5.961  1.4552  1.0411  0.9292
   90MOL   H37037928   4.508   3.915   5.881  0.3392 -1.1074 -0.5260
   90MOL   H37137929   4.479   4.063   6.076  0.2430 -0.6802  2.4711
   90MOL   H37237930   4.627   3.997   6.150 -0.7941 -1.0827  0.3380
   90MOL   H37337931   4.720   4.076   5.894  0.7143 -0.3975 -0.3612
   90MOL   H37437932   4.586   4.175   5.897  1.1695  1.2811 -1.1157
   90MOL   H37537933   4.711   4.336   5.983  3.6298 -0.5237  0.0408
   90MOL   H37637934   4.644   4.276   6.131  2.3739  0.4981  1.6512
   90MOL   H37737935   4.894   4.318   6.153 -0.4367  0.8007 -1.5060
   90MOL   H37837936   4.831   4.160   6.190 -0.9787  0.2320  0.1868
   90MOL   H37937937   4.914   4.191   6.038 -0.7832  0.6004 -1.5055
   90MOL   C38037938   4.397   3.698   5.926 -0.5707 -0.4436 -0.3927
   90MOL   C38137939   4.294   3.772   5.835 -0.7416  0.3869 -0.7142
   90MOL   C38237940   4.322   3.760   5.683  0.3979 -0.5159 -0.0605
   90MOL   C38337941   4.232   3.842   5.594 -0.1108  0.3405  0.6015
   90MOL   C38437942   4.274   3.859   5.443 -0.1711 -0.0872  0.0631
   90MOL   C38537943   4.150   3.855   5.348 -0.8485  0.1982  0.6911
   90MOL   C38637944   4.049   3.970   5.361 -0.3273  0.5326 -0.0735
   90MOL   H38737945   4.489   3.678   5.872 -0.5305 -0.1052 -0.4461
   90MOL   H38837946   4.359   3.604   5.967 -1.5971  0.3329  0.4628
   90MOL   H38937947   4.283   3.875   5.868  1.1865  0.1560  0.7568
   90MOL   H39037948   4.317   3.656   5.650  2.8773 -0.7433  0.1529
   90MOL   H39137949   4.420   3.803   5.661  1.0087 -1.3022  1.0738
   90MOL   H39237950   4.126   3.815   5.596 -0.0065 -0.4868 -2.2747
   90MOL   H39337951   4.216   3.932   5.652 -1.5632 -0.6757  1.8405
   90MOL   H39437952   4.325   3.954   5.430 -1.7277  0.5835 -1.2463
   90MOL   H39537953   4.352   3.790   5.412  0.5930  0.2026  1.2861
   90MOL   H39637954   4.102   3.757   5.344 -0.6237  0.0933  0.5967
   90MOL   H39737955   4.190   3.873   5.249  0.2696 -2.5753  0.5920
   90MOL   H39837956   4.098   4.064   5.337 -1.4917  1.1217 -0.1613
   90MOL   H39937957   4.013   3.972   5.464 -0.2420  0.5231 -0.0427
   90MOL   H40037958   3.962   3.959   5.297  0.3439  0.4034 -0.9630
   90MOL   C40137959   4.155   3.731   5.875 -0.5517 -0.2855  0.2410
   90MOL   C40237960   4.108   3.581   5.851  0.1581 -0.2028  0.0276
   90MOL   C40337961   3.957   3.557   5.892  0.0264 -0.5863 -0.2780
   90MOL   C40437962   3.917   3.422   5.836 -0.3485 -0.1827 -0.6874
   90MOL   C40537963   3.776   3.382   5.876 -0.2407 -0.3581  0.3498
   90MOL   C40637964   3.751   3.234   5.865  0.6030 -0.6681  0.5885
   90MOL   C40737965   3.603   3.212   5.866 -0.0534 -0.4672  0.1503
   90MOL   H40837966   4.086   3.796   5.820  1.3066 -0.5488 -2.5040
   90MOL   H40937967   4.130   3.758   5.978  3.1151 -1.3313  1.4608
   90MOL   H41037968   4.170   3.504   5.896  0.4380 -0.0904 -0.1634
   90MOL   H41137969   3.907   3.649   5.862  0.7207 -0.4087 -0.8878
   90MOL   H41237970   3.948   3.539   6.000  0.3673 -1.3213 -0.3680
   90MOL   H41337971   3.990   3.347   5.866  0.7265  0.7793 -0.8506
   90MOL   H41437972   3.933   3.433   5.729  3.4367  1.8470 -0.0143
   90MOL   H41537973   3.747   3.411   5.977 -3.9610 -0.5207 -0.6110
   90MOL   H41637974   3.717   3.435   5.801 -2.0700 -0.5408  1.6322
   90MOL   H41737975   3.793   3.187   5.776 -0.2495  2.6232 -1.6574
   90MOL   H41837976   3.803   3.180   5.944  2.3138 -2.3317 -1.6110
   90MOL   H41937977   3.545   3.255   5.784 -0.4851 -2.6617 -0.7279
   90MOL   H42037978   3.562   3.257   5.955 -3.3301 -2.1787 -0.4327
   90MOL   H42137979   3.569   3.109   5.857 -0.8627 -0.0639 -1.6617
   90MOL   H42237980   4.112   3.577   5.742 -0.4913  2.8784 -0.1409
   91MOL     C137981   2.834   0.919   5.660  0.7428 -0.0637 -0.1504
   91MOL     C237982   2.691   0.887   5.594  0.5410  0.6841 -0.2495
   91MOL     C337983   2.701   0.837   5.456 -0.4933  0.1753 -0.0643
   91MOL     C437984   2.781   0.702   5.433  0.7483 -0.8323 -0.1793
   91MOL     C537985   2.783   0.657   5.283 -0.1986  0.5342 -0.1660
   91MOL     C637986   2.894   0.560   5.256  0.0304 -0.0202 -0.6235
   91MOL     C737987   2.878   0.496   5.118 -0.2648  0.0663 -0.3921
   91MOL     H837988   2.914   0.845   5.653  2.0251  1.2361  0.3525
   91MOL     H937989   2.819   0.945   5.765  2.7368 -0.4093  0.2513
   91MOL    H1037990   2.643   0.807   5.651  1.2949 -0.6419 -1.4450
   91MOL    H1137991   2.605   0.812   5.412 -0.6955  1.3113 -0.2987
   91MOL    H1237992   2.749   0.914   5.396  2.3369 -0.5511  1.1887
   91MOL    H1337993   2.883   0.719   5.468  0.4081  0.5251  0.1663
   91MOL    H1437994   2.756   0.620   5.500 -1.6126  0.2835  0.3642
   91MOL    H1537995   2.801   0.747   5.224 -2.1081  1.2574  0.3052
   91MOL    H1637996   2.687   0.618   5.249 -1.6162  2.4698  1.5003
   91MOL    H1737997   2.894   0.482   5.332 -2.5985  0.4864 -0.0655
   91MOL    H1837998   2.989   0.612   5.252  0.0356  0.2526  2.4325
   91MOL    H1937999   2.878   0.568   5.036 -1.9901 -0.3054 -0.7240
   91MOL    H2038000   2.777   0.457   5.112 -0.7942  1.1540  1.0012
   91MOL    H2138001   2.943   0.410   5.099  1.3785  1.0166  0.7506
   91MOL    H2238002   2.885   1.005   5.618 -0.3064  0.6275 -0.0249
   91MOL    C2338003   2.612   1.023   5.603  0.0592  0.1383  0.0806
   91MOL    C2438004   2.465   1.023   5.549  0.0952  0.6260 -0.0416
   91MOL    C2538005   2.422   1.179   5.548 -0.2616 -0.6588 -0.3768
   91MOL    C2638006   2.328   1.229   5.437 -0.4907 -0.5213  0.4680
   91MOL    C2738007   2.398   1.242   5.301 -0.2636 -0.3459 -0.0192
   91MOL    C2838008   2.309   1.266   5.189  0.6974  0.6520 -0.0343
   91MOL    C2938009   2.237   1.142   5.140 -0.3840 -0.6608  0.9544
   91MOL    H3038010   2.623   1.072   5.700  1.5050  0.8046 -0.3940
   91MOL    H3138011   2.678   1.086   5.543 -1.9098  0.7744 -1.4707
   91MOL    H3238012   2.464   0.984   5.447  0.7931 -0.2507  0.2860
   91MOL    H3338013   2.508   1.244   5.559 -0.5123 -0.0844 -1.6582
   91MOL    H3438014   2.371   1.203   5.641  1.3543  0.6243  0.1867
   91MOL    H3538015   2.280   1.317   5.480  0.9250 -0.5021  2.1006
   91MOL    H3638016   2.248   1.159   5.415  1.4142 -2.9089  1.0018
   91MOL    H3738017   2.444   1.146   5.278  0.2841 -0.8623  3.0212
   91MOL    H3838018   2.466   1.327   5.299 -0.6516 -0.0149  0.6112
   91MOL    H3938019   2.380   1.293   5.112  0.3147 -1.2325 -1.0635
   91MOL    H4038020   2.254   1.359   5.207  2.6851  1.6258  1.1433
   91MOL    H4138021   2.303   1.056   5.139  1.0324  0.4059 -1.3794
   91MOL    H4238022   2.158   1.124   5.214  0.4465 -0.7567  1.8269
   91MOL    H4338023   2.175   1.150   5.050  1.4999 -1.7963 -0.4784
   91MOL    C4438024   2.369   0.932   5.632  0.4862 -0.0564 -0.0919
   91MOL    C4538025   2.233   0.899   5.574 -0.3599 -0.6337 -0.3329
   91MOL    C4638026   2.242   0.827   5.437 -0.7108  0.2119 -0.4838
   91MOL    C4738027   2.299   0.685   5.444  0.3099 -0.0672 -0.0890
   91MOL    C4838028   2.320   0.626   5.309  0.1355 -0.2272 -0.1244
   91MOL    C4938029   2.370   0.485   5.303 -0.4279  0.1307 -0.0090
   91MOL    C5038030   2.357   0.420   5.163  0.0325 -0.0607 -0.7783
   91MOL    H5138031   2.369   0.971   5.733  0.6436 -1.4359  0.4435
   91MOL    H5238032   2.414   0.834   5.645 -0.2441 -0.1672  1.7453
   91MOL    H5338033   2.200   1.001   5.554 -1.9714 -1.4735 -2.0827
   91MOL    H5438034   2.295   0.891   5.366 -0.2747  0.9532  0.4940
   91MOL    H5538035   2.144   0.824   5.389 -1.2299  0.9346  0.5019
   91MOL    H5638036   2.396   0.692   5.494  0.4335 -0.2590 -0.3018
   91MOL    H5738037   2.229   0.626   5.503  0.4689 -0.4849 -0.3149
   91MOL    H5838038   2.380   0.686   5.241 -0.4978 -0.4257 -0.8670
   91MOL    H5938039   2.221   0.616   5.263  0.1970  1.2780 -0.5992
   91MOL    H6038040   2.315   0.421   5.372 -1.2553 -0.4389 -1.1818
   91MOL    H6138041   2.477   0.492   5.322 -0.3112 -0.2325 -0.5246
   91MOL    H6238042   2.412   0.469   5.082 -0.1106 -0.3564 -1.0546
   91MOL    H6338043   2.256   0.411   5.123 -0.1765 -1.0613 -0.0335
   91MOL    H6438044   2.378   0.313   5.158 -1.5975 -0.4059 -0.5514
   91MOL    C6538045   2.150   0.832   5.684  0.7120  0.3474  0.5126
   91MOL    C6638046   2.003   0.795   5.652 -0.2902  0.1052 -0.3214
   91MOL    C6738047   1.914   0.907   5.597 -0.2804 -0.3122  0.1034
   91MOL    C6838048   1.781   0.860   5.523  0.2483 -0.1862 -0.1004
   91MOL    C6938049   1.674   0.964   5.499 -0.2773  0.0933 -0.3906
   91MOL    C7038050   1.564   0.915   5.411  0.1437  0.2080 -0.0502
   91MOL    C7138051   1.446   1.018   5.412 -0.5987  0.2294  0.4445
   91MOL    H7238052   2.201   0.738   5.706 -0.1119 -0.1190  0.4272
   91MOL    H7338053   2.153   0.898   5.771  1.4402  1.3529 -0.2693
   91MOL    H7438054   2.002   0.723   5.570 -1.2952 -1.4753  1.0516
   91MOL    H7538055   1.896   0.982   5.673  1.3968 -2.0513  2.2745
   91MOL    H7638056   1.976   0.953   5.519 -0.0516  1.5627  1.3726
   91MOL    H7738057   1.808   0.820   5.425  1.1102 -0.8767  0.4141
   91MOL    H7838058   1.734   0.775   5.572  0.2479 -0.3829 -0.4388
   91MOL    H7938059   1.631   0.999   5.592 -2.2429  0.0459 -1.2606
   91MOL    H8038060   1.724   1.055   5.463  1.9562 -1.1572 -0.5877
   91MOL    H8138061   1.538   0.826   5.468 -1.2174  0.7689  0.2224
   91MOL    H8238062   1.580   0.884   5.307  0.2400 -2.2029  0.6477
   91MOL    H8338063   1.398   1.031   5.509 -1.4354  1.4681 -0.1123
   91MOL    H8438064   1.466   1.119   5.378  0.3984 -0.3569 -0.7436
   91MOL    H8538065   1.366   0.979   5.348 -0.1721  2.1379 -1.3043
   91MOL    C8638066   1.944   0.725   5.779  0.6712 -0.4077  0.3747
   91MOL    C8738067   1.997   0.580   5.810  0.0240 -0.4544  0.2849
   91MOL    C8838068   1.952   0.546   5.961  0.7073 -0.3996  0.9378
   91MOL    C8938069   2.052   0.604   6.059 -0.4568  0.0841  0.1513
   91MOL    C9038070   2.032   0.562   6.205  0.6202  0.1679 -0.1782
   91MOL    C9138071   2.085   0.423   6.239 -0.1915 -0.2770  1.0545
   91MOL    C9238072   2.055   0.393   6.391 -0.0788  0.2643  0.3810
   91MOL    H9338073   1.951   0.798   5.859 -0.5762  0.2686 -0.1177
   91MOL    H9438074   1.835   0.721   5.778  0.5914  0.8636  1.6260
   91MOL    H9538075   2.105   0.578   5.797  0.1021  1.0785  0.6608
   91MOL    H9638076   1.852   0.587   5.980  0.4092 -1.7477  2.3523
   91MOL    H9738077   1.945   0.438   5.971  0.5013 -0.4935 -0.1612
   91MOL    H9838078   2.154   0.577   6.032 -0.4496 -0.7897  1.0055
   91MOL    H9938079   2.057   0.712   6.057 -3.0885  0.2482  0.2829
   91MOL   H10038080   1.931   0.577   6.242  0.3648 -0.0244 -0.7934
   91MOL   H10138081   2.089   0.633   6.265 -0.3541  0.6292  0.2195
   91MOL   H10238082   2.028   0.346   6.187 -1.7261  1.1162  0.6330
   91MOL   H10338083   2.186   0.398   6.205 -0.4381 -2.0255  1.5358
   91MOL   H10438084   2.083   0.476   6.456  2.0524  1.4553 -1.9732
   91MOL   H10538085   2.112   0.306   6.425  0.6025  0.4440 -0.2786
   91MOL   H10638086   1.950   0.376   6.416 -0.2708  1.1352  0.1622
   91MOL   C10738087   1.930   0.479   5.711 -0.3643 -0.4428 -0.0090
   91MOL   C10838088   1.992   0.340   5.716 -0.6360 -0.2033  0.8386
   91MOL   C10938089   1.897   0.236   5.648  0.0903 -0.6138  1.0865
   91MOL   C11038090   1.797   0.192   5.748 -0.4299 -0.1860  0.0939
   91MOL   C11138091   1.693   0.099   5.689  0.3367  0.3071 -0.6623
   91MOL   C11238092   1.584   0.056   5.784 -0.1555 -0.0661 -0.7494
   91MOL   C11338093   1.630   7.680   5.894  0.1543 -0.3056  0.3850
   91MOL   H11438094   1.954   0.524   5.615  1.2890 -3.2735 -0.9711
   91MOL   H11538095   1.821   0.475   5.710 -0.4941  1.5869  1.6330
   91MOL   H11638096   2.012   0.305   5.817  0.2921  0.3810  0.8606
   91MOL   H11738097   1.948   0.150   5.605 -1.8577 -0.8703 -0.7988
   91MOL   H11838098   1.846   0.277   5.561 -0.1388  0.3558  1.6710
   91MOL   H11938099   1.855   0.140   5.825 -3.3842 -3.0033  0.5429
   91MOL   H12038100   1.745   0.275   5.794 -2.4996 -1.4947  0.1830
   91MOL   H12138101   1.734   0.024   5.622 -1.4234 -0.0572 -1.3756
   91MOL   H12238102   1.644   0.158   5.611 -0.8522  0.4510  0.1673
   91MOL   H12338103   1.547   0.143   5.839 -0.5385 -0.2096 -0.7768
   91MOL   H12438104   1.496   0.018   5.731 -0.4041 -2.0119  0.9969
   91MOL   H12538105   1.657   0.031   5.978 -1.2181 -0.1169  0.6906
   91MOL   H12638106   1.556   7.620   5.947 -0.6004  0.8438  0.6650
   91MOL   H12738107   1.711   7.616   5.860  0.4460  0.0611  0.3766
   91MOL   C12838108   2.132   0.332   5.636  0.6062 -0.6307 -0.1907
   91MOL   C12938109   2.237   0.232   5.698  0.0557 -0.4142 -0.2430
   91MOL   C13038110   2.307   0.294   5.818  0.4396 -0.8813  0.0852
   91MOL   C13138111   2.427   0.376   5.771  0.5368 -0.2082 -0.0026
   91MOL   C13238112   2.499   0.450   5.889  0.4198 -0.2136  0.3331
   91MOL   C13338113   2.616   0.537   5.839 -0.1138  0.1384  0.9541
   91MOL   C13438114   2.723   0.457   5.760 -0.1633  0.1879 -0.9324
   91MOL   H13538115   2.113   0.321   5.530 -2.8053 -4.1576  0.6859
   91MOL   H13638116   2.177   0.431   5.630  1.9362 -1.2059  0.1988
   91MOL   H13738117   2.168   0.155   5.733 -0.5320  1.2204  2.3267
   91MOL   H13838118   2.338   0.229   5.900 -1.1866 -1.2525  0.4116
   91MOL   H13938119   2.237   0.364   5.863  0.0217 -0.0320 -1.8149
   91MOL   H14038120   2.404   0.436   5.683  3.2882  0.4685 -0.3043
   91MOL   H14138121   2.501   0.306   5.732  1.6970  1.6486 -1.2210
   91MOL   H14238122   2.535   0.383   5.967  1.1327 -2.6274 -2.0092
   91MOL   H14338123   2.425   0.519   5.931  0.4419  1.0065 -1.5715
   91MOL   H14438124   2.667   0.592   5.918  0.4437 -0.0651  0.7316
   91MOL   H14538125   2.576   0.611   5.769 -2.4507 -2.1867 -0.2923
   91MOL   H14638126   2.764   0.377   5.822 -0.9065  1.8899  1.8199
   91MOL   H14738127   2.808   0.522   5.737 -0.5355  0.8580 -0.4285
   91MOL   H14838128   2.684   0.411   5.669 -2.6980 -1.1744  0.7780
   91MOL   C14938129   2.325   0.159   5.592 -0.1830 -0.3199  0.5098
   91MOL   C15038130   2.244   0.054   5.509  0.2916  0.1591  0.5250
   91MOL   C15138131   2.260   7.623   5.573 -0.1154 -0.6139 -0.3560
   91MOL   C15238132   2.213   7.584   5.716  0.4356 -0.5513 -0.6840
   91MOL   C15338133   2.227   7.442   5.749  0.0051  0.0116  0.4898
   91MOL   C15438134   2.152   7.398   5.876 -0.3370  0.2309  0.6202
   91MOL   C15538135   2.011   7.351   5.862  0.1622  0.3948 -0.8397
   91MOL   H15638136   2.372   0.236   5.531 -2.2213  1.3909  1.0110
   91MOL   H15738137   2.399   0.106   5.652  1.1794  2.1797  1.1160
   91MOL   H15838138   2.138   0.080   5.512  0.3260  0.4708 -0.6020
   91MOL   H15938139   2.221   7.547   5.505 -2.3148  2.4518 -2.6868
   91MOL   H16038140   2.364   7.591   5.561  0.3818 -0.1059  2.2656
   91MOL   H16138141   2.115   7.629   5.732 -0.1575 -1.8237 -0.6661
   91MOL   H16238142   2.275   7.642   5.784  1.3264 -2.9612  0.5991
   91MOL   H16338143   2.333   7.415   5.753 -0.5162 -1.8425  3.5445
   91MOL   H16438144   2.191   7.378   5.669 -0.2655 -0.9936  1.4029
   91MOL   H16538145   2.153   7.479   5.949  2.3820 -0.7329  1.7013
   91MOL   H16638146   2.212   7.323   5.928 -0.8615 -2.8543 -2.9960
   91MOL   H16738147   2.011   7.276   5.784  0.4347  0.1530 -0.6089
   91MOL   H16838148   1.958   7.442   5.834 -1.9526 -0.7246 -0.5731
   91MOL   H16938149   1.965   7.316   5.955  0.3030  1.2888 -0.4247
   91MOL   C17038150   2.280   0.052   5.357  0.3395 -0.1063 -0.3940
   91MOL   C17138151   2.183   7.699   5.267 -0.7914  0.0766  0.0185
   91MOL   C17238152   2.034   0.042   5.264  0.0412  0.7779  0.3208
   91MOL   C17338153   2.029   0.192   5.251  0.1388  0.0610  0.1702
   91MOL   C17438154   1.890   0.246   5.230  0.0989 -0.2110  0.1593
   91MOL   C17538155   1.878   0.391   5.178  0.3003 -0.6382 -0.0921
   91MOL   C17638156   1.928   0.491   5.283  0.0608  0.1409  0.5114
   91MOL   H17738157   2.376   0.002   5.361 -0.3434 -1.3043  1.9468
   91MOL   H17838158   2.302   0.152   5.319  1.6051  0.2619  1.2670
   91MOL   H17938159   2.168   7.599   5.308  0.1934 -0.2131 -0.2999
   91MOL   H18038160   1.989   0.011   5.359  3.0669 -1.1429  1.1923
   91MOL   H18138161   1.976   7.708   5.185 -1.3892  1.6698  0.7972
   91MOL   H18238162   2.092   0.228   5.169  0.6094 -0.5792  0.2456
   91MOL   H18338163   2.087   0.232   5.334 -0.7931 -3.1057  2.4304
   91MOL   H18438164   1.822   0.223   5.312 -0.5564 -0.1823 -0.3729
   91MOL   H18538165   1.836   0.197   5.149 -1.7407 -1.5746  2.1414
   91MOL   H18638166   1.776   0.429   5.175  0.3250 -0.4900  0.7677
   91MOL   H18738167   1.921   0.409   5.080 -1.7982 -1.9081 -1.2620
   91MOL   H18838168   1.938   0.595   5.249 -0.6343 -0.5296 -1.8533
   91MOL   H18938169   2.034   0.469   5.298  0.7619  0.6555 -2.9928
   91MOL   H19038170   1.879   0.486   5.380  1.5063 -1.5576  1.1749
   91MOL   C19138171   2.241   7.703   5.120  0.0273 -0.6595 -0.4499
   91MOL   C19238172   2.387   7.649   5.090 -0.5591  0.6785 -0.0426
   91MOL   C19338173   2.402   7.503   5.128 -0.2955  0.5863  0.0596
   91MOL   C19438174   2.548   7.452   5.121 -0.1458  0.4744  0.2435
   91MOL   C19538175   2.647   7.513   5.226  0.0544  0.1062  0.4791
   91MOL   C19638176   2.783   7.446   5.227 -0.5625  0.0887 -0.2445
   91MOL   C19738177   2.895   7.502   5.306  0.7425 -0.3537  0.5172
   91MOL   H19838178   2.247   0.097   5.102 -0.2554 -0.8957 -2.0926
   91MOL   H19938179   2.161   7.660   5.059  0.3426 -0.4101 -1.0470
   91MOL   H20038180   2.443   7.703   5.167 -2.2482 -1.0223  2.4316
   91MOL   H20138181   2.334   7.459   5.056 -1.6599  1.6437  0.6629
   91MOL   H20238182   2.365   7.490   5.230  1.0374 -1.0195  0.3502
   91MOL   H20338183   2.600   7.485   5.031 -0.8372  0.5983 -0.1148
   91MOL   H20438184   2.555   7.343   5.114  2.9815  0.6013  0.7207
   91MOL   H20538185   2.669   7.618   5.208  0.2610 -0.4728 -2.8973
   91MOL   H20638186   2.603   7.512   5.326  0.3056  2.2329  0.6332
   91MOL   H20738187   2.820   7.403   5.134 -1.0175 -0.0416 -0.3669
   91MOL   H20838188   2.761   7.352   5.278 -0.4234 -0.9165 -2.0025
   91MOL   H20938189   2.878   7.483   5.412 -0.8123  0.8146  0.4833
   91MOL   H21038190   2.915   7.607   5.285 -4.0137  0.4138 -0.6717
   91MOL   H21138191   2.989   7.450   5.283  1.9715  1.5011  1.2486
   91MOL   C21238192   2.429   7.680   4.946 -0.4179  0.1981  0.2017
   91MOL   C21338193   2.437   0.114   4.896  0.7184  0.2542 -0.6079
   91MOL   C21438194   2.572   0.180   4.938  0.2083  0.5705 -0.2386
   91MOL   C21538195   2.705   0.113   4.897  0.4044  0.5847  0.4089
   91MOL   C21638196   2.816   0.187   4.973  0.6299  0.3459 -0.5039
   91MOL   C21738197   2.950   0.108   4.957 -0.2913 -0.5241 -0.3270
   91MOL   C21838198   3.068   0.179   5.015  0.2396 -0.7153 -0.6130
   91MOL   H21938199   2.342   7.641   4.894  0.0697 -0.5949 -0.0256
   91MOL   H22038200   2.513   7.617   4.915  0.8879  2.0032 -0.0378
   91MOL   H22138201   2.361   0.177   4.943  0.9073  1.0474 -1.3597
   91MOL   H22238202   2.581   0.285   4.910  2.3718 -0.0154 -1.8746
   91MOL   H22338203   2.565   0.184   5.047  0.9080 -1.5737 -0.0932
   91MOL   H22438204   2.716   0.121   4.789 -0.2382  1.0668  0.3787
   91MOL   H22538205   2.699   0.007   4.921 -1.2900  0.3822 -0.8311
   91MOL   H22638206   2.824   0.285   4.926  1.1238 -0.1501 -1.4861
   91MOL   H22738207   2.798   0.192   5.080 -1.0823  0.6801 -0.7888
   91MOL   H22838208   2.946   0.012   5.009 -0.5706  0.0210  0.6706
   91MOL   H22938209   2.967   0.084   4.853 -1.1827  0.8448 -0.8035
   91MOL   H23038210   3.051   0.201   5.121 -1.0671 -0.7963 -0.8052
   91MOL   H23138211   3.078   0.272   4.959  1.1160 -1.3166 -1.4698
   91MOL   H23238212   3.161   0.123   5.002 -0.7581 -2.0840 -1.9445
   91MOL   C23338213   2.441   0.126   4.741 -0.1765 -0.2857 -0.2477
   91MOL   C23438214   2.315   0.067   4.666 -0.2412 -0.0612  0.4100
   91MOL   C23538215   2.181   0.093   4.728 -0.1147 -0.3527  0.4335
   91MOL   C23638216   2.135   0.239   4.748  0.2294  0.2629 -0.1369
   91MOL   C23738217   1.998   0.253   4.808 -0.8618 -0.7141  0.1649
   91MOL   C23838218   1.884   0.224   4.703  0.3316  0.4496 -0.9704
   91MOL   C23938219   1.856   0.313   4.591  0.1728 -0.2493  0.4136
   91MOL   H24038220   2.526   0.072   4.701 -0.6007 -0.7535 -0.5252
   91MOL   H24138221   2.440   0.230   4.710 -3.6363 -0.5266 -1.2178
   91MOL   H24238222   2.344   7.675   4.661  2.6825  0.7286 -0.3585
   91MOL   H24338223   2.183   0.047   4.827 -1.2107  0.7704  1.0015
   91MOL   H24438224   2.105   0.035   4.676 -1.1650  1.0857  0.3227
   91MOL   H24538225   2.133   0.281   4.647  1.6847 -0.1006 -0.3360
   91MOL   H24638226   2.205   0.303   4.802 -0.3690  1.4347 -0.7188
   91MOL   H24738227   1.982   0.356   4.840  0.1099 -0.6669  0.5076
   91MOL   H24838228   1.987   0.192   4.898  1.2578 -2.5972 -0.7993
   91MOL   H24938229   1.898   0.130   4.649  2.2355  1.0463 -1.5510
   91MOL   H25038230   1.789   0.211   4.756  0.6250  1.5671 -0.1548
   91MOL   H25138231   1.934   0.300   4.516  0.6650 -0.1995  0.9130
   91MOL   H25238232   1.763   0.285   4.543 -1.0582  0.6873  2.1888
   91MOL   H25338233   1.841   0.418   4.617  2.5228 -0.5172  3.2349
   91MOL   C25438234   2.327   0.107   4.515  0.1926 -0.4913 -0.6053
   91MOL   C25538235   2.227   0.055   4.409  0.3502 -0.1784  0.2374
   91MOL   C25638236   2.215   7.617   4.428  0.1602  0.3343  0.3521
   91MOL   C25738237   2.340   7.539   4.384  0.1273 -0.0030 -0.2701
   91MOL   C25838238   2.339   7.393   4.433 -0.5107 -0.1091 -0.3310
   91MOL   C25938239   2.469   7.312   4.410  0.6962  0.8129 -0.1392
   91MOL   C26038240   2.465   7.162   4.432 -0.1085 -0.2732  0.0512
   91MOL   H26138241   2.429   0.094   4.479  0.5132 -1.4838  0.6197
   91MOL   H26238242   2.326   0.216   4.506  1.4647 -0.5045 -0.9409
   91MOL   H26338243   2.130   0.100   4.429 -1.2215 -2.6412 -1.5057
   91MOL   H26438244   2.128   7.566   4.386 -0.1173 -0.7619  2.2192
   91MOL   H26538245   2.202   7.600   4.535 -0.6018 -1.1100  0.0331
   91MOL   H26638246   2.355   7.556   4.277 -0.6789  0.6945 -0.2771
   91MOL   H26738247   2.418   7.596   4.435 -0.2561 -1.2937  1.8018
   91MOL   H26838248   2.257   7.360   4.368 -1.0769  0.9688 -0.1846
   91MOL   H26938249   2.302   7.392   4.535  0.6283  0.7945  0.0882
   91MOL   H27038250   2.493   7.330   4.305 -3.9801  3.4279 -0.8616
   91MOL   H27138251   2.552   7.351   4.468 -0.3508  2.1792  0.4541
   91MOL   H27238252   2.556   7.110   4.401  0.9594  1.5857 -0.0325
   91MOL   H27338253   2.458   7.139   4.538  1.0565 -0.9930 -0.0102
   91MOL   H27438254   2.387   7.106   4.380  0.7161 -0.2224 -1.2605
   91MOL   C27538255   2.253   0.097   4.262  0.7763  0.2861 -0.0898
   91MOL   C27638256   2.153   0.038   4.160 -0.3333 -0.0510 -0.3517
   91MOL   C27738257   2.217   0.053   4.014 -0.1259 -0.6265 -0.1565
   91MOL   C27838258   2.304   7.640   3.977  0.0751 -0.7424  0.2194
   91MOL   C27938259   2.332   7.632   3.827 -0.9681  0.0939  0.7559
   91MOL   C28038260   2.436   7.528   3.795  0.6631  0.3767  0.2710
   91MOL   C28138261   2.437   7.490   3.648 -0.5868  0.0448  0.1678
   91MOL   H28238262   2.351   0.055   4.240  0.8193 -0.2233  1.0294
   91MOL   H28338263   2.263   0.205   4.255  0.4573  0.3474  0.3591
   91MOL   H28438264   2.145   7.644   4.176  0.6613 -0.2707 -1.2970
   91MOL   H28538265   2.140   0.066   3.938 -0.9760  0.8828  0.9443
   91MOL   H28638266   2.276   0.144   4.001  0.0684 -0.8405 -0.8054
   91MOL   H28738267   2.237   7.557   4.001  1.0167 -1.9000 -1.0647
   91MOL   H28838268   2.395   7.631   4.036  0.0571  0.4429  0.4349
   91MOL   H28938269   2.360   0.011   3.776  3.4630 -1.5946 -0.0745
   91MOL   H29038270   2.241   7.597   3.779 -0.8848  1.5835 -0.5436
   91MOL   H29138271   2.533   7.569   3.823 -0.3657  1.4266  2.4660
   91MOL   H29238272   2.419   7.441   3.858  0.5160 -1.9804 -2.9237
   91MOL   H29338273   2.452   7.580   3.588  1.0089 -0.0056  0.4618
   91MOL   H29438274   2.348   7.449   3.600  1.1212 -1.5334 -1.7733
   91MOL   H29538275   2.523   7.435   3.609 -1.2277 -0.6252 -0.3149
   91MOL   C29638276   2.011   0.116   4.165 -0.3242  0.1346 -0.3811
   91MOL   C29738277   1.887   0.066   4.080 -1.1802  0.3283 -0.0099
   91MOL   C29838278   1.772   0.162   4.123 -0.1564 -0.0277 -0.8657
   91MOL   C29938279   1.655   0.154   4.030  0.0874 -0.6259 -0.1739
   91MOL   C30038280   1.537   0.256   4.074 -0.1949  0.0854  0.3397
   91MOL   C30138281   1.415   0.259   3.990 -0.1072 -0.7387 -0.4629
   91MOL   C30238282   1.347   0.126   3.966 -0.1852  0.3519  0.5418
   91MOL   H30338283   1.977   0.132   4.267 -0.0620 -1.0000 -0.1076
   91MOL   H30438284   2.043   0.214   4.130  3.0415 -0.3916  1.1006
   91MOL   H30538285   1.906   0.092   3.976  0.3200 -0.6537  0.0055
   91MOL   H30638286   1.734   0.141   4.223  0.3487  3.7825  0.2044
   91MOL   H30738287   1.811   0.264   4.126  3.4599 -1.3304 -2.1042
   91MOL   H30838288   1.603   0.059   4.033 -1.0347  0.0103  0.6932
   91MOL   H30938289   1.692   0.179   3.931 -1.4852  1.6248 -0.2427
   91MOL   H31038290   1.594   0.349   4.063  1.9676 -1.2200  0.2533
   91MOL   H31138291   1.515   0.254   4.181  0.7390  1.1205  0.5649
   91MOL   H31238292   1.341   0.331   4.023 -1.7603 -2.7833  0.3484
   91MOL   H31338293   1.434   0.298   3.890 -0.7028  2.3056  0.5321
   91MOL   H31438294   1.314   0.058   4.045 -3.4046 -1.2710 -2.1255
   91MOL   H31538295   1.257   0.142   3.907  0.5088  0.2658 -0.5379
   91MOL   H31638296   1.423   0.066   3.915 -0.6754 -1.7441  2.1906
   91MOL   C31738297   1.859   7.632   4.110  0.2961  0.7034  0.1509
   91MOL   C31838298   1.888   7.535   3.987 -0.0570  0.3351  0.1011
   91MOL   C31938299   1.891   7.387   4.034  0.6701  0.3776  0.1381
   91MOL   C32038300   1.994   7.354   4.142  0.6152  0.1403  0.2578
   91MOL   C32138301   2.024   7.204   4.158 -0.0317 -0.2932  0.5813
   91MOL   C32238302   2.121   7.149   4.051  0.4794 -0.4886 -0.1223
   91MOL   C32338303   2.184   7.024   4.106  0.0507  0.4795 -0.0144
   91MOL   H32438304   1.753   7.623   4.130  0.6186 -1.4971  1.0739
   91MOL   H32538305   1.890   7.602   4.210 -0.5241  3.0001  1.1166
   91MOL   H32638306   1.982   7.569   3.943  1.1387 -1.5318  1.1686
   91MOL   H32738307   1.920   7.332   3.945 -1.5352  0.0109 -0.3808
   91MOL   H32838308   1.793   7.355   4.070  0.8672 -1.7602 -1.1279
   91MOL   H32938309   1.970   7.401   4.237  0.6860  2.4837 -0.8418
   91MOL   H33038310   2.087   7.410   4.131 -0.0256  0.9837 -1.0481
   91MOL   H33138311   1.933   7.145   4.152 -0.5143  0.5156 -0.0722
   91MOL   H33238312   2.049   7.180   4.261 -2.1617  0.5403  1.3089
   91MOL   H33338313   2.190   7.228   4.023  0.4414 -0.8592 -1.2729
   91MOL   H33438314   2.068   7.136   3.957  3.6460  1.3341 -2.2736
   91MOL   H33538315   2.103   6.952   4.120  0.2513  0.2382 -0.1083
   91MOL   H33638316   2.233   7.045   4.201  0.9705 -0.1416 -0.3419
   91MOL   H33738317   2.256   6.985   4.035 -3.8286 -2.5302 -2.5245
   91MOL   C33838318   1.787   7.568   3.878 -0.0756  0.6425  0.2413
   91MOL   C33938319   1.796   7.494   3.740  0.7635  0.1797 -0.5488
   91MOL   C34038320   1.926   7.510   3.660 -0.5453  0.3212  0.8170
   91MOL   C34138321   1.988   7.644   3.624  0.1269 -0.0346 -0.1002
   91MOL   C34238322   2.066   7.655   3.489  0.2869 -0.0060  0.0975
   91MOL   C34338323   2.107   0.079   3.460 -0.7063  1.0411  0.1260
   91MOL   C34438324   2.187   0.086   3.327  0.1171 -0.1882  0.1180
   91MOL   H34538325   1.798   7.672   3.851  0.2847  0.5699  0.1003
   91MOL   H34638326   1.691   7.542   3.923 -0.0522  0.9687  0.4816
   91MOL   H34738327   1.786   7.388   3.763 -2.1068  0.6045  0.3666
   91MOL   H34838328   2.002   7.448   3.708  0.4157  0.1584 -0.8897
   91MOL   H34938329   1.919   7.457   3.565 -1.9338 -0.8745  1.5622
   91MOL   H35038330   2.043   7.688   3.706 -0.3548 -1.6191  1.1027
   91MOL   H35138331   1.901   7.707   3.606 -1.2403 -1.4732  1.3044
   91MOL   H35238332   2.163   7.608   3.505  0.3657 -0.3878 -1.4187
   91MOL   H35338333   2.018   7.593   3.414  2.3152 -0.1656 -1.0854
   91MOL   H35438334   2.019   0.141   3.443 -0.8583  0.5159 -0.9949
   91MOL   H35538335   2.166   0.117   3.544 -1.0794  0.8879  0.4605
   91MOL   H35638336   2.284   0.036   3.332 -0.1538 -0.5647  2.4079
   91MOL   H35738337   2.217   0.190   3.313  0.3489 -0.3721 -0.7722
   91MOL   H35838338   2.125   0.048   3.246  0.6215 -1.6479  0.4019
   91MOL   C35938339   1.665   7.523   3.658  0.2432  0.2375  0.0909
   91MOL   C36038340   1.626   7.408   3.561  0.6219 -0.0933 -0.4056
   91MOL   C36138341   1.542   7.304   3.640  0.4408 -0.1222  0.2343
   91MOL   C36238342   1.482   7.181   3.566 -0.9988 -1.4384 -0.5461
   91MOL   C36338343   1.404   7.100   3.672 -0.5659 -0.5758  0.1516
   91MOL   C36438344   1.357   6.957   3.608 -0.1064 -0.0051  0.4487
   91MOL   C36538345   1.267   6.963   3.485 -0.5876 -0.2826  0.1169
   91MOL   H36638346   1.680   7.615   3.601  2.0819  1.3335  2.2565
   91MOL   H36738347   1.583   7.549   3.725 -0.7540 -0.9172 -0.6536
   91MOL   H36838348   1.704   7.349   3.511  1.6343  0.4901  0.4714
   91MOL   H36938349   1.595   7.260   3.725  0.2342  2.1012  1.5623
   91MOL   H37038350   1.452   7.352   3.677 -0.1923 -0.4588 -0.8786
   91MOL   H37138351   1.420   7.203   3.479 -0.1631 -1.3896 -1.1414
   91MOL   H37238352   1.568   7.121   3.535  0.1786 -0.7948  1.3937
   91MOL   H37338353   1.466   7.086   3.760 -2.1507 -0.9977  1.2131
   91MOL   H37438354   1.312   7.147   3.707 -0.6475 -0.5087 -0.1455
   91MOL   H37538355   1.446   6.904   3.573  0.8338  0.7878  1.5903
   91MOL   H37638356   1.307   6.902   3.687  0.5124 -1.8560 -0.4139
   91MOL   H37738357   1.200   7.048   3.500  2.6578  2.9261 -2.5234
   91MOL   H37838358   1.315   6.982   3.389 -2.3197 -0.9355 -0.9088
   91MOL   H37938359   1.205   6.874   3.475  0.7224 -1.1206 -0.7913
   91MOL   C38038360   1.549   7.459   3.434  0.3128  0.0686  0.4434
   91MOL   C38138361   1.615   7.439   3.290 -0.2789 -0.8591 -0.4338
   91MOL   C38238362   1.522   7.486   3.173  0.8095 -0.3021 -0.5964
   91MOL   C38338363   1.398   7.404   3.152 -0.2811 -0.2232 -0.8808
   91MOL   C38438364   1.271   7.485   3.118  0.7556  0.4274 -0.2640
   91MOL   C38538365   1.231   7.585   3.223  0.2170  0.4532  0.0128
   91MOL   C38638366   1.103   7.658   3.187 -0.0269  0.3818  0.0016
   91MOL   H38738367   1.453   7.410   3.443 -0.0647 -0.0111 -3.2084
   91MOL   H38838368   1.523   7.565   3.442  0.6714  0.3392 -1.6103
   91MOL   H38938369   1.630   7.331   3.287 -0.8983 -0.9562 -0.2854
   91MOL   H39038370   1.579   7.473   3.081 -0.8939 -1.4612 -1.5072
   91MOL   H39138371   1.506   7.593   3.188  1.1697 -0.4619  1.0096
   91MOL   H39238372   1.430   7.331   3.078  0.1483 -0.7414 -0.1805
   91MOL   H39338373   1.363   7.342   3.234 -1.0306 -1.9566 -2.4889
   91MOL   H39438374   1.286   7.527   3.018  1.6427  2.2295  0.5967
   91MOL   H39538375   1.197   7.407   3.104  1.0315 -0.1277  1.3371
   91MOL   H39638376   1.299   7.667   3.243  0.3031 -0.1191  2.2520
   91MOL   H39738377   1.211   7.542   3.321 -0.1314  0.0038 -0.2495
   91MOL   H39838378   1.123   7.704   3.091  1.1655 -2.0075 -0.9365
   91MOL   H39938379   1.085   0.023   3.260 -2.5904  1.2976 -1.5412
   91MOL   H40038380   1.022   7.586   3.173 -0.1670  0.6033 -0.3356
   91MOL   C40138381   1.754   7.490   3.271 -0.0561  0.0753  0.3894
   91MOL   C40238382   1.824   7.429   3.153  0.4338 -0.6636  0.4455
   91MOL   C40338383   1.973   7.448   3.163  0.5388  0.1691 -0.6214
   91MOL   C40438384   2.036   7.375   3.044  0.1434  0.1638  0.1515
   91MOL   C40538385   2.193   7.384   3.058 -0.0573  0.1752  0.6295
   91MOL   C40638386   2.279   7.327   2.948  0.0089 -0.3502  1.0585
   91MOL   C40738387   2.257   7.398   2.816 -0.3177 -0.0058  0.1141
   91MOL   H40838388   1.812   7.470   3.361  0.4554  0.3879  0.1297
   91MOL   H40938389   1.752   7.599   3.269 -1.3667  0.0421 -0.9208
   91MOL   H41038390   1.789   7.477   3.061 -0.4643 -1.0904  0.5631
   91MOL   H41138391   2.011   7.412   3.259  0.8142  1.4679 -0.2394
   91MOL   H41238392   1.991   7.555   3.167  2.1318 -0.1163  0.3018
   91MOL   H41338393   2.000   7.436   2.961 -2.0671 -0.5042  0.5674
   91MOL   H41438394   2.001   7.272   3.048 -1.7636  0.8469  2.9348
   91MOL   H41538395   2.222   7.489   3.056 -0.3230  0.2357 -1.7319
   91MOL   H41638396   2.236   7.334   3.145  1.4810 -2.0063 -1.3137
   91MOL   H41738397   2.382   7.346   2.979  0.0817  0.4555  0.3414
   91MOL   H41838398   2.267   7.219   2.936  1.2032 -0.3703 -0.0717
   91MOL   H41938399   2.249   7.507   2.821 -3.6977 -0.2789  2.1143
   91MOL   H42038400   2.169   7.363   2.762 -1.0425  0.1970  1.1408
   91MOL   H42138401   2.339   7.375   2.748 -1.4726  1.0957 -1.7022
   91MOL   H42238402   1.799   7.323   3.141 -0.8020 -0.2044 -1.3005
   92MOL     C138403   1.805   3.698   6.363  0.4635  0.3693  0.1878
   92MOL     C238404   1.720   3.715   6.233  0.0394  0.0219 -0.6891
   92MOL     C338405   1.815   3.709   6.113  0.0051  0.6980  0.7658
   92MOL     C438406   1.746   3.683   5.981  0.1646 -0.0946  0.3474
   92MOL     C538407   1.847   3.690   5.861 -0.0820 -0.2914  0.3825
   92MOL     C638408   1.790   3.693   5.722  0.5252 -0.1558 -0.1622
   92MOL     C738409   1.903   3.710   5.618  0.2599  0.1704  0.3323
   92MOL     H838410   1.823   3.592   6.381 -1.9352 -0.0278  0.3974
   92MOL     H938411   1.756   3.726   6.456  0.7178 -0.1237  0.4772
   92MOL    H1038412   1.670   3.618   6.234  2.2592 -1.1483 -0.2888
   92MOL    H1138413   1.874   3.800   6.110  1.8868 -0.4081  2.6729
   92MOL    H1238414   1.887   3.628   6.127 -0.7405 -0.3060 -1.0211
   92MOL    H1338415   1.676   3.599   5.983  1.5997 -1.3659 -1.3683
   92MOL    H1438416   1.676   3.764   5.958  1.0196  0.5665  0.0409
   92MOL    H1538417   1.902   3.597   5.874 -1.3989 -1.0493  0.6377
   92MOL    H1638418   1.913   3.775   5.877 -2.1159  0.7991  3.6530
   92MOL    H1738419   1.738   3.789   5.718 -1.3913 -1.1967 -0.6824
   92MOL    H1838420   1.717   3.615   5.704 -0.2317  1.3005 -3.8875
   92MOL    H1938421   1.970   3.624   5.620 -1.0672 -1.0691 -3.6248
   92MOL    H2038422   1.969   3.794   5.640 -0.2488  0.2647  1.5224
   92MOL    H2138423   1.872   3.742   5.519  1.7017 -1.0801 -0.5512
   92MOL    H2238424   1.903   3.745   6.358  0.0228  1.1468 -1.4295
   92MOL    C2338425   1.617   3.824   6.227  0.1844 -0.1285 -0.5944
   92MOL    C2438426   1.512   3.843   6.343 -0.3813  0.2230  0.2587
   92MOL    C2538427   1.405   3.732   6.330 -0.4296 -0.1215 -0.3449
   92MOL    C2638428   1.299   3.719   6.438  0.6786  0.2605 -0.1704
   92MOL    C2738429   1.194   3.608   6.424 -0.5757  0.1919 -0.2658
   92MOL    C2838430   1.248   3.475   6.364 -0.5302 -0.7757  0.5612
   92MOL    C2938431   1.138   3.380   6.343  0.1947 -0.3291 -0.0178
   92MOL    H3038432   1.678   3.914   6.224  0.7304 -0.2682  3.4431
   92MOL    H3138433   1.558   3.817   6.136 -1.0624 -2.7275  0.3494
   92MOL    H3238434   1.568   3.842   6.437 -2.4783  0.7387  1.5526
   92MOL    H3338435   1.469   3.643   6.334 -1.3599 -0.7901 -0.2073
   92MOL    H3438436   1.360   3.739   6.231  1.4182 -2.0709 -1.3739
   92MOL    H3538437   1.254   3.818   6.444 -1.5066 -0.8038  1.8285
   92MOL    H3638438   1.343   3.713   6.537 -1.0018 -1.3884  0.5047
   92MOL    H3738439   1.110   3.646   6.366 -1.6045 -0.1258  0.9883
   92MOL    H3838440   1.146   3.592   6.521 -0.6813 -0.5625 -0.4333
   92MOL    H3938441   1.320   3.436   6.436  1.1095  1.1234 -0.0053
   92MOL    H4038442   1.301   3.489   6.269  0.6688 -0.3736  1.2760
   92MOL    H4138443   1.083   3.407   6.253  1.0094  3.2542  0.5117
   92MOL    H4238444   1.175   3.283   6.309  0.2793  0.1809 -1.3801
   92MOL    H4338445   1.066   3.364   6.424 -4.4528 -0.5056 -3.9425
   92MOL    C4438446   1.443   3.990   6.327  1.2043  0.1894  0.3997
   92MOL    C4538447   1.459   4.097   6.439  0.9331  0.1043 -0.1345
   92MOL    C4638448   1.376   4.074   6.560 -0.4242 -0.5267 -0.9045
   92MOL    C4738449   1.382   4.181   6.672  0.1151 -0.6016  0.7847
   92MOL    C4838450   1.257   4.158   6.766 -0.2841 -0.1889 -0.6180
   92MOL    C4938451   1.262   4.253   6.891 -0.7631 -0.1297 -0.4640
   92MOL    C5038452   1.126   4.281   6.953  0.3571 -0.8104 -0.1971
   92MOL    H5138453   1.337   3.968   6.313  1.6677 -0.4552 -2.5423
   92MOL    H5238454   1.478   4.031   6.232  2.8259  0.2803  1.0061
   92MOL    H5338455   1.395   4.173   6.394 -0.6581 -0.9763  0.2562
   92MOL    H5438456   1.387   3.976   6.605 -0.3407 -0.5663 -1.0099
   92MOL    H5538457   1.274   4.073   6.521 -1.0715 -2.9326  0.7153
   92MOL    H5638458   1.478   4.187   6.724  0.7491 -0.3454 -0.4065
   92MOL    H5738459   1.366   4.278   6.627 -3.9147 -1.3732  0.3826
   92MOL    H5838460   1.241   4.058   6.805  0.5479  1.0564  3.1851
   92MOL    H5938461   1.167   4.184   6.710 -1.1134  0.8724  1.1514
   92MOL    H6038462   1.314   4.343   6.857  1.8689 -0.9546  1.2522
   92MOL    H6138463   1.329   4.215   6.969  0.1686  0.7293 -0.8282
   92MOL    H6238464   1.084   4.186   6.983 -0.7721 -0.2126  0.1466
   92MOL    H6338465   1.063   4.321   6.874 -1.9375  1.1936  2.5231
   92MOL    H6438466   1.140   4.348   7.038 -0.3530 -0.1305 -0.6026
   92MOL    C6538467   1.612   4.136   6.460 -0.1623 -0.3988 -0.2143
   92MOL    C6638468   1.677   4.213   6.338 -0.3096 -0.0628  0.5485
   92MOL    C6738469   1.833   4.185   6.348 -0.0256  0.4231 -0.3567
   92MOL    C6838470   1.919   4.262   6.243  1.1249 -0.1212 -0.1180
   92MOL    C6938471   1.902   4.194   6.109 -0.2933 -0.0630  0.2805
   92MOL    C7038472   2.014   4.241   6.013 -0.1745 -0.2213  0.4274
   92MOL    C7138473   2.005   4.147   5.897 -0.3546  0.4957  0.4961
   92MOL    H7238474   1.635   4.202   6.544 -0.1758 -0.8703  0.1682
   92MOL    H7338475   1.662   4.039   6.464 -1.0092 -0.8225  0.1461
   92MOL    H7438476   1.641   4.160   6.250  2.9935 -1.5560 -0.0019
   92MOL    H7538477   1.878   4.218   6.441  0.3991  1.0011 -0.7655
   92MOL    H7638478   1.851   4.078   6.346  3.0141  0.8525  1.2374
   92MOL    H7738479   1.888   4.367   6.238 -0.7371 -0.7350 -2.4486
   92MOL    H7838480   2.024   4.258   6.272  1.0168 -0.5222  0.2109
   92MOL    H7938481   1.913   4.089   6.136  2.5913  0.2812  0.5361
   92MOL    H8038482   1.798   4.203   6.075 -0.4866 -0.1863  0.8294
   92MOL    H8138483   2.110   4.232   6.063  0.3054  4.1072  0.4783
   92MOL    H8238484   2.001   4.346   5.986  0.3523 -0.2274  0.1518
   92MOL    H8338485   1.910   4.166   5.847 -0.7236 -0.4090  0.8487
   92MOL    H8438486   2.087   4.166   5.827 -0.7579  0.2300 -0.0539
   92MOL    H8538487   2.014   4.042   5.923 -0.7946  0.7714  1.7976
   92MOL    C8638488   1.639   4.369   6.332 -0.3676  0.2888 -0.7048
   92MOL    C8738489   1.619   4.433   6.189  0.5126  0.0380  0.2319
   92MOL    C8838490   1.496   4.375   6.118 -0.0447 -0.1182  0.1090
   92MOL    C8938491   1.536   4.335   5.972 -0.3507 -0.4531 -0.8457
   92MOL    C9038492   1.407   4.283   5.904  0.2594  0.3175  0.4391
   92MOL    C9138493   1.434   4.240   5.754  0.0984 -0.5748 -0.6363
   92MOL    C9238494   1.298   4.189   5.693  0.8507  0.4326  0.1054
   92MOL    H9338495   1.542   4.381   6.381  0.2084 -1.7004  1.0514
   92MOL    H9438496   1.708   4.431   6.390  2.0346 -0.5588 -2.5692
   92MOL    H9538497   1.713   4.417   6.136  0.3469  0.6695 -0.2662
   92MOL    H9638498   1.472   4.285   6.175  1.8941  0.5318  1.9887
   92MOL    H9738499   1.406   4.438   6.118 -0.6846 -1.0139 -0.2163
   92MOL    H9838500   1.571   4.419   5.912  1.2360 -0.3368  0.2221
   92MOL    H9938501   1.620   4.266   5.966  0.5812  0.4425  1.1734
   92MOL   H10038502   1.332   4.362   5.911 -1.8623 -1.7849  1.9011
   92MOL   H10138503   1.358   4.204   5.959 -0.4030 -0.1931 -0.8651
   92MOL   H10238504   1.492   4.315   5.700  1.1573 -1.4844 -0.7773
   92MOL   H10338505   1.509   4.160   5.750  3.0740  2.1227 -0.4780
   92MOL   H10438506   1.279   4.185   5.586  0.2199  5.8434 -0.1177
   92MOL   H10538507   1.218   4.245   5.742 -1.1495 -0.6243 -1.8725
   92MOL   H10638508   1.284   4.086   5.723  2.5639 -0.1688 -1.0984
   92MOL   C10738509   1.597   4.582   6.210 -0.8352 -0.5666  0.0066
   92MOL   C10838510   1.619   4.665   6.084 -0.1358 -0.2881 -0.6427
   92MOL   C10938511   1.578   4.812   6.102  0.4825  0.0411  0.5713
   92MOL   C11038512   1.663   4.892   6.205 -0.3246 -0.4581 -0.4241
   92MOL   C11138513   1.617   5.038   6.197 -0.2280 -0.2686 -0.6841
   92MOL   C11238514   1.687   5.127   6.297 -0.4094  0.5409 -0.2587
   92MOL   C11338515   1.630   5.273   6.300 -0.5734 -0.3622 -0.0295
   92MOL   H11438516   1.667   4.618   6.285 -3.0948 -0.0876  1.9431
   92MOL   H11538517   1.500   4.600   6.258 -0.9286  0.2190 -0.4684
   92MOL   H11638518   1.539   4.625   6.021  1.2772  1.3699 -3.6088
   92MOL   H11738519   1.474   4.809   6.134  0.9405 -2.8789  1.9775
   92MOL   H11838520   1.582   4.859   6.004 -1.4555  3.0789  1.8771
   92MOL   H11938521   1.657   4.853   6.307 -1.7721  0.7489 -0.0178
   92MOL   H12038522   1.768   4.879   6.178 -0.3454  1.3678 -1.4708
   92MOL   H12138523   1.509   5.038   6.207 -0.0868  1.0163  0.9358
   92MOL   H12238524   1.634   5.073   6.095  0.1000  0.4729 -0.3793
   92MOL   H12338525   1.675   5.086   6.398 -0.2969  0.8186 -0.1322
   92MOL   H12438526   1.790   5.149   6.270 -0.4913 -0.3695 -1.3319
   92MOL   H12538527   1.671   5.320   6.389  0.4134 -1.1561 -0.0402
   92MOL   H12638528   1.657   5.334   6.213  1.9188  0.8546  1.5300
   92MOL   H12738529   1.522   5.274   6.309 -0.6932 -0.3530 -1.2893
   92MOL   C12838530   1.762   4.653   6.028 -0.3584 -0.5756  0.3806
   92MOL   C12938531   1.809   4.752   5.920  0.0001  0.2181 -0.3081
   92MOL   C13038532   1.720   4.734   5.794 -0.6710 -0.0069  0.6859
   92MOL   C13138533   1.720   4.861   5.703 -0.1246 -0.2158 -0.0423
   92MOL   C13238534   1.592   4.888   5.627  0.0031  0.0540  0.3408
   92MOL   C13338535   1.598   5.018   5.548  0.2019  0.6888 -0.1014
   92MOL   C13438536   1.722   5.042   5.465 -0.5062 -0.1282  0.5164
   92MOL   H13538537   1.828   4.656   6.114 -1.2705 -1.7428  1.1346
   92MOL   H13638538   1.777   4.551   5.993  1.0521  0.3494 -1.7829
   92MOL   H13738539   1.798   4.858   5.945  0.1047  0.0225  0.5725
   92MOL   H13838540   1.619   4.726   5.835 -0.5043 -0.7339  0.9639
   92MOL   H13938541   1.756   4.647   5.739  0.0847  0.1186  0.9864
   92MOL   H14038542   1.794   4.836   5.627 -0.4530 -1.8366  0.1387
   92MOL   H14138543   1.759   4.948   5.756 -3.2369  0.0986  1.8529
   92MOL   H14238544   1.509   4.905   5.695 -0.2132  2.5529 -0.4795
   92MOL   H14338545   1.567   4.803   5.563 -1.3303 -0.8156  1.9745
   92MOL   H14438546   1.589   5.094   5.626  1.6019  0.7863 -0.0272
   92MOL   H14538547   1.515   5.032   5.479 -0.4861 -0.6893  0.4444
   92MOL   H14638548   1.724   5.142   5.423 -1.0391  0.4823  1.9128
   92MOL   H14738549   1.722   4.966   5.386 -1.2029 -1.5539  1.8724
   92MOL   H14838550   1.819   5.032   5.515  0.3867  0.9223 -0.9640
   92MOL   C14938551   1.951   4.728   5.869  0.4717  0.3020  0.2409
   92MOL   C15038552   2.070   4.783   5.968 -0.2194 -1.0214 -0.8264
   92MOL   C15138553   2.081   4.932   5.962  0.6157 -0.0525 -0.5380
   92MOL   C15238554   2.118   4.990   5.821 -0.6334 -0.2711  0.6000
   92MOL   C15338555   2.171   5.138   5.837 -0.2409  0.6152  0.3846
   92MOL   C15438556   2.196   5.200   5.695 -0.2444  0.0840  1.0686
   92MOL   C15538557   2.271   5.337   5.696  0.4322  0.4387 -0.3681
   92MOL   H15638558   1.969   4.621   5.858 -0.4601  0.0662  0.9783
   92MOL   H15738559   1.973   4.749   5.764  1.6609  1.5452  0.7304
   92MOL   H15838560   2.039   4.756   6.070 -0.5162 -0.5969 -0.8050
   92MOL   H15938561   1.991   4.975   6.006  1.4556  0.6701  0.5115
   92MOL   H16038562   2.161   4.967   6.026  1.1077 -0.7765 -0.7528
   92MOL   H16138563   2.034   4.979   5.753 -0.2546 -0.9092  0.2308
   92MOL   H16238564   2.201   4.940   5.771 -3.4212 -2.8850 -1.6353
   92MOL   H16338565   2.266   5.145   5.891 -1.4509  0.3699  2.6098
   92MOL   H16438566   2.107   5.205   5.894  0.7356 -0.5287  2.9321
   92MOL   H16538567   2.106   5.213   5.635  0.6260 -0.3949 -0.3616
   92MOL   H16638568   2.247   5.126   5.633  0.8491  1.8539 -0.2277
   92MOL   H16738569   2.213   5.416   5.744  1.1605  0.9813 -0.3678
   92MOL   H16838570   2.283   5.369   5.592 -1.5357 -1.3472 -1.1810
   92MOL   H16938571   2.369   5.324   5.741 -0.9437 -1.1827  2.2499
   92MOL   C17038572   2.210   4.715   5.959 -0.4985 -0.9043 -0.0683
   92MOL   C17138573   2.199   4.566   6.002  0.1827  0.3894  1.1948
   92MOL   C17238574   2.320   4.485   5.945 -0.9018  0.2370 -0.2024
   92MOL   C17338575   2.296   4.445   5.799 -0.3576 -0.0385  0.4605
   92MOL   C17438576   2.414   4.365   5.733  0.0915 -0.2465 -0.3587
   92MOL   C17538577   2.454   4.242   5.807 -0.3471 -0.3436 -0.4298
   92MOL   C17638578   2.579   4.181   5.763  0.3658  0.2132 -0.3954
   92MOL   H17738579   2.277   4.773   6.022 -1.0925  2.0763 -2.0966
   92MOL   H17838580   2.234   4.726   5.854 -0.0212  1.1793  0.2404
   92MOL   H17938581   2.119   4.518   5.946 -0.1217  0.4191  1.5992
   92MOL   H18038582   2.313   4.393   6.003  0.7991 -0.2034 -0.6841
   92MOL   H18138583   2.419   4.528   5.954  0.6041 -2.7033 -1.8743
   92MOL   H18238584   2.286   4.528   5.730  0.8057  0.4226  0.8402
   92MOL   H18338585   2.206   4.385   5.791 -0.2333 -0.5415  2.4807
   92MOL   H18438586   2.498   4.434   5.728 -1.0377  1.4008  2.1612
   92MOL   H18538587   2.399   4.340   5.628  0.4955 -1.9599 -0.0182
   92MOL   H18638588   2.373   4.170   5.792  1.3042 -2.0272 -1.4437
   92MOL   H18738589   2.459   4.269   5.913  0.1741 -0.4519 -0.4295
   92MOL   H18838590   2.608   4.084   5.803 -0.4330  0.5337  0.9552
   92MOL   H18938591   2.667   4.233   5.800  0.5287 -0.2069 -0.1899
   92MOL   H19038592   2.599   4.192   5.656 -0.0688 -0.2162 -0.5214
   92MOL   C19138593   2.175   4.539   6.155 -0.2567 -0.0179  1.1397
   92MOL   C19238594   2.226   4.633   6.263 -0.4679  0.2167  0.2149
   92MOL   C19338595   2.152   4.612   6.396 -0.3568  0.3351 -0.3985
   92MOL   C19438596   2.156   4.477   6.463 -0.4149  0.0817 -0.0512
   92MOL   C19538597   2.100   4.479   6.606 -0.4126  0.2459 -0.3946
   92MOL   C19638598   2.144   4.367   6.697  0.5770 -0.3909  0.2747
   92MOL   C19738599   2.129   4.402   6.838  0.3621  0.0100  0.0396
   92MOL   H19838600   2.203   4.437   6.180 -1.0365 -0.2165  1.2208
   92MOL   H19938601   2.066   4.536   6.160 -0.4972 -0.2029 -2.4455
   92MOL   H20038602   2.189   4.728   6.224 -0.7918 -0.9255 -2.3284
   92MOL   H20138603   2.051   4.620   6.354 -0.9829  0.3404  1.0563
   92MOL   H20238604   2.172   4.701   6.455  2.3896 -1.4025  1.4055
   92MOL   H20338605   2.252   4.427   6.457 -0.5271 -0.0287 -0.9608
   92MOL   H20438606   2.088   4.410   6.410  0.8339 -0.4309 -1.0140
   92MOL   H20538607   2.125   4.577   6.647  0.3060  0.6042 -1.6816
   92MOL   H20638608   1.992   4.469   6.613 -0.2391 -1.4168  0.0275
   92MOL   H20738609   2.250   4.379   6.674  0.6589 -1.7603 -0.1441
   92MOL   H20838610   2.106   4.270   6.666 -1.1605  0.0741  0.9416
   92MOL   H20938611   2.150   4.310   6.892  0.1226  0.3967  0.8088
   92MOL   H21038612   2.028   4.431   6.867 -0.4466 -1.5541 -1.1496
   92MOL   H21138613   2.207   4.463   6.885  1.4785 -1.4297  0.0811
   92MOL   C21238614   2.386   4.632   6.283  0.9681 -0.2279 -0.8736
   92MOL   C21338615   2.436   4.740   6.381  0.1240 -0.6801  0.0705
   92MOL   C21438616   2.468   4.678   6.517 -0.2373  0.7305 -0.2610
   92MOL   C21538617   2.501   4.765   6.641  0.3726  0.7766  0.2206
   92MOL   C21638618   2.525   4.684   6.766  1.4221  0.3806  0.3991
   92MOL   C21738619   2.620   4.763   6.862 -0.3067 -0.2286 -0.8226
   92MOL   C21838620   2.628   4.696   6.999  1.0275 -0.0255 -0.9895
   92MOL   H21938621   2.443   4.647   6.191  0.7870 -3.1058 -1.5152
   92MOL   H22038622   2.411   4.530   6.312 -0.2205  0.1213  1.5042
   92MOL   H22138623   2.354   4.811   6.392  0.6854  0.1733 -1.2540
   92MOL   H22238624   2.383   4.617   6.548 -0.3683  1.6376  1.1628
   92MOL   H22338625   2.556   4.614   6.511 -1.8007 -1.8230  2.5991
   92MOL   H22438626   2.414   4.831   6.644  0.7894  1.3619 -0.3413
   92MOL   H22538627   2.591   4.825   6.626  1.9325 -1.8133 -1.1296
   92MOL   H22638628   2.437   4.668   6.829  0.1022  2.2324 -0.9208
   92MOL   H22738629   2.565   4.584   6.750 -1.6100 -1.1362  1.9019
   92MOL   H22838630   2.724   4.772   6.832  0.6457 -1.7942  1.8217
   92MOL   H22938631   2.587   4.866   6.871 -0.7350 -0.3010 -1.4916
   92MOL   H23038632   2.689   4.606   6.994 -0.1306 -1.3092  4.5562
   92MOL   H23138633   2.528   4.683   7.042  1.8965  0.5569  1.2766
   92MOL   H23238634   2.688   4.749   7.073  1.0756 -1.8829  0.3374
   92MOL   C23338635   2.563   4.811   6.333 -0.3288  0.0445  0.3251
   92MOL   C23438636   2.537   4.910   6.220 -0.2674  0.3999  0.1165
   92MOL   C23538637   2.480   5.052   6.265  0.5272 -0.0380  0.3244
   92MOL   C23638638   2.585   5.146   6.333  0.0953 -0.1599  0.2716
   92MOL   C23738639   2.516   5.258   6.416  0.1769 -0.0437  0.0380
   92MOL   C23838640   2.445   5.216   6.544  0.0982 -0.1258  0.8777
   92MOL   C23938641   2.531   5.177   6.662  0.0976 -0.1403  1.1770
   92MOL   H24038642   2.634   4.736   6.299 -0.1486 -0.6427  2.1538
   92MOL   H24138643   2.610   4.866   6.415 -0.5537  0.1402  0.3892
   92MOL   H24238644   2.462   4.865   6.154 -1.9588 -0.0820  2.3219
   92MOL   H24338645   2.413   5.021   6.345  1.2470  1.7965  1.6799
   92MOL   H24438646   2.409   5.097   6.197  0.6870  3.7055  2.4903
   92MOL   H24538647   2.651   5.187   6.256 -0.8032  0.1890 -0.3169
   92MOL   H24638648   2.655   5.099   6.402  1.4079 -2.4316 -2.5123
   92MOL   H24738649   2.442   5.302   6.349  0.2636  1.0821  0.6719
   92MOL   H24838650   2.602   5.318   6.445  2.7218 -2.8402 -1.5039
   92MOL   H24938651   2.384   5.296   6.585 -0.8350 -0.1319 -0.4642
   92MOL   H25038652   2.368   5.140   6.534  0.9875 -0.7951 -1.0149
   92MOL   H25138653   2.477   5.193   6.755 -0.1868  1.1102  0.8173
   92MOL   H25238654   2.551   5.071   6.654  3.2624  0.4804  0.1476
   92MOL   H25338655   2.623   5.236   6.662  0.1341 -0.1829  0.2915
   92MOL   C25438656   2.655   4.924   6.122  0.7262  0.3254  0.6707
   92MOL   C25538657   2.638   5.011   5.999 -0.0771 -1.6006 -0.3202
   92MOL   C25638658   2.549   4.943   5.883 -0.6362  0.4444 -1.0088
   92MOL   C25738659   2.615   4.818   5.811 -0.0414 -0.1498  0.0236
   92MOL   C25838660   2.535   4.780   5.683 -1.0466  0.5026  0.4125
   92MOL   C25938661   2.611   4.678   5.596 -0.3203 -0.6393  0.4957
   92MOL   C26038662   2.527   4.652   5.469  0.5683 -0.5407  0.7543
   92MOL   H26138663   2.675   4.823   6.088  0.2503 -0.0103  1.3711
   92MOL   H26238664   2.746   4.955   6.174  0.3539  0.7726  1.0648
   92MOL   H26338665   2.572   5.091   6.032  0.3353 -1.1820 -0.5033
   92MOL   H26438666   2.531   5.022   5.811  1.1603 -0.1375 -2.1332
   92MOL   H26538667   2.446   4.914   5.900 -0.4714 -0.1944 -1.0850
   92MOL   H26638668   2.721   4.842   5.797 -0.4412  0.7488 -1.6077
   92MOL   H26738669   2.611   4.727   5.871 -2.8973 -0.0435  0.0305
   92MOL   H26838670   2.521   4.867   5.619  1.6006 -0.2739 -1.3294
   92MOL   H26938671   2.437   4.741   5.709 -0.3422 -0.0771  2.2870
   92MOL   H27038672   2.702   4.729   5.565  1.0468 -1.1447  3.5020
   92MOL   H27138673   2.641   4.587   5.648 -1.5721 -1.2030  0.2628
   92MOL   H27238674   2.586   4.609   5.388  0.7269  0.3843  0.3830
   92MOL   H27338675   2.448   4.581   5.495  1.5980 -1.7264  0.7257
   92MOL   H27438676   2.486   4.735   5.412 -0.4312 -0.4386  1.6004
   92MOL   C27538677   2.768   5.059   5.938 -0.2146  0.2057  0.0893
   92MOL   C27638678   2.824   5.191   6.000 -0.4744  0.1141 -0.2329
   92MOL   C27738679   2.752   5.320   5.958 -0.7710 -0.7895  0.0589
   92MOL   C27838680   2.802   5.442   6.043  0.4833 -0.1449 -0.9301
   92MOL   C27938681   2.722   5.574   6.025  0.4040  0.1348 -0.3710
   92MOL   C28038682   2.792   5.680   6.118 -0.4691  0.5702 -0.0044
   92MOL   C28138683   2.735   5.818   6.099  0.3115  0.0271  0.2099
   92MOL   H28238684   2.754   5.091   5.835 -1.1822  2.1119  0.7807
   92MOL   H28338685   2.836   4.975   5.947 -0.1929  0.0214 -1.6541
   92MOL   H28438686   2.807   5.193   6.107  2.6578  0.9084  0.2895
   92MOL   H28538687   2.764   5.349   5.853  0.0462  0.5674  0.5088
   92MOL   H28638688   2.646   5.304   5.977 -1.4440  1.9981 -1.1366
   92MOL   H28738689   2.909   5.460   6.040  0.7434 -1.0294  2.0521
   92MOL   H28838690   2.803   5.414   6.148  1.8904  1.9472 -0.3581
   92MOL   H28938691   2.618   5.550   6.048 -0.0431 -0.8609 -3.1556
   92MOL   H29038692   2.724   5.610   5.922  0.0258 -2.1223 -1.1901
   92MOL   H29138693   2.770   5.655   6.222  0.6780  2.7892  0.8131
   92MOL   H29238694   2.901   5.685   6.117 -0.3463 -0.8836  2.0080
   92MOL   H29338695   2.795   5.900   6.138 -0.4359  0.6555  0.0400
   92MOL   H29438696   2.637   5.826   6.145  0.3363  1.2501  0.0583
   92MOL   H29538697   2.724   5.832   5.991  2.3712  0.5020  0.0395
   92MOL   C29638698   2.974   5.206   5.960 -0.0100  0.3810  0.0789
   92MOL   C29738699   3.014   5.211   5.815 -0.2521 -0.6365 -0.1585
   92MOL   C29838700   3.080   5.080   5.769  0.1496  0.5127 -0.6876
   92MOL   C29938701   3.223   5.052   5.821  0.3051  0.0368  1.0769
   92MOL   C30038702   3.268   4.905   5.803  0.5002 -1.1070 -0.1536
   92MOL   C30138703   3.409   4.870   5.854 -0.7685  0.6136  0.6164
   92MOL   C30238704   3.430   4.720   5.834 -0.2311  0.0100  0.3907
   92MOL   H30338705   3.023   5.282   6.021 -0.1647 -0.0114  0.6999
   92MOL   H30438706   3.024   5.118   6.001 -0.4455  0.2597  0.3576
   92MOL   H30538707   2.924   5.212   5.753 -0.0367  1.4781 -0.4471
   92MOL   H30638708   3.015   4.997   5.798 -0.7087  1.4691  0.1642
   92MOL   H30738709   3.082   5.084   5.660  0.8863  2.0045 -0.6395
   92MOL   H30838710   3.225   5.079   5.927  0.8492  0.0803  1.0573
   92MOL   H30938711   3.290   5.115   5.762 -1.6021  2.2081  1.1677
   92MOL   H31038712   3.273   4.898   5.694 -1.4915  0.2125 -0.3697
   92MOL   H31138713   3.194   4.837   5.846  0.9064 -1.4047  0.0680
   92MOL   H31238714   3.483   4.913   5.788  1.3216 -2.1259  1.0886
   92MOL   H31338715   3.434   4.908   5.953 -1.2039  0.4007  0.8153
   92MOL   H31438716   3.435   4.690   5.730 -0.0872 -0.7847  0.6214
   92MOL   H31538717   3.536   4.712   5.860  0.0747  0.0763 -0.8100
   92MOL   H31638718   3.371   4.650   5.892 -0.8114 -2.8555 -3.4801
   92MOL   C31738719   3.107   5.335   5.796  0.4080 -0.3432 -0.5142
   92MOL   C31838720   3.145   5.359   5.646 -0.0325  0.5685  1.0154
   92MOL   C31938721   3.023   5.365   5.554 -0.3513 -0.2256 -0.0270
   92MOL   C32038722   2.912   5.466   5.591 -0.1597 -0.3579  0.4586
   92MOL   C32138723   2.791   5.455   5.492  0.0756  0.1640  0.5506
   92MOL   C32238724   2.701   5.332   5.531  0.0904 -0.2301  0.6160
   92MOL   C32338725   2.576   5.310   5.447  0.5107  0.6658  0.1721
   92MOL   H32438726   3.187   5.347   5.868 -0.9847 -0.8474  1.1599
   92MOL   H32538727   3.053   5.425   5.826  1.4794  0.0370  0.2837
   92MOL   H32638728   3.215   5.279   5.622 -1.3000 -0.3421  0.3621
   92MOL   H32738729   2.986   5.262   5.548  0.9889 -0.6511 -1.0537
   92MOL   H32838730   3.061   5.377   5.452  1.0533  0.2989  0.5496
   92MOL   H32938731   2.947   5.568   5.578  0.3050 -0.6314 -0.5248
   92MOL   H33038732   2.876   5.454   5.693  0.6285  2.5752  1.1216
   92MOL   H33138733   2.837   5.443   5.394 -1.4465 -2.3025  0.0824
   92MOL   H33238734   2.744   5.553   5.499  1.9699  1.2447 -1.1040
   92MOL   H33338735   2.660   5.360   5.628  0.0783 -1.0371  0.8493
   92MOL   H33438736   2.764   5.243   5.533  1.1011  0.2736 -3.8393
   92MOL   H33538737   2.608   5.311   5.343  0.4555 -0.6743  0.1435
   92MOL   H33638738   2.499   5.382   5.475 -0.6862 -1.5979  2.9043
   92MOL   H33738739   2.537   5.211   5.469  0.7939  0.1075 -1.7686
   92MOL   C33838740   3.212   5.503   5.635  0.5397 -0.0489  0.1135
   92MOL   C33938741   3.357   5.510   5.687 -0.2357  0.2579  0.1258
   92MOL   C34038742   3.403   5.653   5.681  0.5213  0.4200  0.3329
   92MOL   C34138743   3.430   5.717   5.537  0.3880  0.5343  0.3806
   92MOL   C34238744   3.510   5.847   5.566  0.3090  0.3386 -0.3368
   92MOL   C34338745   3.539   5.932   5.439 -0.2506 -0.0118 -0.0374
   92MOL   C34438746   3.420   5.963   5.350  0.2127 -0.7437 -0.4292
   92MOL   H34538747   3.151   5.577   5.688  2.6736  2.5652 -1.0124
   92MOL   H34638748   3.228   5.546   5.537  2.7725  1.9800  1.3212
   92MOL   H34738749   3.362   5.482   5.792 -0.5079 -1.3760 -0.2816
   92MOL   H34838750   3.338   5.728   5.728  1.3440  1.0796  0.4344
   92MOL   H34938751   3.490   5.659   5.746  0.0410  2.1954  0.8622
   92MOL   H35038752   3.335   5.735   5.486  1.4512 -0.0375 -1.8616
   92MOL   H35138753   3.495   5.664   5.468  0.0009  0.2062  0.2690
   92MOL   H35238754   3.449   5.909   5.633  1.2056  1.3344 -0.4356
   92MOL   H35338755   3.597   5.809   5.618  0.3132 -0.2738 -0.7923
   92MOL   H35438756   3.572   6.032   5.467  0.0326 -0.4097  1.0555
   92MOL   H35538757   3.616   5.880   5.383 -0.7530 -0.4092 -0.3707
   92MOL   H35638758   3.445   6.033   5.270  4.2689 -1.1006  0.4508
   92MOL   H35738759   3.336   6.011   5.402  0.7749  0.5214 -0.6697
   92MOL   H35838760   3.386   5.868   5.309  1.7469 -0.2979 -2.8142
   92MOL   C35938761   3.450   5.419   5.598 -0.0835 -0.2256 -0.0949
   92MOL   C36038762   3.519   5.309   5.680 -0.2196 -0.7245 -0.6011
   92MOL   C36138763   3.585   5.204   5.587  0.5721 -0.1555  0.7307
   92MOL   C36238764   3.498   5.116   5.497 -0.1103  0.8558 -0.9702
   92MOL   C36338765   3.556   4.974   5.468 -0.1454  0.2880  0.7485
   92MOL   C36438766   3.485   4.912   5.350 -0.1586 -0.6101  0.2459
   92MOL   C36538767   3.549   4.777   5.314  0.2870  0.5224 -0.4753
   92MOL   H36638768   3.526   5.483   5.552  0.9199 -0.1443  1.6361
   92MOL   H36738769   3.395   5.369   5.518  2.3225 -2.0321 -0.6977
   92MOL   H36838770   3.436   5.266   5.737  0.5604 -1.0068  0.3531
   92MOL   H36938771   3.646   5.244   5.506  0.1915 -1.0621 -0.0184
   92MOL   H37038772   3.647   5.141   5.651  0.3254  0.1277  1.2449
   92MOL   H37138773   3.403   5.096   5.546  0.9561 -1.3959  0.2755
   92MOL   H37238774   3.481   5.177   5.409  0.6179 -2.2652 -3.3738
   92MOL   H37338775   3.663   4.986   5.451 -0.1013 -1.4531 -0.2894
   92MOL   H37438776   3.554   4.914   5.558 -2.9713  0.1965  0.6622
   92MOL   H37538777   3.377   4.899   5.364 -0.7273  0.6627 -2.6191
   92MOL   H37638778   3.503   4.982   5.269  0.3524  0.0671  0.9384
   92MOL   H37738779   3.477   4.714   5.261 -3.0109  1.1137  3.0219
   92MOL   H37838780   3.643   4.788   5.260  0.9610  0.1951  0.6255
   92MOL   H37938781   3.586   4.725   5.402  0.7530  1.0182 -0.3747
   92MOL   C38038782   3.623   5.363   5.781  0.0010 -0.1281  0.3618
   92MOL   C38138783   3.684   5.278   5.893  0.4659 -0.8425 -0.5717
   92MOL   C38238784   3.798   5.358   5.965 -0.4553  0.2531  0.1546
   92MOL   C38338785   3.868   5.272   6.071 -0.2093  0.0432 -0.0842
   92MOL   C38438786   3.990   5.341   6.131 -0.4608  0.4236  0.8773
   92MOL   C38538787   4.075   5.243   6.217 -0.1272 -0.1622  0.4608
   92MOL   C38638788   4.018   5.218   6.358  0.1633 -0.2350  0.3065
   92MOL   H38738789   3.708   5.394   5.720 -1.9164  0.3457 -2.1457
   92MOL   H38838790   3.588   5.457   5.823 -0.4283  0.6650 -1.6932
   92MOL   H38938791   3.731   5.190   5.848 -1.0538 -1.6861 -0.5358
   92MOL   H39038792   3.747   5.445   6.006  2.2560  2.0173 -0.0834
   92MOL   H39138793   3.879   5.383   5.898 -2.4500 -0.3914 -2.5874
   92MOL   H39238794   3.803   5.243   6.153 -0.7264  1.0034 -0.1455
   92MOL   H39338795   3.911   5.184   6.024  1.5662  0.9435 -0.1969
   92MOL   H39438796   4.049   5.378   6.047 -1.1347  2.6461  1.3412
   92MOL   H39538797   3.965   5.426   6.195 -0.8017  0.9176  0.0970
   92MOL   H39638798   4.173   5.291   6.224 -0.1798  0.2491 -1.4080
   92MOL   H39738799   4.100   5.150   6.165 -1.3892 -0.7766  0.9351
   92MOL   H39838800   3.935   5.148   6.358 -0.0740  0.0352  1.2062
   92MOL   H39938801   3.987   5.316   6.392  0.6757  0.8236 -2.2093
   92MOL   H40038802   4.099   5.184   6.424 -0.1250  0.2378  0.9070
   92MOL   C40138803   3.576   5.226   5.995 -0.4339  0.4424 -0.0100
   92MOL   C40238804   3.490   5.327   6.066  0.6003  0.4083 -0.1853
   92MOL   C40338805   3.384   5.254   6.150  0.2111  0.5856  0.5235
   92MOL   C40438806   3.269   5.350   6.201 -0.1210 -0.1085 -0.1543
   92MOL   C40538807   3.164   5.268   6.285  0.2021 -0.3526  0.1603
   92MOL   C40638808   3.045   5.351   6.334 -0.0461  0.0929  0.1963
   92MOL   C40738809   2.940   5.255   6.407 -0.4235  0.3441  0.2956
   92MOL   H40838810   3.620   5.154   6.064 -0.9013 -0.1908 -0.3600
   92MOL   H40938811   3.510   5.160   5.938 -0.6612  0.9037 -0.2857
   92MOL   H41038812   3.435   5.383   5.991  0.5694  2.3826  1.2796
   92MOL   H41138813   3.448   5.205   6.224 -1.9503 -3.2753 -0.0269
   92MOL   H41238814   3.333   5.182   6.086 -0.6146 -0.1767  2.0036
   92MOL   H41338815   3.232   5.402   6.112  1.0241 -0.6030 -0.9362
   92MOL   H41438816   3.311   5.432   6.260  0.7080 -0.5729 -0.0825
   92MOL   H41538817   3.150   5.175   6.230 -0.8837 -0.7012  1.0038
   92MOL   H41638818   3.213   5.229   6.374 -0.6558 -2.8768 -0.4236
   92MOL   H41738819   3.088   5.424   6.403  1.6371 -1.1611  0.4766
   92MOL   H41838820   3.001   5.410   6.253  2.5433 -1.0734 -2.1133
   92MOL   H41938821   2.978   5.186   6.481 -2.8197  0.4595  1.6813
   92MOL   H42038822   2.885   5.189   6.340 -0.4276 -0.8987  1.5029
   92MOL   H42138823   2.858   5.318   6.442  1.9814  2.4548  2.2988
   92MOL   H42238824   3.549   5.397   6.126 -3.0310  2.4228  1.1553
   93MOL     C138825   2.679   5.853   4.862  0.0946  0.3263  0.4272
   93MOL     C238826   2.805   5.881   4.949  0.5333  0.1162  0.0718
   93MOL     C338827   2.907   5.762   4.964 -0.0284  0.4049  0.7968
   93MOL     C438828   3.053   5.789   5.011  0.6699 -0.6839 -0.6194
   93MOL     C538829   3.130   5.884   4.918  0.0599 -0.7261  0.3612
   93MOL     C638830   3.271   5.920   4.968 -0.3645  0.0806 -0.2643
   93MOL     C738831   3.362   6.012   4.876 -0.3996 -0.1430  0.4986
   93MOL     H838832   2.704   5.827   4.759 -0.6206 -1.0720  0.5996
   93MOL     H938833   2.622   5.945   4.853 -1.1677 -0.5178 -0.3651
   93MOL    H1038834   2.857   5.948   4.881 -0.8399  0.0568 -1.0524
   93MOL    H1138835   2.863   5.682   5.023 -3.8036  0.1252 -2.2599
   93MOL    H1238836   2.907   5.720   4.864 -0.8387 -1.8910  1.7339
   93MOL    H1338837   3.050   5.832   5.111  0.7040 -0.0868 -0.8774
   93MOL    H1438838   3.107   5.696   5.029 -1.1468 -1.4904  0.8446
   93MOL    H1538839   3.091   5.981   4.890  1.5854 -0.2346 -0.1239
   93MOL    H1638840   3.142   5.827   4.825 -1.0194 -1.4253  0.6504
   93MOL    H1738841   3.322   5.827   4.993 -0.9229  0.5627  2.9644
   93MOL    H1838842   3.261   5.956   5.071 -0.6290  0.7152 -0.5075
   93MOL    H1938843   3.318   6.110   4.861  0.5472  0.2033 -0.0303
   93MOL    H2038844   3.356   5.977   4.773  1.6143  0.8688  0.0335
   93MOL    H2138845   3.466   6.013   4.906 -0.9465  1.8793  2.5077
   93MOL    H2238846   2.615   5.776   4.906 -0.5691  2.0739  2.6095
   93MOL    C2338847   2.763   5.940   5.085  0.3135 -0.3589 -0.4750
   93MOL    C2438848   2.693   6.075   5.088  0.2094  0.3317  0.4536
   93MOL    C2538849   2.778   6.189   5.025  0.0552  0.9781 -0.5960
   93MOL    C2638850   2.892   6.236   5.113 -0.2574  0.4567  0.2168
   93MOL    C2738851   3.017   6.267   5.036 -0.6650 -0.3696  0.0422
   93MOL    C2838852   3.135   6.272   5.141  0.7517 -0.0584  0.0170
   93MOL    C2938853   3.130   6.397   5.225  0.1945  0.0306 -0.4906
   93MOL    H3038854   2.712   5.859   5.136  0.6242 -2.4174 -3.2947
   93MOL    H3138855   2.854   5.953   5.143 -0.3224  3.2487 -0.1443
   93MOL    H3238856   2.609   6.062   5.019  1.3737  1.2129 -1.1667
   93MOL    H3338857   2.721   6.280   5.005  1.7861  1.9832 -1.1043
   93MOL    H3438858   2.802   6.157   4.923  0.6102  0.7450 -0.3954
   93MOL    H3538859   2.924   6.153   5.176  1.4494  0.1220 -1.0685
   93MOL    H3638860   2.850   6.308   5.184 -0.3295  1.6641 -1.0201
   93MOL    H3738861   3.012   6.361   4.981 -0.3291 -0.6256 -0.4296
   93MOL    H3838862   3.034   6.189   4.962 -0.9265 -0.8776  0.5085
   93MOL    H3938863   3.229   6.273   5.086  1.5220  1.1928  1.3249
   93MOL    H4038864   3.149   6.190   5.211 -0.7493  1.0607  1.6902
   93MOL    H4138865   3.028   6.431   5.243  0.2001 -0.9608  1.5815
   93MOL    H4238866   3.169   6.371   5.323  1.4848 -0.2163 -1.0591
   93MOL    H4338867   3.192   6.478   5.186  1.4597 -1.2472 -1.1714
   93MOL    C4438868   2.623   6.113   5.224  0.0129 -0.2661  0.3541
   93MOL    C4538869   2.500   6.031   5.273  0.4438 -0.0063  0.1673
   93MOL    C4638870   2.453   6.078   5.413 -0.5139  0.0273  0.5969
   93MOL    C4738871   2.563   6.070   5.517  0.1370 -0.2853 -1.0944
   93MOL    C4838872   2.505   6.092   5.656 -0.1474  0.5592 -0.1668
   93MOL    C4938873   2.594   6.039   5.767 -0.1565  0.7431  0.3280
   93MOL    C5038874   2.727   6.111   5.787  0.3452 -0.7056  0.5375
   93MOL    H5138875   2.601   6.220   5.214  1.0090 -0.0139  0.7749
   93MOL    H5238876   2.704   6.102   5.296  3.6108  3.6103 -2.8744
   93MOL    H5338877   2.549   5.934   5.278  0.6060  0.1399  1.3653
   93MOL    H5438878   2.356   6.044   5.449 -1.6411 -0.7856 -2.9975
   93MOL    H5538879   2.432   6.185   5.409 -2.5397 -0.3297  1.1908
   93MOL    H5638880   2.601   5.968   5.514 -0.3588 -0.4979 -0.2314
   93MOL    H5738881   2.636   6.147   5.491  0.2729  0.5944  1.7896
   93MOL    H5838882   2.407   6.046   5.670  0.0565 -0.1113 -0.8797
   93MOL    H5938883   2.485   6.198   5.672 -1.2776  0.1060  1.6017
   93MOL    H6038884   2.607   5.931   5.765 -1.3776  0.5880  0.0755
   93MOL    H6138885   2.538   6.051   5.860  0.7590  1.5347  0.7868
   93MOL    H6238886   2.718   6.218   5.806 -2.5765 -0.9163  0.4790
   93MOL    H6338887   2.793   6.085   5.704 -0.9153 -0.2184 -0.6351
   93MOL    H6438888   2.773   6.073   5.878 -0.2785 -3.8843 -0.4001
   93MOL    C6538889   2.376   6.022   5.176  0.2051 -0.6930 -0.2834
   93MOL    C6638890   2.255   5.939   5.213  0.6457  0.4071 -0.0617
   93MOL    C6738891   2.293   5.799   5.271 -0.3292 -0.0568 -0.4170
   93MOL    C6838892   2.368   5.701   5.180  1.0023  0.0303 -0.1903
   93MOL    C6938893   2.399   5.569   5.247  0.0971 -0.1251  0.0770
   93MOL    C7038894   2.433   5.458   5.144  0.5914  0.5156 -0.6123
   93MOL    C7138895   2.571   5.468   5.077  0.5267 -0.4686 -0.2075
   93MOL    H7238896   2.342   6.123   5.155 -1.2044 -1.7532 -3.3507
   93MOL    H7338897   2.411   5.986   5.079  1.6431  0.7418 -0.3342
   93MOL    H7438898   2.206   5.992   5.295  0.0994  0.0541 -0.1600
   93MOL    H7538899   2.347   5.814   5.365 -1.1719 -0.2122  0.0958
   93MOL    H7638900   2.197   5.757   5.301 -0.2402  0.3249  0.4141
   93MOL    H7738901   2.320   5.691   5.083 -2.3394  2.2193  1.1586
   93MOL    H7838902   2.466   5.738   5.149  0.3114 -0.3249 -2.8266
   93MOL    H7938903   2.480   5.574   5.319  0.7944  1.6635 -0.7973
   93MOL    H8038904   2.322   5.529   5.313  0.9064  1.6980  2.1881
   93MOL    H8138905   2.357   5.457   5.067  1.0861 -0.1514 -1.1011
   93MOL    H8238906   2.417   5.367   5.202 -2.8798  2.1621  1.1372
   93MOL    H8338907   2.589   5.562   5.023 -2.5911 -0.2593 -0.9898
   93MOL    H8438908   2.654   5.443   5.142 -0.6044 -1.4557  0.9005
   93MOL    H8538909   2.569   5.390   5.002  3.0214 -0.3091 -0.4687
   93MOL    C8638910   2.149   5.931   5.091 -0.0459  0.0566 -0.4447
   93MOL    C8738911   2.079   6.064   5.053  0.1959 -0.0172  0.1994
   93MOL    C8838912   2.004   6.056   4.918  0.4106 -0.1356  0.0666
   93MOL    C8938913   1.950   6.191   4.861 -0.8418 -0.3575  0.4939
   93MOL    C9038914   2.063   6.276   4.792  0.5160 -0.7965  0.0187
   93MOL    C9138915   2.008   6.409   4.740 -0.2107  0.5279 -0.0553
   93MOL    C9238916   2.097   6.496   4.646 -0.0040  0.3151 -0.2949
   93MOL    H9338917   2.197   5.885   5.004  2.0287  0.0331  0.6871
   93MOL    H9438918   2.079   5.853   5.119 -0.5744  1.1394  1.3675
   93MOL    H9538919   2.157   6.138   5.034  1.0893  0.3740  4.8134
   93MOL    H9638920   2.066   6.007   4.843 -0.0329  0.2694 -0.5730
   93MOL    H9738921   1.917   5.990   4.924 -0.0190  0.4715  0.5246
   93MOL    H9838922   1.888   6.163   4.776  0.3724  2.2141 -1.3180
   93MOL    H9938923   1.883   6.251   4.922 -0.3064  1.3469 -0.5568
   93MOL   H10038924   2.111   6.209   4.721  0.7329 -2.3377  1.5747
   93MOL   H10138925   2.139   6.295   4.867  1.3344 -0.7638 -0.8056
   93MOL   H10238926   1.928   6.374   4.675 -0.5380 -1.3469  1.2864
   93MOL   H10338927   1.956   6.461   4.820 -1.0053  1.2354 -1.0256
   93MOL   H10438928   2.193   6.528   4.688  1.2244  0.5601 -3.1140
   93MOL   H10538929   2.044   6.585   4.612 -2.2586 -0.8260  0.1894
   93MOL   H10638930   2.123   6.457   4.547  1.8933 -0.7790  0.6079
   93MOL   C10738931   2.008   6.136   5.172  0.7415 -0.4688  0.1206
   93MOL   C10838932   1.891   6.076   5.239  0.1480 -0.2643 -0.8417
   93MOL   C10938933   1.930   5.974   5.350 -0.1704 -0.0426  0.2004
   93MOL   C11038934   1.819   5.869   5.391 -0.1186 -0.4335 -0.1087
   93MOL   C11138935   1.857   5.786   5.510  0.0987  0.1414  0.9630
   93MOL   C11238936   1.999   5.718   5.516 -0.1858 -0.0946  0.0075
   93MOL   C11338937   2.020   5.596   5.425  0.5062 -0.3613 -0.4393
   93MOL   H11438938   1.976   6.236   5.144  0.6068 -0.8965 -1.2660
   93MOL   H11538939   2.078   6.169   5.249 -0.1703  0.9572  0.3679
   93MOL   H11638940   1.837   6.014   5.167 -1.6960  0.8880 -0.4943
   93MOL   H11738941   1.949   6.036   5.437 -1.6583 -0.8800  1.1258
   93MOL   H11838942   2.020   5.915   5.331  0.1788  1.0259 -1.6469
   93MOL   H11938943   1.724   5.922   5.398 -1.0169 -1.8823 -1.0239
   93MOL   H12038944   1.801   5.798   5.310 -1.1604 -0.8908  0.5268
   93MOL   H12138945   1.779   5.712   5.527 -1.4361  1.9195  1.8671
   93MOL   H12238946   1.863   5.857   5.592 -1.3752 -0.3677  1.5301
   93MOL   H12338947   2.079   5.791   5.509  0.0701 -0.3386  0.4095
   93MOL   H12438948   2.009   5.682   5.618  0.0975 -1.9825 -0.6563
   93MOL   H12538949   2.115   5.543   5.425 -0.2741 -1.7832  0.2124
   93MOL   H12638950   1.943   5.521   5.441 -0.9766  0.9006 -1.5416
   93MOL   H12738951   2.001   5.630   5.323  0.3702  1.3228  0.1338
   93MOL   C12838952   1.788   6.185   5.285 -0.6235 -0.2626  1.0643
   93MOL   C12938953   1.705   6.239   5.163  0.2137  0.6816  0.1576
   93MOL   C13038954   1.726   6.392   5.136 -0.2962  0.5468 -0.3791
   93MOL   C13138955   1.683   6.452   5.003  0.8188  0.5546 -0.1615
   93MOL   C13238956   1.713   6.602   4.994  0.1070 -0.0373  0.5083
   93MOL   C13338957   1.704   6.669   4.860  0.3568  0.5648 -0.4174
   93MOL   C13438958   1.687   6.821   4.862 -0.2473 -0.2823  0.0121
   93MOL   H13538959   1.717   6.125   5.341 -3.1998  0.4545 -1.2610
   93MOL   H13638960   1.821   6.265   5.351  1.0305 -1.7761  2.1072
   93MOL   H13738961   1.743   6.192   5.073  0.4786 -3.8118  2.4814
   93MOL   H13838962   1.828   6.424   5.157 -0.3029 -1.6658  3.5271
   93MOL   H13938963   1.687   6.444   5.223 -1.5469  1.1217 -1.2672
   93MOL   H14038964   1.578   6.432   4.980  0.7721  0.6108  0.0022
   93MOL   H14138965   1.745   6.408   4.925  0.1951  1.0924 -0.9719
   93MOL   H14238966   1.816   6.622   5.025  0.5019  0.8716 -1.3312
   93MOL   H14338967   1.653   6.661   5.063  1.8948  0.9623  1.2475
   93MOL   H14438968   1.635   6.618   4.793  0.8107  0.1786 -0.6025
   93MOL   H14538969   1.794   6.646   4.802 -1.7006 -1.1638 -3.0302
   93MOL   H14638970   1.775   6.874   4.898  1.0292 -1.7071 -0.9500
   93MOL   H14738971   1.604   6.864   4.918  0.3866  1.4319 -0.3354
   93MOL   H14838972   1.677   6.866   4.763 -0.6804  0.3796  0.3496
   93MOL   C14938973   1.556   6.214   5.194  0.8187  0.4330 -0.0686
   93MOL   C15038974   1.494   6.078   5.151 -0.2208 -0.1885  0.2671
   93MOL   C15138975   1.490   6.072   4.995 -0.0443  0.2634  0.5620
   93MOL   C15238976   1.508   5.921   4.949 -0.4601  0.0353  0.0107
   93MOL   C15338977   1.649   5.857   4.972 -0.4161  0.8136 -0.2865
   93MOL   C15438978   1.666   5.710   4.932  0.1892  0.5783 -0.9386
   93MOL   C15538979   1.803   5.647   4.956  0.5181  0.4422 -0.1638
   93MOL   H15638980   1.534   6.219   5.301 -0.0262 -2.5051 -0.0522
   93MOL   H15738981   1.490   6.290   5.152  1.8358  1.1637 -0.3464
   93MOL   H15838982   1.559   5.998   5.187  2.3919  2.1448  0.8537
   93MOL   H15938983   1.394   6.107   4.959 -0.0892  0.0437  0.4643
   93MOL   H16038984   1.568   6.138   4.956  0.7283 -0.1179  1.4437
   93MOL   H16138985   1.475   5.905   4.846  0.0752  1.6163 -0.4302
   93MOL   H16238986   1.433   5.859   4.997 -1.2705  0.3203 -0.8772
   93MOL   H16338987   1.683   5.862   5.075  0.0491 -0.1155 -0.3897
   93MOL   H16438988   1.725   5.899   4.907  0.6391 -0.3966  0.1606
   93MOL   H16538989   1.637   5.703   4.827  1.5621 -0.6161 -1.2463
   93MOL   H16638990   1.600   5.648   4.992  1.3113  1.0966  0.8699
   93MOL   H16738991   1.796   5.543   4.926  2.7055 -0.2475  1.6161
   93MOL   H16838992   1.824   5.654   5.062 -0.0679 -1.5738  0.0894
   93MOL   H16938993   1.882   5.688   4.892 -0.6415  2.1988 -0.5052
   93MOL   C17038994   1.348   6.053   5.198  0.5941 -0.1847 -0.2247
   93MOL   C17138995   1.329   6.019   5.346 -0.1905  0.2026 -0.4845
   93MOL   C17238996   1.180   6.027   5.392 -0.4041  0.5756 -0.0716
   93MOL   C17338997   1.083   5.935   5.322  0.3152 -0.4280  0.7071
   93MOL   C17438998   0.947   5.931   5.397 -0.0198  0.0812 -0.3915
   93MOL   C17538999   0.934   5.867   5.537  0.3237  0.3093  0.5210
   93MOL   C17639000   0.788   5.868   5.581  1.0435  0.7092 -0.0868
   93MOL   H17739001   1.305   5.979   5.131 -0.6721 -0.0575  0.4244
   93MOL   H17839002   1.291   6.140   5.166  2.3409  1.2184  0.3700
   93MOL   H17939003   1.388   6.093   5.399  0.1334 -0.2941 -0.1430
   93MOL   H18039004   1.136   6.125   5.374  0.1424  0.7865 -0.2643
   93MOL   H18139005   1.172   6.025   5.501 -0.2273 -0.6843 -0.0687
   93MOL   H18239006   1.126   5.835   5.323  2.5540  0.4974  3.4380
   93MOL   H18339007   1.060   5.958   5.218 -0.3561 -2.1562  0.4623
   93MOL   H18439008   0.882   5.871   5.334 -1.4101  0.6048  0.5172
   93MOL   H18539009   0.897   6.028   5.396 -0.2618 -0.0499 -1.0054
   93MOL   H18639010   0.993   5.924   5.609 -0.0181  3.6081 -1.6894
   93MOL   H18739011   0.974   5.765   5.534 -0.5812 -0.0115 -2.5644
   93MOL   H18839012   0.783   5.803   5.668  2.3138  0.7431  0.0226
   93MOL   H18939013   0.715   5.831   5.510 -1.5336  2.4713  1.5514
   93MOL   H19039014   0.745   5.959   5.624  0.1011  1.0008 -1.6158
   93MOL   C19139015   1.388   5.877   5.367 -0.4527  0.3641  0.8103
   93MOL   C19239016   1.372   5.796   5.503 -0.1294  0.5204  0.3262
   93MOL   C19339017   1.429   5.653   5.492 -0.2469 -0.3934  0.5366
   93MOL   C19439018   1.345   5.556   5.406  0.8592 -0.1438 -0.2206
   93MOL   C19539019   1.441   5.454   5.341 -0.1811  0.1592 -0.3072
   93MOL   C19639020   1.543   5.504   5.232 -0.2662  0.6035 -0.4759
   93MOL   C19739021   1.640   5.395   5.181  0.1986 -0.0869 -0.5434
   93MOL   H19839022   1.492   5.869   5.334 -0.7380 -0.0595  0.0084
   93MOL   H19939023   1.332   5.814   5.298 -2.6400  0.7439  2.2228
   93MOL   H20039024   1.266   5.799   5.528 -0.3282 -1.9572 -0.0300
   93MOL   H20139025   1.428   5.610   5.592  2.5643  0.9468  1.2046
   93MOL   H20239026   1.532   5.662   5.456 -1.0423 -0.2509 -1.8122
   93MOL   H20339027   1.295   5.612   5.327  2.2142  0.4796 -0.6411
   93MOL   H20439028   1.286   5.502   5.481  1.9735 -0.8977  0.1228
   93MOL   H20539029   1.517   5.425   5.413  1.1348  1.3992 -1.1731
   93MOL   H20639030   1.389   5.365   5.304  0.4670 -0.3483 -0.0024
   93MOL   H20739031   1.594   5.591   5.274  0.4222  0.3108 -0.6991
   93MOL   H20839032   1.478   5.536   5.151 -1.3480 -0.1948  0.0469
   93MOL   H20939033   1.706   5.445   5.110 -0.2743  0.4658 -0.5980
   93MOL   H21039034   1.598   5.309   5.128 -0.5841  0.1267 -0.2624
   93MOL   H21139035   1.692   5.361   5.271 -0.1714 -3.0702 -1.4013
   93MOL   C21239036   1.451   5.878   5.610  0.4299  0.4154 -0.1431
   93MOL   C21339037   1.422   5.851   5.755  0.0730  0.1684  0.1011
   93MOL   C21439038   1.526   5.912   5.854  0.4233  0.4858  0.1065
   93MOL   C21539039   1.679   5.872   5.855  0.0534  0.6360  0.2788
   93MOL   C21639040   1.694   5.721   5.832  0.0716 -0.5820  0.0111
   93MOL   C21739041   1.843   5.685   5.857  0.4378  0.0885  0.3597
   93MOL   C21839042   1.873   5.545   5.808  0.0151  0.2115  0.1603
   93MOL   H21939043   1.424   5.983   5.598  2.4390  1.1612  1.7156
   93MOL   H22039044   1.558   5.868   5.594  0.3785  0.6559 -0.6577
   93MOL   H22139045   1.428   5.743   5.766  0.7771  0.3205  1.3729
   93MOL   H22239046   1.513   6.020   5.866 -0.0852  0.4252  0.1158
   93MOL   H22339047   1.490   5.886   5.953  1.3871 -1.2935  0.0095
   93MOL   H22439048   1.723   5.907   5.949 -1.1485  0.6805  0.8312
   93MOL   H22539049   1.733   5.921   5.774 -2.3693  0.7839 -1.3112
   93MOL   H22639050   1.638   5.664   5.906  1.1608 -0.8651  0.6374
   93MOL   H22739051   1.656   5.702   5.732 -1.5872  2.5659  0.0085
   93MOL   H22839052   1.902   5.762   5.807 -2.4283  0.1665 -3.1107
   93MOL   H22939053   1.874   5.692   5.961  0.1366  1.5509  0.3714
   93MOL   H23039054   1.833   5.469   5.876  0.9194  0.4336  0.9508
   93MOL   H23139055   1.982   5.546   5.806 -0.0083  0.0202 -1.1351
   93MOL   H23239056   1.832   5.539   5.708  1.8968  1.1340 -0.6936
   93MOL   C23339057   1.276   5.885   5.795  0.3644  0.3045 -0.4923
   93MOL   C23439058   1.212   5.782   5.896 -0.2110  0.2035 -0.0249
   93MOL   C23539059   1.103   5.849   5.972 -0.1994  0.1296  0.2186
   93MOL   C23639060   1.150   5.941   6.081 -0.4814 -0.4857 -0.0087
   93MOL   C23739061   1.034   6.029   6.125 -0.1615  0.0815  0.8460
   93MOL   C23839062   1.075   6.153   6.203  0.7478 -0.0399 -0.4912
   93MOL   C23939063   1.155   6.118   6.327 -0.0272  0.2411  0.2330
   93MOL   H24039064   1.216   5.897   5.705 -1.0108  0.8556  0.4969
   93MOL   H24139065   1.292   5.983   5.841  0.2677  0.1616 -0.1571
   93MOL   H24239066   1.290   5.745   5.961  0.8435 -0.0953 -1.4362
   93MOL   H24339067   1.029   5.780   6.015  0.6991 -1.1394 -0.2358
   93MOL   H24439068   1.039   5.900   5.900  0.8522  0.8751 -0.1957
   93MOL   H24539069   1.234   6.004   6.053 -1.5181  1.0023  0.1516
   93MOL   H24639070   1.187   5.883   6.166 -0.3149  1.3877  1.2173
   93MOL   H24739071   0.956   5.979   6.183  0.2141  0.5493  1.7739
   93MOL   H24839072   0.992   6.071   6.034  0.2887  1.2115  1.1441
   93MOL   H24939073   1.140   6.216   6.142  0.6221  1.1486  0.5827
   93MOL   H25039074   0.987   6.210   6.233 -0.1630 -1.9753  0.5506
   93MOL   H25139075   1.107   6.045   6.392  0.8540 -0.2313  0.3649
   93MOL   H25239076   1.236   6.052   6.296  0.1172 -0.0480  1.2295
   93MOL   H25339077   1.194   6.199   6.389  0.0031  1.6307 -1.5376
   93MOL   C25439078   1.161   5.663   5.811 -0.3354  0.2742  0.0431
   93MOL   C25539079   1.131   5.545   5.904  0.5141  0.5506 -0.9050
   93MOL   C25639080   1.258   5.479   5.969 -0.1970 -0.6824  0.1113
   93MOL   C25739081   1.358   5.422   5.868 -0.3382  0.2507 -0.0940
   93MOL   C25839082   1.485   5.374   5.931  0.1566  0.0808  0.6080
   93MOL   C25939083   1.560   5.274   5.850 -0.3487 -0.0607 -0.0206
   93MOL   C26039084   1.612   5.336   5.715  0.0023 -0.2760 -0.4123
   93MOL   H26139085   1.224   5.626   5.729  0.2787 -1.7352  1.3725
   93MOL   H26239086   1.075   5.694   5.753 -0.0441  1.3074  0.1552
   93MOL   H26339087   1.068   5.582   5.985  0.2026 -1.3281 -0.2532
   93MOL   H26439088   1.237   5.400   6.040 -0.1851 -1.2401 -0.4988
   93MOL   H26539089   1.308   5.549   6.036  2.6997 -1.5844 -1.0384
   93MOL   H26639090   1.314   5.336   5.819  1.3873 -0.6215 -0.1581
   93MOL   H26739091   1.378   5.496   5.791  1.0050  0.3121  0.3032
   93MOL   H26839092   1.477   5.325   6.028 -2.3827 -0.1606  0.3047
   93MOL   H26939093   1.548   5.461   5.948 -0.4237  0.5603  0.3263
   93MOL   H27039094   1.643   5.232   5.908 -0.6422  0.1043  0.5194
   93MOL   H27139095   1.503   5.187   5.819  1.1780 -1.1228  0.0462
   93MOL   H27239096   1.627   5.444   5.720 -5.3551  0.5494  0.4889
   93MOL   H27339097   1.699   5.289   5.670  0.3926  0.8138 -0.8047
   93MOL   H27439098   1.532   5.328   5.642 -0.5709 -0.2546  0.2086
   93MOL   C27539099   1.048   5.428   5.843 -0.0991 -0.1394  0.0201
   93MOL   C27639100   0.918   5.473   5.768  0.4437 -0.0648 -0.3809
   93MOL   C27739101   0.816   5.539   5.866  0.0919 -0.0843  0.5079
   93MOL   C27839102   0.734   5.450   5.956 -0.0035 -0.2629  0.2761
   93MOL   C27939103   0.629   5.526   6.041  0.0117  0.6070 -0.8606
   93MOL   C28039104   0.554   5.425   6.139 -1.1001  0.2517 -0.5140
   93MOL   C28139105   0.455   5.514   6.214 -0.3176  0.1791  0.0091
   93MOL   H28239106   1.032   5.343   5.910  1.2628 -0.5493 -0.1535
   93MOL   H28339107   1.107   5.388   5.761  1.2208  0.6100  0.5985
   93MOL   H28439108   0.942   5.552   5.696  3.4788 -1.1265 -0.5867
   93MOL   H28539109   0.871   5.617   5.919  0.4502 -0.2128  0.3319
   93MOL   H28639110   0.743   5.588   5.802  0.9730  0.6441  0.0413
   93MOL   H28739111   0.806   5.400   6.021  0.5555 -1.3558 -1.1589
   93MOL   H28839112   0.675   5.377   5.901 -0.5331 -1.2634  2.1466
   93MOL   H28939113   0.553   5.570   5.975 -1.3745  0.1949  0.4234
   93MOL   H29039114   0.680   5.596   6.107  0.6636  1.4957 -2.2801
   93MOL   H29139115   0.524   5.328   6.099  0.6875 -0.4445 -0.2204
   93MOL   H29239116   0.620   5.392   6.220 -2.2583  0.7050  0.6303
   93MOL   H29339117   0.397   5.463   6.291 -1.1323 -0.9433 -1.3074
   93MOL   H29439118   0.392   5.561   6.139 -0.2265 -0.8761 -0.7539
   93MOL   H29539119   0.499   5.593   6.274  0.3992  0.0692 -0.3592
   93MOL   C29639120   0.860   5.361   5.672  0.2878  0.1511 -1.2714
   93MOL   C29739121   0.943   5.318   5.544  0.5231  1.1836  0.3093
   93MOL   C29839122   0.966   5.431   5.444  0.0562 -0.4856  0.4128
   93MOL   C29939123   0.841   5.510   5.403  0.2939 -0.3672  0.5013
   93MOL   C30039124   0.872   5.588   5.273 -0.2706 -0.3808  0.5945
   93MOL   C30139125   0.748   5.644   5.208 -0.3171 -0.4296 -0.1895
   93MOL   C30239126   0.777   5.703   5.063  0.3873  0.0282  0.0387
   93MOL   H30339127   0.853   5.273   5.736 -1.0309  1.2124  0.0872
   93MOL   H30439128   0.762   5.384   5.630 -0.7210 -1.6676  0.0113
   93MOL   H30539129   1.044   5.298   5.580  0.5399  0.9163  0.1127
   93MOL   H30639130   1.034   5.503   5.489 -1.8512  3.0167 -2.0062
   93MOL   H30739131   1.010   5.386   5.355  0.2821  0.3393  0.1063
   93MOL   H30839132   0.808   5.579   5.481 -2.0881  0.6765 -1.3558
   93MOL   H30939133   0.759   5.440   5.386 -1.7623  2.0151  0.2779
   93MOL   H31039134   0.921   5.517   5.206 -1.2566  0.2495 -0.8183
   93MOL   H31139135   0.942   5.671   5.285 -0.0269 -0.3732 -0.7424
   93MOL   H31239136   0.674   5.565   5.197  0.5401 -1.3484  0.5907
   93MOL   H31339137   0.716   5.721   5.278  1.1984  2.3608 -2.4615
   93MOL   H31439138   0.796   5.810   5.054 -0.2573 -0.0216 -2.0686
   93MOL   H31539139   0.860   5.658   5.009  1.1428  0.8430  0.4901
   93MOL   H31639140   0.690   5.670   5.007 -0.4763 -0.8567  1.8676
   93MOL   C31739141   0.878   5.196   5.481  0.7682 -0.0586 -0.5942
   93MOL   C31839142   0.940   5.143   5.354 -0.1196  0.5513  0.3937
   93MOL   C31939143   1.080   5.103   5.382 -0.3528  0.8411 -0.4485
   93MOL   C32039144   1.149   5.053   5.251  0.8818  0.6080 -0.2786
   93MOL   C32139145   1.300   5.014   5.282  0.3992 -0.1799 -0.6526
   93MOL   C32239146   1.374   4.981   5.153  0.1261  0.0735 -0.3238
   93MOL   C32339147   1.355   4.834   5.109 -0.3536  0.5180  0.0432
   93MOL   H32439148   0.769   5.198   5.487  0.7361 -1.4898 -0.4600
   93MOL   H32539149   0.896   5.113   5.549 -0.7179  0.3194  0.3029
   93MOL   H32639150   0.954   5.212   5.271  0.7652  0.5797  0.5528
   93MOL   H32739151   1.076   5.027   5.460  1.0015  1.4288  0.2254
   93MOL   H32839152   1.132   5.193   5.416 -2.0215  1.8242 -0.4412
   93MOL   H32939153   1.146   5.113   5.161 -0.9182 -0.0380 -0.6763
   93MOL   H33039154   1.095   4.969   5.208 -1.5109  0.4650  2.7733
   93MOL   H33139155   1.309   4.936   5.358 -2.9429  0.2651  0.3064
   93MOL   H33239156   1.336   5.105   5.330 -0.7783  0.5896 -1.2204
   93MOL   H33339157   1.480   4.998   5.172 -0.0325  1.4960 -0.6812
   93MOL   H33439158   1.353   5.053   5.074 -1.3473  1.0070  0.8828
   93MOL   H33539159   1.366   4.757   5.185 -1.4959 -2.2945 -2.5328
   93MOL   H33639160   1.436   4.817   5.038 -0.5537 -0.1720 -0.0144
   93MOL   H33739161   1.275   4.814   5.037 -0.9295  0.1534  0.7867
   93MOL   C33839162   0.845   5.037   5.284 -0.3445 -0.8285 -0.5264
   93MOL   C33939163   0.693   5.065   5.263 -0.1170  0.4850  0.5992
   93MOL   C34039164   0.623   4.940   5.212  0.0844 -0.7102  0.4569
   93MOL   C34139165   0.622   4.812   5.286  0.0233 -0.2535  0.5195
   93MOL   C34239166   0.554   4.703   5.210  0.4068 -0.3712 -0.1723
   93MOL   C34339167   0.561   4.572   5.290 -0.3222  0.3237 -0.3101
   93MOL   C34439168   0.458   4.473   5.248  0.3048  0.1479  0.3169
   93MOL   H34539169   0.845   4.942   5.337 -4.4774 -1.4093 -1.3694
   93MOL   H34639170   0.871   5.020   5.180  0.6559  1.2118 -0.6324
   93MOL   H34739171   0.642   5.098   5.354  1.1535 -2.3053  2.4062
   93MOL   H34839172   0.516   4.962   5.213  0.4735  1.2714  1.6516
   93MOL   H34939173   0.670   4.915   5.117 -0.3617  0.3474 -0.0546
   93MOL   H35039174   0.567   4.816   5.380 -1.2220 -3.1339 -0.0373
   93MOL   H35139175   0.724   4.778   5.304  0.5891 -0.0840 -2.1401
   93MOL   H35239176   0.449   4.727   5.191  0.5128  0.1344 -0.1180
   93MOL   H35339177   0.603   4.692   5.113  2.0065  0.7580  0.5024
   93MOL   H35439178   0.659   4.528   5.275 -0.1189  1.1187 -1.3741
   93MOL   H35539179   0.540   4.595   5.394 -4.4231  1.3469 -1.2564
   93MOL   H35639180   0.465   4.424   5.151  0.9497  1.4983 -0.3382
   93MOL   H35739181   0.355   4.504   5.232 -0.0580 -1.5736 -0.7962
   93MOL   H35839182   0.447   4.397   5.325 -0.9865 -0.7848 -0.7676
   93MOL   C35939183   0.678   5.179   5.167  0.3604  0.6381  0.5649
   93MOL   C36039184   0.537   5.230   5.140 -0.0834  0.7322  0.8732
   93MOL   C36139185   0.474   5.316   5.249 -0.1525 -0.1051 -0.6203
   93MOL   C36239186   0.321   5.296   5.254  0.1322 -0.3843  0.1765
   93MOL   C36339187   0.245   5.403   5.337 -0.6496  0.3219  0.2920
   93MOL   C36439188   0.100   5.367   5.375  0.1971  0.0481  0.1189
   93MOL   C36539189   0.008   5.359   5.252 -0.7591  0.3222 -0.6867
   93MOL   H36639190   0.722   5.160   5.069  0.1716  2.1064  0.1768
   93MOL   H36739191   0.732   5.266   5.206 -1.5576  1.7397  0.8365
   93MOL   H36839192   0.469   5.145   5.129  0.1353  0.6998 -0.2833
   93MOL   H36939193   0.520   5.296   5.345 -0.5140  1.9679  0.0162
   93MOL   H37039194   0.497   5.422   5.242  0.1018 -0.1465 -0.4261
   93MOL   H37139195   0.277   5.296   5.154 -0.7718  0.4787  0.5742
   93MOL   H37239196   0.294   5.192   5.276  1.9758 -1.2253 -1.2934
   93MOL   H37339197   0.294   5.421   5.433 -0.9434 -0.3479  0.5713
   93MOL   H37439198   0.252   5.499   5.285  0.6674  0.9523  1.5872
   93MOL   H37539199   0.091   5.272   5.428  1.5644  0.5835  1.3513
   93MOL   H37639200   0.052   5.432   5.448 -1.8580 -0.4411 -0.7504
   93MOL   H37739201   0.029   5.456   5.208 -1.1162  1.1724  0.9568
   93MOL   H37839202   0.033   5.282   5.180 -0.5238 -0.0878 -0.1707
   93MOL   H37939203   7.614   5.353   5.274 -0.6396  0.4293 -0.0617
   93MOL   C38039204   0.520   5.312   5.008  0.0065 -0.8183 -0.7358
   93MOL   C38139205   0.553   5.238   4.876  0.0795 -0.2302 -0.2890
   93MOL   C38239206   0.461   5.121   4.854  0.4633  0.0139 -0.6898
   93MOL   C38339207   0.477   5.027   4.728  0.0186  0.0591  0.2356
   93MOL   C38439208   0.592   4.926   4.754  0.3934  0.4629 -0.6908
   93MOL   C38539209   0.597   4.815   4.646  0.5317 -0.7281 -0.1092
   93MOL   C38639210   0.705   4.719   4.685  0.2444  0.8150  0.2147
   93MOL   H38739211   0.414   5.333   4.996  0.0595  0.9420  1.6552
   93MOL   H38839212   0.558   5.413   5.013 -1.2210 -0.4760  2.6499
   93MOL   H38939213   0.653   5.193   4.875  0.0903 -0.2454 -3.3676
   93MOL   H39039214   0.360   5.160   4.841  0.4008 -0.6235 -2.1698
   93MOL   H39139215   0.466   5.063   4.946  1.1191  0.6046 -0.3442
   93MOL   H39239216   0.386   4.970   4.714  0.7661 -1.1136  0.1281
   93MOL   H39339217   0.488   5.082   4.634 -1.2650  0.4908  0.3260
   93MOL   H39439218   0.687   4.977   4.735  1.0532  0.1238  1.5155
   93MOL   H39539219   0.586   4.891   4.857 -2.3268  1.3144 -0.5234
   93MOL   H39639220   0.617   4.844   4.543 -1.0676  1.7986  0.2673
   93MOL   H39739221   0.499   4.767   4.646 -0.1920  0.7117 -0.8629
   93MOL   H39839222   0.708   4.696   4.792  1.4451  1.1640  0.2558
   93MOL   H39939223   0.803   4.756   4.657  0.7499 -0.9010 -0.3408
   93MOL   H40039224   0.683   4.621   4.643  0.1956  1.6701 -1.7792
   93MOL   C40139225   0.542   5.338   4.758 -0.3265  0.1673 -0.2253
   93MOL   C40239226   0.668   5.434   4.760  0.5647 -0.4475 -0.2246
   93MOL   C40339227   0.675   5.546   4.653 -0.1332 -0.3966  0.6782
   93MOL   C40439228   0.567   5.657   4.660  1.1164 -0.0230 -0.4442
   93MOL   C40539229   0.590   5.756   4.546 -0.2647  0.5357  0.3561
   93MOL   C40639230   0.519   5.884   4.565  0.1900  0.1521 -0.8108
   93MOL   C40739231   0.544   5.975   4.447  0.0096 -0.3730  0.3214
   93MOL   H40839232   0.450   5.393   4.779  0.7030  2.1314 -0.7577
   93MOL   H40939233   0.542   5.292   4.660  1.5796  3.5211 -1.8578
   93MOL   H41039234   0.764   5.383   4.751 -0.7160 -3.4734  2.6909
   93MOL   H41139235   0.666   5.487   4.562 -0.1852 -0.7299  0.9005
   93MOL   H41239236   0.777   5.586   4.648 -0.6399  0.9572  0.9409
   93MOL   H41339237   0.565   5.700   4.760  1.0316 -1.5317  0.2100
   93MOL   H41439238   0.465   5.620   4.650  1.1558 -0.3551  0.3885
   93MOL   H41539239   0.694   5.788   4.534 -0.7882  2.4008  0.6931
   93MOL   H41639240   0.560   5.715   4.449  0.6210 -0.0880  0.3355
   93MOL   H41739241   0.411   5.869   4.568  0.2184  0.0649 -0.2145
   93MOL   H41839242   0.553   5.929   4.658  0.7350  0.1161 -0.9934
   93MOL   H41939243   0.537   5.918   4.354 -0.0424 -0.0130  0.1007
   93MOL   H42039244   0.641   6.022   4.460  0.2114 -1.0415  1.2321
   93MOL   H42139245   0.469   6.053   4.433 -0.1480 -0.5870 -0.0553
   93MOL   H42239246   0.670   5.486   4.855  0.5568  0.9516 -0.9724
   94MOL     C139247   6.732   6.275   1.455  0.1544  0.2744 -0.4362
   94MOL     C239248   6.868   6.345   1.412 -0.2160  0.2284 -0.3225
   94MOL     C339249   6.948   6.376   1.546  0.2335  0.1679 -0.1055
   94MOL     C439250   6.874   6.474   1.640  0.6255  0.9885  0.5383
   94MOL     C539251   6.965   6.547   1.738  0.2457 -0.1830  0.0821
   94MOL     C639252   6.901   6.595   1.870 -0.0578  0.2911 -0.4976
   94MOL     C739253   6.980   6.699   1.953 -0.6662  0.0789 -0.3392
   94MOL     H839254   6.655   6.266   1.378 -0.2207 -2.5732  0.2215
   94MOL     H939255   6.687   6.320   1.543  0.1487  0.2854 -0.4447
   94MOL    H1039256   6.918   6.268   1.354  0.6045  0.1361  0.5075
   94MOL    H1139257   6.981   6.283   1.592  0.5659  0.8221  0.9875
   94MOL    H1239258   7.036   6.431   1.514  0.5136  0.0615  0.4899
   94MOL    H1339259   6.825   6.553   1.583 -0.1803  0.8242  0.9851
   94MOL    H1439260   6.803   6.414   1.698 -0.2268  2.1179  0.6809
   94MOL    H1539261   6.992   6.634   1.678 -0.4499  0.0780  0.1505
   94MOL    H1639262   7.061   6.499   1.759 -0.2119 -1.9715 -1.7413
   94MOL    H1739263   6.885   6.507   1.933  0.2343  0.3186 -0.3865
   94MOL    H1839264   6.799   6.630   1.853 -0.3720 -1.0876 -1.4775
   94MOL    H1939265   6.951   6.691   2.058  0.8943  1.0969  0.1895
   94MOL    H2039266   6.971   6.803   1.921 -1.6788 -0.2414 -1.1124
   94MOL    H2139267   7.086   6.675   1.961 -0.7759 -0.1510  0.5027
   94MOL    H2239268   6.758   6.178   1.495  0.1823 -0.0446 -1.2186
   94MOL    C2339269   6.833   6.461   1.314  0.0250 -0.0348  0.0620
   94MOL    C2439270   6.787   6.407   1.174  0.1996  0.3792 -0.3210
   94MOL    C2539271   6.906   6.408   1.072  0.2084  0.4575 -0.5986
   94MOL    C2639272   6.945   6.544   1.021  0.1780  0.4307 -0.0880
   94MOL    C2739273   7.087   6.549   0.967  0.3303 -0.0263 -0.4144
   94MOL    C2839274   7.125   6.442   0.862  0.0358  0.9356 -0.0957
   94MOL    C2939275   7.253   6.467   0.774  0.2683  0.4531 -0.1451
   94MOL    H3039276   6.770   6.536   1.363 -0.8520 -0.8549  0.2001
   94MOL    H3139277   6.927   6.515   1.304  0.2969 -0.4939  0.1638
   94MOL    H3239278   6.750   6.305   1.184 -1.4667  0.9506 -0.4294
   94MOL    H3339279   6.879   6.351   0.983 -0.6391  1.3899 -0.9348
   94MOL    H3439280   7.004   6.375   1.108 -0.1684  0.5421  0.5113
   94MOL    H3539281   6.923   6.619   1.096 -0.3470 -0.8223  1.0246
   94MOL    H3639282   6.880   6.576   0.939 -0.5862  0.4737  0.5363
   94MOL    H3739283   7.165   6.535   1.042 -2.7845 -0.0697  2.9460
   94MOL    H3839284   7.106   6.651   0.935  0.8927  0.0451  0.1176
   94MOL    H3939285   7.031   6.429   0.810  0.3753 -0.9494 -0.2828
   94MOL    H4039286   7.142   6.353   0.924  1.0727  0.5954 -0.8556
   94MOL    H4139287   7.240   6.541   0.695 -1.2047  0.5677  0.1832
   94MOL    H4239288   7.350   6.490   0.818  0.1447  0.1224  0.3082
   94MOL    H4339289   7.271   6.374   0.720 -0.3457  0.6511 -0.7103
   94MOL    C4439290   6.661   6.495   1.136  0.5087  0.2058  0.3079
   94MOL    C4539291   6.576   6.428   1.028 -0.0286 -0.1920  0.4517
   94MOL    C4639292   6.488   6.309   1.074  0.9706  0.8437  0.4614
   94MOL    C4739293   6.509   6.185   0.991 -0.4053 -0.3085  0.1122
   94MOL    C4839294   6.425   6.054   1.027 -0.7045  0.2804 -0.2486
   94MOL    C4939295   6.466   5.920   0.961  0.7308 -0.2201  0.2239
   94MOL    C5039296   6.569   5.831   1.035  0.0528  0.0845  0.1018
   94MOL    H5139297   6.700   6.586   1.090  0.3748  0.9860  1.6926
   94MOL    H5239298   6.599   6.527   1.220  0.2392 -1.4899  0.7649
   94MOL    H5339299   6.654   6.388   0.963  2.0580  0.7694  2.2689
   94MOL    H5439300   6.385   6.343   1.066  0.5855 -0.5905 -0.9992
   94MOL    H5539301   6.504   6.295   1.181 -0.6192 -1.6480  0.4188
   94MOL    H5639302   6.500   6.213   0.886  0.4934  0.9126  0.3441
   94MOL    H5739303   6.614   6.157   1.000 -0.1958  0.0798 -1.0270
   94MOL    H5839304   6.325   6.078   0.993 -2.3320 -3.3329  1.6429
   94MOL    H5939305   6.417   6.031   1.133  2.1344  1.2470  0.2219
   94MOL    H6039306   6.498   5.946   0.861 -4.0965  1.5032 -1.0126
   94MOL    H6139307   6.377   5.858   0.954  0.4926  0.0930  0.4642
   94MOL    H6239308   6.629   5.768   0.968  1.0310  1.3065 -0.1760
   94MOL    H6339309   6.507   5.777   1.107 -0.0328 -0.3557 -0.3000
   94MOL    H6439310   6.631   5.901   1.091  0.2533 -0.4497  0.5539
   94MOL    C6539311   6.497   6.545   0.955 -0.1965  0.0588  0.0693
   94MOL    C6639312   6.413   6.513   0.828  0.4462 -1.0295  0.2555
   94MOL    C6739313   6.504   6.464   0.712  0.5966 -0.6282  0.2967
   94MOL    C6839314   6.635   6.548   0.671 -0.0096 -0.0094  0.0677
   94MOL    C6939315   6.716   6.506   0.551  0.3373 -0.6479 -0.2830
   94MOL    C7039316   6.821   6.608   0.490  0.1050  0.3962  0.0104
   94MOL    C7139317   6.838   6.589   0.343  0.5979 -0.1883  0.9658
   94MOL    H7239318   6.427   6.575   1.033 -0.1171 -0.5811  0.3906
   94MOL    H7339319   6.567   6.627   0.944  0.4367 -0.3413  1.0779
   94MOL    H7439320   6.340   6.437   0.856 -1.0455 -0.3348 -1.6865
   94MOL    H7539321   6.523   6.358   0.731  0.6262 -0.7162 -0.2114
   94MOL    H7639322   6.447   6.462   0.619  1.5213  0.6168 -0.3195
   94MOL    H7739323   6.604   6.652   0.656 -1.1709 -0.1398  1.5095
   94MOL    H7839324   6.706   6.559   0.753 -1.5018 -2.3096  1.6963
   94MOL    H7939325   6.785   6.427   0.581 -0.4918 -0.8443  1.1788
   94MOL    H8039326   6.647   6.470   0.476  0.4673  0.9155 -1.1702
   94MOL    H8139327   6.917   6.605   0.542  0.2987  1.4785 -0.2843
   94MOL    H8239328   6.790   6.711   0.502 -0.9610  0.2345 -1.2833
   94MOL    H8339329   6.869   6.491   0.307 -0.1100  0.5764 -1.8485
   94MOL    H8439330   6.741   6.599   0.294  0.2151 -4.3160  0.7108
   94MOL    H8539331   6.915   6.656   0.305 -1.6580  2.1118  0.3340
   94MOL    C8639332   6.332   6.636   0.789 -0.6379 -0.3466 -0.1175
   94MOL    C8739333   6.211   6.672   0.884 -0.0771 -0.1781  0.6229
   94MOL    C8839334   6.207   6.821   0.923  0.8911  0.1997  0.2004
   94MOL    C8939335   6.200   6.920   0.800 -0.4295 -0.6968 -1.0115
   94MOL    C9039336   6.225   7.072   0.839 -0.2408 -0.1580  0.2422
   94MOL    C9139337   6.229   7.176   0.716 -0.0447 -0.6586 -0.5730
   94MOL    C9239338   6.103   7.160   0.634  0.5271  0.4273  0.4137
   94MOL    H9339339   6.400   6.720   0.800 -0.9628 -0.2994  1.7942
   94MOL    H9439340   6.293   6.625   0.688 -0.6285 -0.8634 -0.0694
   94MOL    H9539341   6.213   6.635   0.987 -1.4790  0.7550  1.0001
   94MOL    H9639342   6.121   6.834   0.989  0.7207 -0.6930  0.1542
   94MOL    H9739343   6.287   6.832   0.996  0.1227  0.2615  1.0425
   94MOL    H9839344   6.276   6.879   0.733  0.7327  1.1161 -0.8184
   94MOL    H9939345   6.104   6.892   0.756 -0.6724  0.0904 -0.9905
   94MOL   H10039346   6.318   7.070   0.896 -1.0317 -0.5782  1.5366
   94MOL   H10139347   6.145   7.104   0.906  0.0417 -0.9763  0.9898
   94MOL   H10239348   6.238   7.280   0.748 -1.7452 -0.7385  0.2277
   94MOL   H10339349   6.317   7.167   0.652  0.0668  1.1551 -0.7083
   94MOL   H10439350   6.010   7.175   0.688 -0.2061 -0.3654 -0.6048
   94MOL   H10539351   6.094   7.058   0.597  0.9673  0.7388 -0.5827
   94MOL   H10639352   6.094   7.228   0.549  2.4816  1.0426  0.6744
   94MOL   C10739353   6.077   6.617   0.832 -0.7006  0.3827  1.0489
   94MOL   C10839354   6.043   6.466   0.846  0.1633 -0.0774  0.8240
   94MOL   C10939355   6.029   6.418   0.984  0.1179  0.2953  0.1280
   94MOL   C11039356   6.093   6.285   1.008  0.1208 -0.2091 -0.3133
   94MOL   C11139357   6.093   6.236   1.156 -0.1102 -0.0647 -0.2965
   94MOL   C11239358   5.953   6.218   1.213 -0.9346 -0.1769 -0.0681
   94MOL   C11339359   5.953   6.156   1.356 -0.6085  0.2561  0.9223
   94MOL   H11439360   6.049   6.648   0.732 -1.8796  0.5204  1.4088
   94MOL   H11539361   6.001   6.659   0.898 -1.5846  0.8126 -0.2442
   94MOL   H11639362   6.126   6.410   0.803  1.0331  0.0569  2.2968
   94MOL   H11739363   5.925   6.412   1.016 -0.4044 -0.7025 -1.6587
   94MOL   H11839364   6.074   6.484   1.058  1.0353 -0.3027  0.1116
   94MOL   H11939365   6.037   6.208   0.955 -0.8072  1.5469 -1.9470
   94MOL   H12039366   6.195   6.287   0.969  0.1066 -2.4974 -0.5188
   94MOL   H12139367   6.147   6.314   1.210  1.6966 -0.3345 -1.6409
   94MOL   H12239368   6.158   6.148   1.162 -0.6872 -0.5928 -1.6167
   94MOL   H12339369   5.907   6.317   1.214  1.2420  0.8610  0.5875
   94MOL   H12439370   5.886   6.160   1.149 -0.9791 -2.2505  1.8232
   94MOL   H12539371   5.855   6.163   1.403 -0.1844  2.6148  1.5111
   94MOL   H12639372   5.976   6.050   1.354  1.2167  0.6230  1.1828
   94MOL   H12739373   6.023   6.212   1.418  1.8628 -0.4350 -1.1648
   94MOL   C12839374   5.905   6.438   0.773 -0.2001  0.0910  0.2570
   94MOL   C12939375   5.926   6.419   0.622  0.5426 -0.0302  0.4148
   94MOL   C13039376   5.786   6.453   0.556 -0.3859 -0.0637  0.0426
   94MOL   C13139377   5.753   6.599   0.529  0.6372 -0.0008  0.7848
   94MOL   C13239378   5.816   6.655   0.405  0.3658  0.0573  0.3153
   94MOL   C13339379   5.755   6.791   0.361 -0.6535  0.2325 -0.3590
   94MOL   C13439380   5.797   6.905   0.451  0.1585  0.4097 -0.4687
   94MOL   H13539381   5.861   6.347   0.813  1.2437 -0.4414  0.6733
   94MOL   H13639382   5.827   6.507   0.805 -0.7055 -0.8307  1.0193
   94MOL   H13739383   6.004   6.485   0.583  0.6947 -0.4340  0.0321
   94MOL   H13839384   5.704   6.395   0.599 -0.4998  0.3631  0.4084
   94MOL   H13939385   5.788   6.391   0.466  2.2184 -0.5787  0.4115
   94MOL   H14039386   5.809   6.654   0.604 -0.5147 -1.5418  2.8423
   94MOL   H14139387   5.647   6.619   0.545 -0.0354 -1.1082 -1.9524
   94MOL   H14239388   5.793   6.579   0.331 -0.0740  1.2578 -0.7995
   94MOL   H14339389   5.924   6.658   0.419  0.3931  1.0830 -0.0331
   94MOL   H14439390   5.650   6.769   0.345 -0.6312 -0.9090  1.0155
   94MOL   H14539391   5.789   6.820   0.261  0.5839 -0.1199 -0.0532
   94MOL   H14639392   5.906   6.908   0.454  0.2883 -0.2849 -3.1936
   94MOL   H14739393   5.750   6.890   0.549 -0.3122 -0.0262 -0.7583
   94MOL   H14839394   5.760   6.999   0.411  1.8154  0.6124 -1.5577
   94MOL   C14939395   5.965   6.275   0.580 -0.0041  0.0870  0.0817
   94MOL   C15039396   6.032   6.267   0.440  0.5470  0.0277  0.1106
   94MOL   C15139397   6.036   6.117   0.386 -0.3576 -0.5924 -0.3273
   94MOL   C15239398   5.897   6.053   0.378  0.7200 -0.5425  0.4766
   94MOL   C15339399   5.893   5.919   0.304  0.4337  0.0180  0.1580
   94MOL   C15439400   5.755   5.868   0.286 -1.0695  0.1964  0.3910
   94MOL   C15539401   5.679   5.941   0.168 -0.1203  1.0485  0.0385
   94MOL   H15639402   6.036   6.237   0.653 -0.9899 -1.3405  0.3347
   94MOL   H15739403   5.874   6.215   0.586 -0.1114  0.0485 -1.6946
   94MOL   H15839404   5.979   6.334   0.372 -0.5065 -1.4785 -0.5846
   94MOL   H15939405   6.075   6.113   0.284 -2.1612  1.3028 -1.1356
   94MOL   H16039406   6.093   6.049   0.450  0.2710 -0.9473 -1.2403
   94MOL   H16139407   5.832   6.124   0.327 -1.4588 -0.2818  3.4390
   94MOL   H16239408   5.847   6.025   0.471 -1.8525  2.0541 -0.0322
   94MOL   H16339409   5.954   5.849   0.361 -0.0624 -0.5246  0.0275
   94MOL   H16439410   5.953   5.930   0.214  2.2228  2.0507  1.5590
   94MOL   H16539411   5.693   5.863   0.376 -0.4429 -2.8640  0.7053
   94MOL   H16639412   5.771   5.765   0.253 -3.0116  0.7051 -2.3221
   94MOL   H16739413   5.589   5.881   0.155 -0.1916  0.9154  1.1140
   94MOL   H16839414   5.747   5.946   0.083 -2.1116  1.4903 -1.5879
   94MOL   H16939415   5.654   6.042   0.202 -1.3713  0.5677  0.5951
   94MOL   C17039416   6.179   6.320   0.440  0.1253 -0.0530  0.2706
   94MOL   C17139417   6.232   6.368   0.301  0.6186  0.0137 -0.2625
   94MOL   C17239418   6.176   6.507   0.266 -0.1023  0.7842  0.5795
   94MOL   C17339419   6.252   6.629   0.327 -0.2818  0.0583  0.4177
   94MOL   C17439420   6.205   6.770   0.267  0.1843 -0.1788  0.2076
   94MOL   C17539421   6.275   6.881   0.334  0.2911 -0.3818  0.6438
   94MOL   C17639422   6.214   7.020   0.288 -0.3897  0.4256  0.4651
   94MOL   H17739423   6.238   6.233   0.470  0.7393  0.6658  1.2029
   94MOL   H17839424   6.204   6.391   0.519 -0.4595 -0.9129  1.2454
   94MOL   H17939425   6.199   6.311   0.214 -0.5321  1.3231 -0.7028
   94MOL   H18039426   6.074   6.525   0.300 -0.0904 -0.3033  1.2201
   94MOL   H18139427   6.168   6.519   0.158 -3.5146 -2.0446  0.4060
   94MOL   H18239428   6.355   6.630   0.292 -0.4009  1.3047  0.0616
   94MOL   H18339429   6.239   6.624   0.435 -2.2311  1.3576  0.2702
   94MOL   H18439430   6.098   6.788   0.276  0.5374  1.3458  1.4524
   94MOL   H18539431   6.239   6.763   0.163  1.2806 -2.2279  0.6717
   94MOL   H18639432   6.382   6.874   0.315  0.0805 -2.7517  0.1810
   94MOL   H18739433   6.250   6.870   0.440 -1.7360  0.2164  0.2545
   94MOL   H18839434   6.244   7.029   0.183  1.4776  4.4783  1.2305
   94MOL   H18939435   6.284   7.091   0.331  1.3387  0.6099 -2.5487
   94MOL   H19039436   6.109   7.038   0.311 -0.4468  1.2495 -0.4182
   94MOL   C19139437   6.378   6.352   0.282 -0.2906 -0.2824  0.6933
   94MOL   C19239438   6.427   6.205   0.269  0.0955 -0.2082  0.3214
   94MOL   C19339439   6.508   6.164   0.147 -0.1911 -0.1833  0.0801
   94MOL   C19439440   6.430   6.186   0.016 -0.5471  0.0996  0.0616
   94MOL   C19539441   6.518   6.183   7.604 -0.6251  0.2309 -0.4032
   94MOL   C19639442   6.439   6.200   7.475 -0.5301  0.1460  0.1300
   94MOL   C19739443   6.517   6.169   7.352 -0.2372 -0.7296  0.0992
   94MOL   H19839444   6.431   6.408   0.359  0.6683 -0.2754  0.0343
   94MOL   H19939445   6.398   6.417   0.197 -3.2632 -0.1724  0.0265
   94MOL   H20039446   6.336   6.146   0.267 -1.1653  1.6316  2.0895
   94MOL   H20139447   6.546   6.062   0.156  1.0861  0.1627 -1.1153
   94MOL   H20239448   6.595   6.230   0.150  0.2491 -0.7771  0.6281
   94MOL   H20339449   6.395   6.289   0.026  1.7426  0.7998  1.3638
   94MOL   H20439450   6.344   6.120   0.005  0.0398 -0.6530 -0.0706
   94MOL   H20539451   6.590   6.264   7.615 -0.3914  0.3792 -2.8969
   94MOL   H20639452   6.581   6.095   7.594 -0.8520 -0.1516  1.3022
   94MOL   H20739453   6.420   6.307   7.472 -1.2426 -0.0232 -2.5778
   94MOL   H20839454   6.343   6.147   7.476 -0.6629  0.3951  0.6008
   94MOL   H20939455   6.619   6.209   7.352 -0.5174  0.0012 -0.4986
   94MOL   H21039456   6.478   6.209   7.258 -0.2286  0.5468  0.6183
   94MOL   H21139457   6.520   6.063   7.329 -2.3298 -0.1994 -2.8166
   94MOL   C21239458   6.502   6.165   0.398  0.1000 -0.1800  0.2569
   94MOL   C21339459   6.545   6.018   0.427 -0.4739  0.2979 -0.2700
   94MOL   C21439460   6.603   6.002   0.565 -0.1294  0.0216  0.8516
   94MOL   C21539461   6.737   6.085   0.578  0.1075 -0.1519  0.3238
   94MOL   C21639462   6.800   6.082   0.717 -0.0104  0.5166  0.4212
   94MOL   C21739463   6.907   6.189   0.745  0.2589  0.5588  0.6417
   94MOL   C21839464   7.026   6.190   0.650 -0.1113  0.0793  0.0770
   94MOL   H21939465   6.434   6.200   0.476  1.2041  0.3753  0.9798
   94MOL   H22039466   6.591   6.227   0.389 -1.6758  2.0090 -3.2181
   94MOL   H22139467   6.629   5.996   0.360 -0.9735 -1.4613 -0.3454
   94MOL   H22239468   6.543   6.050   0.642  0.7107 -0.3401  1.7524
   94MOL   H22339469   6.609   5.895   0.586  0.2893  0.0357  0.8205
   94MOL   H22439470   6.699   6.187   0.574 -2.9594 -1.2397  0.4176
   94MOL   H22539471   6.803   6.072   0.493 -1.4338  0.1758 -0.9537
   94MOL   H22639472   6.719   6.097   0.788  0.9345  1.3053  1.3576
   94MOL   H22739473   6.841   5.982   0.732  0.4126  0.6819  0.3711
   94MOL   H22839474   6.850   6.281   0.728  0.6542  0.3988 -1.7320
   94MOL   H22939475   6.951   6.192   0.845 -0.3804  2.4801  0.9105
   94MOL   H23039476   7.104   6.262   0.672 -0.3466  0.3217  0.1268
   94MOL   H23139477   6.997   6.188   0.545  0.3654 -0.6718 -0.0424
   94MOL   H23239478   7.073   6.094   0.670  0.6128  0.5959  0.8390
   94MOL   C23339479   6.434   5.913   0.403 -0.0872 -0.2014  0.0484
   94MOL   C23439480   6.466   5.767   0.361 -0.3591  0.0346 -0.2815
   94MOL   C23539481   6.338   5.680   0.339 -0.2943 -0.2626  0.5411
   94MOL   C23639482   6.244   5.666   0.463  0.0190 -0.1254 -0.2045
   94MOL   C23739483   6.121   5.578   0.434  0.2444 -0.8398  0.4274
   94MOL   C23839484   6.026   5.579   0.555  0.6045 -0.1830 -0.1354
   94MOL   C23939485   5.895   5.517   0.508  0.0825  0.2340  0.6249
   94MOL   H24039486   6.376   5.950   0.317  0.3542  1.6077  0.5152
   94MOL   H24139487   6.359   5.928   0.480  0.5281  1.0013  0.4220
   94MOL   H24239488   6.517   5.721   0.446  0.6551 -0.6767 -1.2778
   94MOL   H24339489   6.379   5.581   0.324 -0.2978 -0.1792 -0.0224
   94MOL   H24439490   6.281   5.711   0.251 -2.0278 -0.2701  1.6325
   94MOL   H24539491   6.214   5.766   0.492  0.9612  0.7217 -2.0631
   94MOL   H24639492   6.306   5.625   0.543 -0.0847  1.2867  0.6112
   94MOL   H24739493   6.153   5.476   0.411 -2.0352 -1.7082  0.9655
   94MOL   H24839494   6.059   5.622   0.355 -1.9238 -0.2010  2.4038
   94MOL   H24939495   6.068   5.522   0.637 -2.0225 -2.2654 -0.1645
   94MOL   H25039496   6.010   5.683   0.581  1.3753  0.6624 -2.8076
   94MOL   H25139497   5.900   5.409   0.496  0.1600  0.2814  0.1972
   94MOL   H25239498   5.812   5.531   0.578 -0.2710  2.3372 -0.1764
   94MOL   H25339499   5.863   5.549   0.409  2.0436  0.5375  0.0634
   94MOL   C25439500   6.556   5.753   0.239 -0.6427  0.2909 -0.0226
   94MOL   C25539501   6.647   5.624   0.243  0.3047  0.3013  0.0597
   94MOL   C25639502   6.769   5.640   0.344  0.2298  0.0959 -0.0290
   94MOL   C25739503   6.860   5.762   0.311 -0.0547  0.3316  1.1832
   94MOL   C25839504   6.999   5.741   0.368 -0.7516 -0.0245  0.7427
   94MOL   C25939505   7.074   5.879   0.364 -0.5724 -0.0844  0.2120
   94MOL   C26039506   7.207   5.868   0.446  0.8677  0.0110  0.0739
   94MOL   H26139507   6.621   5.837   0.215  0.3983 -0.6502 -0.5454
   94MOL   H26239508   6.482   5.750   0.159 -0.1547 -1.3111 -0.4289
   94MOL   H26339509   6.601   5.531   0.276  2.8864 -1.3261 -0.7318
   94MOL   H26439510   6.830   5.550   0.338 -1.3448 -1.0888  1.2138
   94MOL   H26539511   6.739   5.645   0.449  0.0668  1.4794 -0.1279
   94MOL   H26639512   6.862   5.770   0.202 -1.4892  0.3868  1.1500
   94MOL   H26739513   6.810   5.852   0.346  0.6500  0.8155  0.9469
   94MOL   H26839514   7.044   5.661   0.309 -2.9673 -1.7896  1.3704
   94MOL   H26939515   6.994   5.697   0.468 -0.4969 -0.2170  0.6702
   94MOL   H27039516   7.104   5.903   0.262 -1.2536  2.0878  0.5089
   94MOL   H27139517   7.010   5.958   0.403 -1.8057  0.0592 -1.9771
   94MOL   H27239518   7.270   5.792   0.399  1.0124 -1.3896  2.4533
   94MOL   H27339519   7.265   5.959   0.456 -0.4155  0.9771 -1.0592
   94MOL   H27439520   7.203   5.827   0.546  1.9945 -0.0340  0.1069
   94MOL   C27539521   6.707   5.588   0.111  0.2040 -0.6131  0.2652
   94MOL   C27639522   6.601   5.512   0.017  0.3243 -0.4049 -0.5757
   94MOL   C27739523   6.622   5.366   0.019  0.0387 -0.8668  0.4172
   94MOL   C27839524   6.500   5.275   7.712 -0.2533 -0.4096  1.4675
   94MOL   C27939525   6.528   5.135   7.659  0.1868 -0.1188 -0.3452
   94MOL   C28039526   6.420   5.032   7.670 -0.0039 -0.1643 -0.1577
   94MOL   C28139527   6.461   4.889   7.635 -0.3273  0.2976  0.0012
   94MOL   H28239528   6.803   5.538   0.120  1.4205  1.3665 -1.2140
   94MOL   H28339529   6.732   5.680   0.057 -1.2861  0.1027  0.7709
   94MOL   H28439530   6.502   5.535   0.058  0.6127 -0.4585  0.1607
   94MOL   H28539531   6.702   5.345   7.661 -1.0460  0.7245 -1.3053
   94MOL   H28639532   6.666   5.347   0.117  1.3281  1.1096  0.2517
   94MOL   H28739533   6.446   5.327   7.633  0.4782 -0.6950  0.7706
   94MOL   H28839534   6.452   5.284   0.096 -1.0967  1.5445  0.8877
   94MOL   H28939535   6.610   5.099   0.008  0.6602 -0.0261 -0.9094
   94MOL   H29039536   6.558   5.146   7.555 -0.6743 -0.7638 -0.6656
   94MOL   H29139537   6.387   5.035   0.061  1.6639 -1.1849  0.4332
   94MOL   H29239538   6.344   5.067   7.601  0.0292  0.0299 -0.0961
   94MOL   H29339539   6.517   4.889   7.541 -0.2460  1.4073  0.0464
   94MOL   H29439540   6.366   4.840   7.615 -1.3102  2.1313  0.0728
   94MOL   H29539541   6.509   4.834   0.003  0.7615  1.4458  0.1633
   94MOL   C29639542   6.605   5.574   7.583 -0.5634  0.4656  0.0822
   94MOL   C29739543   6.555   5.719   7.565  0.1305 -0.7921  0.1439
   94MOL   C29839544   6.396   5.714   7.567  0.2831 -0.1896 -0.3528
   94MOL   C29939545   6.331   5.852   7.596 -0.4075 -0.2674 -0.4788
   94MOL   C30039546   6.181   5.857   7.575  0.1030 -0.4340 -0.0631
   94MOL   C30139547   6.125   5.977   7.504  0.2753 -0.5776 -0.5022
   94MOL   C30239548   5.973   5.979   7.502  0.4391  0.3264  0.6577
   94MOL   H30339549   6.711   5.561   7.560 -0.8951 -0.4991 -0.9590
   94MOL   H30439550   6.542   5.506   7.526 -0.3856 -1.0485  1.6554
   94MOL   H30539551   6.585   5.779   7.651 -0.5545 -0.2045 -0.0210
   94MOL   H30639552   6.352   5.669   7.478 -1.4877 -1.9959  1.3796
   94MOL   H30739553   6.365   5.640   7.641  2.0601  0.8374  1.4942
   94MOL   H30839554   6.375   5.940   7.550 -0.1340  0.1703  0.5939
   94MOL   H30939555   6.351   5.870   7.702 -3.0463  0.6714 -0.0992
   94MOL   H31039556   6.131   5.859   7.672 -2.6943 -2.4984 -1.3867
   94MOL   H31139557   6.137   5.769   7.528  0.1789  0.8018 -2.5455
   94MOL   H31239558   6.153   6.068   7.557 -2.2123  0.9945 -1.8129
   94MOL   H31339559   6.166   5.976   7.403 -2.2135 -2.0441 -1.5412
   94MOL   H31439560   5.934   5.886   7.460 -0.8712  0.7422  0.9324
   94MOL   H31539561   5.938   6.000   7.603 -0.5920  0.6446  0.2431
   94MOL   H31639562   5.939   6.057   7.433 -2.3470 -0.9704  0.4811
   94MOL   C31739563   6.590   5.784   7.428  0.3839  0.5247  0.2339
   94MOL   C31839564   6.736   5.814   7.406  0.0666  0.6565  0.2721
   94MOL   C31939565   6.758   5.881   7.267  0.3045 -0.0175 -0.5520
   94MOL   C32039566   6.665   5.845   7.151 -0.7637  0.0746 -0.0752
   94MOL   C32139567   6.698   5.917   7.019  0.0267 -0.5468  0.1488
   94MOL   C32239568   6.845   5.886   6.977 -0.6035 -0.1065  0.7911
   94MOL   C32339569   6.864   5.967   6.846  0.4511 -0.1729 -0.4977
   94MOL   H32439570   6.534   5.876   7.409  0.7247  0.5247 -0.8092
   94MOL   H32539571   6.568   5.713   7.348  1.4054 -0.1348  0.5367
   94MOL   H32639572   6.782   5.715   7.401 -0.3797  0.4762 -0.3591
   94MOL   H32739573   6.860   5.853   7.240  0.3917 -0.0530 -0.1864
   94MOL   H32839574   6.752   5.990   7.272  0.1629 -0.1129  2.2887
   94MOL   H32939575   6.570   5.892   7.176 -0.1216  0.2920  2.1021
   94MOL   H33039576   6.658   5.737   7.148  0.8216 -0.0371 -0.0406
   94MOL   H33139577   6.685   6.024   7.034  1.8618 -0.3480  0.4129
   94MOL   H33239578   6.622   5.884   6.949 -0.3764  1.3929 -0.3456
   94MOL   H33339579   6.858   5.780   6.956 -0.1458  0.3066 -1.1179
   94MOL   H33439580   6.917   5.915   7.054  0.3498 -1.2860  0.3620
   94MOL   H33539581   6.840   6.071   6.868 -2.6827 -0.7499 -0.9126
   94MOL   H33639582   6.803   5.953   6.757  0.4035 -0.8400 -0.3646
   94MOL   H33739583   6.970   5.956   6.824  1.0231  0.7769  1.6400
   94MOL   C33839584   6.801   5.898   7.516  0.1250 -0.0813 -0.0064
   94MOL   C33939585   6.958   5.911   7.506  0.2866  0.4309 -0.3990
   94MOL   C34039586   7.023   5.772   7.534  0.4750 -0.1846  0.1398
   94MOL   C34139587   7.072   5.708   7.402 -1.0875  0.0656  0.0466
   94MOL   C34239588   7.143   5.569   7.407  0.4232  0.3053 -0.2683
   94MOL   C34339589   7.214   5.546   7.277 -0.2257  0.4729  0.4408
   94MOL   C34439590   7.296   5.416   7.280  0.3175  0.0162  0.1219
   94MOL   H34539591   6.767   5.858   7.612 -2.5171  0.8459 -0.4903
   94MOL   H34639592   6.748   5.993   7.507 -0.8546 -0.5287  0.8057
   94MOL   H34739593   6.981   5.935   7.402 -1.6446 -0.2663 -1.0160
   94MOL   H34839594   7.110   5.774   7.600 -1.2342 -0.6373  2.4825
   94MOL   H34939595   6.953   5.697   7.572  1.4446 -0.4828  1.3667
   94MOL   H35039596   7.131   5.779   7.344 -0.8307 -0.4854 -0.3684
   94MOL   H35139597   6.984   5.697   7.338 -1.0874 -1.0547  0.2302
   94MOL   H35239598   7.200   5.565   7.500 -0.9099 -0.7885  0.5058
   94MOL   H35339599   7.062   5.498   7.419 -1.5934  2.6534  0.3536
   94MOL   H35439600   7.142   5.546   7.195 -0.1802  0.2978  0.3999
   94MOL   H35539601   7.284   5.627   7.255  2.1272 -1.0941  1.9155
   94MOL   H35639602   7.242   5.326   7.311  0.2136  0.2535  0.6331
   94MOL   H35739603   7.387   5.426   7.339  1.5651  2.3385 -2.0639
   94MOL   H35839604   7.328   5.394   7.178 -0.5138 -2.9432  0.4642
   94MOL   C35939605   7.006   6.021   7.604 -0.3878 -0.6634 -0.7069
   94MOL   C36039606   6.977   6.166   7.569 -0.5324  0.1130 -0.0144
   94MOL   C36139607   6.959   6.257   7.704 -0.1535 -0.2047  0.0651
   94MOL   C36239608   7.073   6.244   0.094 -0.5709  0.1128 -0.1394
   94MOL   C36339609   7.057   6.333   0.209 -0.1542 -0.3143 -0.4892
   94MOL   C36439610   7.176   6.344   0.314 -0.1430 -0.3455  0.0680
   94MOL   C36539611   7.149   6.447   0.419  0.1870 -0.0634 -0.3517
   94MOL   H36639612   7.114   6.008   7.610 -0.4470 -0.1516  2.1148
   94MOL   H36739613   6.985   5.991   7.707  0.8409 -1.7853 -0.7587
   94MOL   H36839614   6.880   6.172   7.520 -0.5595  2.0585  0.2555
   94MOL   H36939615   6.951   6.359   7.667  1.5930  0.3747  1.1991
   94MOL   H37039616   6.867   6.231   0.042  0.4676 -0.7194  0.9459
   94MOL   H37139617   7.081   6.143   0.135  2.6198  0.8879  1.2915
   94MOL   H37239618   7.170   6.271   0.054  0.6739 -0.0156  2.6997
   94MOL   H37339619   7.036   6.433   0.171  0.3620  0.7324  1.8936
   94MOL   H37439620   6.970   6.286   0.255 -1.0219 -0.8021 -2.5893
   94MOL   H37539621   7.191   6.241   0.347  0.4033  0.7147  3.2403
   94MOL   H37639622   7.271   6.371   0.266 -0.0586  1.0401  1.0130
   94MOL   H37739623   7.103   6.538   0.381 -1.5737 -0.6901  0.2328
   94MOL   H37839624   7.081   6.409   0.495  0.0821 -0.6742 -0.7541
   94MOL   H37939625   7.246   6.473   0.462  0.9247 -1.0355 -1.3993
   94MOL   C38039626   7.084   6.230   7.464 -0.2995  0.7273 -0.5940
   94MOL   C38139627   7.074   6.380   7.419 -0.2145  0.2517 -0.1384
   94MOL   C38239628   7.172   6.418   7.308  0.8796  0.0925 -0.0953
   94MOL   C38339629   7.163   6.568   7.270  0.6303  0.5511  0.1862
   94MOL   C38439630   7.277   6.626   7.180  0.3450  0.1110  0.1220
   94MOL   C38539631   7.294   6.777   7.185 -0.2404  0.5475 -0.3761
   94MOL   C38639632   7.411   6.818   7.097 -0.3698  0.2011 -0.2091
   94MOL   H38739633   7.185   6.213   7.502 -0.3783  0.6204 -0.4298
   94MOL   H38839634   7.058   6.166   7.380 -1.6927  0.2643  0.1688
   94MOL   H38939635   7.085   6.439   7.509  2.0512 -1.1379  0.5324
   94MOL   H39039636   7.151   6.360   7.218 -1.0076 -0.2409  0.5523
   94MOL   H39139637   7.278   6.398   7.324  1.0073  0.2871 -0.6686
   94MOL   H39239638   7.064   6.587   7.229  1.1857  2.8861 -0.1413
   94MOL   H39339639   7.169   6.617   7.367  1.1114  3.4954 -1.2964
   94MOL   H39439640   7.370   6.573   7.203  0.9429  1.2415  0.3430
   94MOL   H39539641   7.250   6.580   7.084 -0.9993  3.8578 -1.3864
   94MOL   H39639642   7.302   6.813   7.288 -0.6816  0.0022 -0.1518
   94MOL   H39739643   7.206   6.824   7.142  0.9532  2.1782 -1.0897
   94MOL   H39839644   7.501   6.760   7.121 -0.4454 -0.1117 -0.6622
   94MOL   H39939645   7.435   6.923   7.083 -0.9288  0.3127 -0.3595
   94MOL   H40039646   7.383   6.796   6.994  1.5854 -0.9957 -0.5149
   94MOL   C40139647   6.923   6.425   7.381 -0.3324 -0.7584  0.4682
   94MOL   C40239648   6.864   6.378   7.244  0.4632 -0.0234 -0.1899
   94MOL   C40339649   6.742   6.462   7.196  0.1777 -0.2030  0.1010
   94MOL   C40439650   6.677   6.412   7.067  0.3927  0.1018  0.0634
   94MOL   C40539651   6.546   6.490   7.034 -0.5788 -0.0062  0.7433
   94MOL   C40639652   6.499   6.438   6.895  0.0146  0.1872  0.0786
   94MOL   C40739653   6.372   6.506   6.846  0.2350  0.1943  0.0490
   94MOL   H40839654   6.921   6.534   7.385  3.1913 -0.5444 -1.3597
   94MOL   H40939655   6.848   6.397   7.455 -0.2171  2.1466  1.7459
   94MOL   H41039656   6.833   6.276   7.266  1.6535 -0.0908  1.3146
   94MOL   H41139657   6.767   6.568   7.188  0.6738 -0.3889 -0.8183
   94MOL   H41239658   6.660   6.449   7.267 -0.3682 -0.6570 -0.6055
   94MOL   H41339659   6.654   6.306   7.072 -2.2691  0.5509 -1.6996
   94MOL   H41439660   6.747   6.428   6.985 -0.6501 -2.1195 -1.2993
   94MOL   H41539661   6.471   6.486   7.112 -2.2924 -2.2707 -0.9625
   94MOL   H41639662   6.577   6.595   7.024  0.3683 -0.2871  0.6681
   94MOL   H41739663   6.578   6.470   6.827 -0.6699  2.4944  0.2983
   94MOL   H41839664   6.511   6.330   6.893  1.6230  0.3570 -3.2877
   94MOL   H41939665   6.288   6.466   6.902 -0.1258  1.8809  0.7516
   94MOL   H42039666   6.352   6.487   6.740 -0.2685 -0.1030  0.1995
   94MOL   H42139667   6.388   6.614   6.850  0.1347  0.2281 -0.4019
   94MOL   H42239668   6.935   6.368   7.162 -1.0000 -0.4946 -1.4220
   95MOL     C139669   3.707   7.640   2.395 -0.5131  0.3736  0.1267
   95MOL     C239670   3.722   0.079   2.403 -0.5534  0.2261  0.4386
   95MOL     C339671   3.868   0.111   2.441 -0.1904 -0.3852 -0.7548
   95MOL     C439672   3.986   0.076   2.340 -0.2185  0.0959  0.4399
   95MOL     C539673   4.122   0.136   2.366 -0.4911 -0.2397 -0.0669
   95MOL     C639674   4.217   0.081   2.261  1.0837 -0.4617  0.3665
   95MOL     C739675   4.347   0.149   2.287  0.1789 -0.0903 -0.4101
   95MOL     H839676   3.721   7.592   2.491 -0.6796 -0.9790 -0.5181
   95MOL     H939677   3.775   7.595   2.323 -3.0859  0.3018 -2.3788
   95MOL    H1039678   3.706   0.110   2.300  0.7723  1.6238  0.6331
   95MOL    H1139679   3.866   0.218   2.461  2.6690 -0.3482 -0.5316
   95MOL    H1239680   3.903   0.063   2.533  1.6049  0.8436 -0.7725
   95MOL    H1339681   3.990   7.681   2.335 -2.2779 -0.1025  2.1305
   95MOL    H1439682   3.965   0.107   2.238 -1.0708 -0.9438  0.2977
   95MOL    H1539683   4.150   0.111   2.468 -2.5126  1.7633  1.0143
   95MOL    H1639684   4.115   0.244   2.362 -2.3019 -0.3705 -0.7262
   95MOL    H1739685   4.186   0.099   2.159  0.1911 -0.9536  0.5440
   95MOL    H1839686   4.217   7.685   2.260 -0.5557 -0.4668 -0.3016
   95MOL    H1939687   4.426   0.093   2.236  0.3748 -0.9039  0.7629
   95MOL    H2039688   4.367   0.140   2.394 -0.0208  1.7482 -0.2034
   95MOL    H2139689   4.335   0.251   2.252  0.8605  0.1697  0.1212
   95MOL    H2239690   3.609   7.611   2.355  1.1363 -1.1809 -2.9396
   95MOL    C2339691   3.620   0.144   2.493 -0.7683 -0.5855 -0.0301
   95MOL    C2439692   3.473   0.152   2.439  0.3396  0.1472 -0.8533
   95MOL    C2539693   3.446   0.217   2.303 -0.0618  0.1591 -0.3295
   95MOL    C2639694   3.306   0.192   2.246  0.1945 -0.3181 -0.2521
   95MOL    C2739695   3.307   0.226   2.095 -0.0781  0.5915  1.0665
   95MOL    C2839696   3.185   0.164   2.022 -0.1278 -0.5807 -0.2151
   95MOL    C2939697   3.187   0.172   1.872 -0.4478 -0.0767  0.6087
   95MOL    H3039698   3.622   0.085   2.584 -0.5991 -1.6629 -0.7244
   95MOL    H3139699   3.648   0.247   2.514 -1.0999 -0.4184 -0.3929
   95MOL    H3239700   3.430   0.052   2.436 -0.7732  0.5806  0.1669
   95MOL    H3339701   3.523   0.178   2.236  0.3951  1.3489 -0.5262
   95MOL    H3439702   3.462   0.325   2.299 -1.7573  0.3625 -2.8759
   95MOL    H3539703   3.226   0.246   2.298 -0.2008 -0.6886 -0.4740
   95MOL    H3639704   3.289   0.087   2.268 -1.2877  0.0606  0.5220
   95MOL    H3739705   3.389   0.180   2.040 -2.1638 -2.9567  0.8095
   95MOL    H3839706   3.316   0.334   2.082  2.0951  0.3277  0.1990
   95MOL    H3939707   3.093   0.214   2.054  0.5708  0.4928  0.1068
   95MOL    H4039708   3.167   0.059   2.049 -1.0742 -0.3766 -0.0170
   95MOL    H4139709   3.092   0.176   1.818  1.4635  1.8285 -2.7680
   95MOL    H4239710   3.236   0.265   1.843 -0.3786  0.0881  1.2515
   95MOL    H4339711   3.242   0.093   1.823 -0.3005  0.0717  0.5347
   95MOL    C4439712   3.386   0.213   2.561  0.6500  0.4542  0.3161
   95MOL    C4539713   3.335   0.108   2.663 -0.0735  0.3296 -0.0569
   95MOL    C4639714   3.304   0.174   2.797  0.2843 -0.6851  0.0121
   95MOL    C4739715   3.426   0.234   2.874 -0.0095 -0.4809 -0.2724
   95MOL    C4839716   3.398   0.315   3.003 -0.1165  0.0892 -0.2793
   95MOL    C4939717   3.353   0.218   3.116  0.0868  0.2469  0.1947
   95MOL    C5039718   3.473   0.134   3.173  0.1216 -0.9330  0.2154
   95MOL    H5139719   3.295   0.256   2.517 -0.6887 -2.4037  0.1043
   95MOL    H5239720   3.437   0.303   2.594 -0.0425  1.0544 -0.2170
   95MOL    H5339721   3.409   0.032   2.687  0.1920  0.6436  0.1135
   95MOL    H5439722   3.277   0.101   2.873 -0.4410 -0.3885  0.0408
   95MOL    H5539723   3.223   0.245   2.779  1.7162  0.4774 -2.1498
   95MOL    H5639724   3.492   0.153   2.903  0.0457  0.4368  2.3078
   95MOL    H5739725   3.484   0.295   2.805 -0.9952  1.4455  0.5216
   95MOL    H5839726   3.327   0.395   2.982 -0.2929  0.3009  1.0851
   95MOL    H5939727   3.488   0.370   3.033 -0.1557 -0.3611  0.6933
   95MOL    H6039728   3.275   0.148   3.087 -2.2367  2.3653  1.1510
   95MOL    H6139729   3.304   0.279   3.192  1.9949  1.4839  0.4627
   95MOL    H6239730   3.569   0.170   3.135 -0.3630  0.0176 -0.1156
   95MOL    H6339731   3.480   0.032   3.136  2.1658 -0.7943  0.1439
   95MOL    H6439732   3.477   0.133   3.282 -4.1898  0.2620  0.4601
   95MOL    C6539733   3.198   0.039   2.620  0.2163 -0.0064 -0.5958
   95MOL    C6639734   3.153   7.620   2.689  0.2369  0.3472  0.0942
   95MOL    C6739735   3.210   7.501   2.614  0.4860  0.3863 -0.5924
   95MOL    C6839736   3.358   7.480   2.612 -0.3702  0.4031  0.2972
   95MOL    C6939737   3.405   7.339   2.563 -0.5435 -0.6108 -0.3571
   95MOL    C7039738   3.557   7.328   2.578  0.1996 -0.0318  0.6148
   95MOL    C7139739   3.581   7.228   2.689 -0.7919  0.0916  0.1587
   95MOL    H7239740   3.114   0.106   2.634  0.0509 -0.3809  0.1892
   95MOL    H7339741   3.194   0.021   2.512  1.0264 -2.7055 -0.2173
   95MOL    H7439742   3.190   7.609   2.791  0.9339 -0.2348 -0.2139
   95MOL    H7539743   3.172   7.409   2.658 -0.6412  0.7962 -0.6899
   95MOL    H7639744   3.182   7.500   2.508 -2.1362  0.3683  0.0740
   95MOL    H7739745   3.415   7.558   2.561 -1.7993  0.9011 -0.5632
   95MOL    H7839746   3.405   7.501   2.708  1.9778 -0.3703 -0.6564
   95MOL    H7939747   3.349   7.260   2.614 -0.6142  0.4572  1.2339
   95MOL    H8039748   3.378   7.316   2.459 -1.0379  1.8594 -0.7907
   95MOL    H8139749   3.614   7.415   2.609 -1.1123  0.9451  0.3318
   95MOL    H8239750   3.603   7.294   2.485  1.0555 -0.2242  1.0980
   95MOL    H8339751   3.684   7.225   2.724 -0.4504 -0.1413 -0.8635
   95MOL    H8439752   3.521   7.242   2.779 -0.6383  0.2460  0.2356
   95MOL    H8539753   3.549   7.133   2.646 -2.2730  1.3448 -1.5958
   95MOL    C8639754   2.991   7.616   2.697  0.1229  0.4933  0.1456
   95MOL    C8739755   2.902   7.590   2.568  0.7824  0.0636 -0.4483
   95MOL    C8839756   2.779   7.494   2.588  0.7547 -0.1830 -0.3122
   95MOL    C8939757   2.806   7.344   2.621 -0.4053 -0.7213 -0.5068
   95MOL    C9039758   2.683   7.264   2.674  0.0482 -0.3665 -0.3547
   95MOL    C9139759   2.724   7.132   2.741 -0.0859 -0.1865 -0.1803
   95MOL    C9239760   2.605   7.058   2.807  0.3264 -0.3158 -0.0030
   95MOL    H9339761   2.973   7.525   2.754 -0.7699  0.4596 -0.1752
   95MOL    H9439762   2.948   7.691   2.762 -0.9027  2.4349 -2.6522
   95MOL    H9539763   2.965   7.530   2.502  0.7981 -0.4766  0.0532
   95MOL    H9639764   2.720   7.535   2.670  1.3515  1.9261 -0.9290
   95MOL    H9739765   2.706   7.493   2.507  1.1753  0.1568 -0.6957
   95MOL    H9839766   2.851   7.298   2.532 -0.0904 -1.5339  0.0664
   95MOL    H9939767   2.888   7.336   2.692 -0.1497  0.1329 -0.7074
   95MOL   H10039768   2.608   7.258   2.595  1.5651  2.2032 -2.0501
   95MOL   H10139769   2.632   7.312   2.758 -0.2761  1.0855 -1.3678
   95MOL   H10239770   2.752   7.065   2.660 -1.2711 -1.0861  0.1583
   95MOL   H10339771   2.811   7.145   2.806  0.1647  0.9415 -0.7254
   95MOL   H10439772   2.560   7.129   2.876  1.4597 -1.8348  2.3832
   95MOL   H10539773   2.633   6.968   2.862  1.4913  0.4549  0.6733
   95MOL   H10639774   2.529   7.035   2.732  0.9517  0.8436 -1.0189
   95MOL   C10739775   2.856   0.005   2.494 -0.1842 -0.5716  0.0358
   95MOL   C10839776   2.813   7.710   2.341  0.8276 -0.3343 -0.4141
   95MOL   C10939777   2.747   0.126   2.294  0.4547 -0.4364 -0.2184
   95MOL   C11039778   2.654   0.107   2.172  0.1747 -0.4862 -0.1031
   95MOL   C11139779   2.575   0.230   2.137 -0.0289 -0.8441  0.4905
   95MOL   C11239780   2.650   0.357   2.101  0.4981  1.3008 -0.7247
   95MOL   C11339781   2.741   0.341   1.985  0.0580  0.4626 -0.4220
   95MOL   H11439782   2.941   0.073   2.492 -0.1910 -0.5679 -0.2183
   95MOL   H11539783   2.779   0.058   2.551  0.5040 -0.1263  0.5503
   95MOL   H11639784   2.727   7.645   2.351 -1.0582  1.8834 -1.5678
   95MOL   H11739785   2.823   0.199   2.268 -0.4550  0.4043 -0.5517
   95MOL   H11839786   2.688   0.164   2.378  1.5200 -0.5878  0.6120
   95MOL   H11939787   2.718   0.078   2.088 -1.3140 -1.2963 -0.9744
   95MOL   H12039788   2.589   0.023   2.197  3.3674 -2.7140  1.1318
   95MOL   H12139789   2.502   0.248   2.216  0.2125 -2.2959  1.0493
   95MOL   H12239790   2.516   0.205   2.049  0.1426  1.1616 -0.2408
   95MOL   H12339791   2.575   0.435   2.087 -1.0788 -0.3435 -1.6764
   95MOL   H12439792   2.717   0.385   2.183  1.0900 -1.4911 -0.2083
   95MOL   H12539793   2.818   0.418   1.983 -0.3268  0.9400  1.5220
   95MOL   H12639794   2.805   0.253   1.994 -2.5031 -1.3763  0.5041
   95MOL   H12739795   2.687   0.314   1.894 -1.8517 -1.4850  1.2433
   95MOL   C12839796   2.929   7.660   2.244  0.4253  0.3170 -0.4477
   95MOL   C12939797   2.936   7.501   2.202  0.1047 -0.2552  0.2173
   95MOL   C13039798   3.072   7.455   2.142 -0.7473  0.3389 -0.6227
   95MOL   C13139799   3.195   7.449   2.238  1.1280  0.5413  0.0046
   95MOL   C13239800   3.322   7.376   2.176  0.8285  0.4572 -0.2238
   95MOL   C13339801   3.369   7.439   2.048  0.1771 -0.3780  0.0175
   95MOL   C13439802   3.431   7.577   2.062  0.4415 -0.2348  0.3344
   95MOL   H13539803   2.921   0.005   2.153  0.3182  1.4371  0.2704
   95MOL   H13639804   3.027   7.682   2.286  1.2155 -0.2170 -1.9753
   95MOL   H13739805   2.915   7.437   2.288 -0.5119 -0.5108 -0.1263
   95MOL   H13839806   3.093   7.520   2.057 -0.7396  0.0949 -0.8059
   95MOL   H13939807   3.056   7.362   2.088 -0.0602 -0.1374 -0.0199
   95MOL   H14039808   3.161   7.403   2.331 -0.8265 -1.4022 -1.6093
   95MOL   H14139809   3.225   7.552   2.259 -1.6128  1.3384  0.2207
   95MOL   H14239810   3.283   7.277   2.151  1.5626  0.0531  0.2137
   95MOL   H14339811   3.402   7.358   2.247 -2.7190 -3.5178  3.0353
   95MOL   H14439812   3.298   7.448   1.965  1.3362  2.1842 -0.7398
   95MOL   H14539813   3.450   7.380   2.004 -0.1036 -0.8921  0.1825
   95MOL   H14639814   3.528   7.570   2.112 -1.3314 -1.6868  3.7167
   95MOL   H14739815   3.361   7.638   2.118 -0.6346  0.8046 -2.0704
   95MOL   H14839816   3.443   7.618   1.961  0.0290  1.0333  0.7866
   95MOL   C14939817   2.815   7.484   2.104  0.1408  0.5514  0.1685
   95MOL   C15039818   2.792   7.331   2.051 -0.1080 -0.9875 -0.3085
   95MOL   C15139819   2.816   7.326   1.894 -0.0738  0.1415 -0.2918
   95MOL   C15239820   2.801   7.200   1.817 -0.1354 -0.1845 -0.2693
   95MOL   C15339821   2.819   7.213   1.666  0.5128  0.4117 -0.4255
   95MOL   C15439822   2.711   7.301   1.591  0.1371  0.6262 -0.3509
   95MOL   C15539823   2.721   7.303   1.434  0.4999  0.0292  0.5430
   95MOL   H15639824   2.715   7.520   2.129 -0.4345 -0.1921 -1.0147
   95MOL   H15739825   2.837   7.546   2.017 -2.0952 -0.7376 -1.3653
   95MOL   H15839826   2.867   7.260   2.087 -1.0720 -0.6382  2.4745
   95MOL   H15939827   2.757   7.410   1.857 -1.3581 -0.3552  0.6172
   95MOL   H16039828   2.917   7.367   1.886  0.3465 -0.9619 -0.7139
   95MOL   H16139829   2.703   7.157   1.837  0.0507 -0.1875  0.6813
   95MOL   H16239830   2.872   7.129   1.859  0.9698  1.3596  0.5190
   95MOL   H16339831   2.827   7.119   1.611 -3.1829  0.9378 -2.0413
   95MOL   H16439832   2.920   7.253   1.656  0.0649  1.5949 -0.2628
   95MOL   H16539833   2.717   7.403   1.628 -0.9281 -0.6760  3.7709
   95MOL   H16639834   2.609   7.263   1.600  0.6281 -0.6323 -0.0347
   95MOL   H16739835   2.748   7.207   1.391 -0.2948  1.6428 -3.8624
   95MOL   H16839836   2.803   7.370   1.406  1.3291 -0.4139  1.8524
   95MOL   H16939837   2.629   7.323   1.380 -0.6577  0.3437  2.6005
   95MOL   C17039838   2.650   7.284   2.085  0.1507 -0.7710  0.9811
   95MOL   C17139839   2.627   7.265   2.235 -1.1290 -0.3018  0.5169
   95MOL   C17239840   2.481   7.231   2.275  0.0996 -0.1232 -0.6877
   95MOL   C17339841   2.378   7.348   2.278  0.8722 -0.5539 -0.4441
   95MOL   C17439842   2.392   7.440   2.400 -0.3526  0.3851 -0.6580
   95MOL   C17539843   2.280   7.539   2.416 -0.2198 -0.3915 -0.4433
   95MOL   C17639844   2.316   7.657   2.512 -0.1659 -0.5701  0.2376
   95MOL   H17739845   2.630   7.188   2.039 -0.9697  0.0699 -0.3402
   95MOL   H17839846   2.581   7.356   2.040  1.7217  0.8669  1.1314
   95MOL   H17939847   2.655   7.355   2.290  2.2179  0.2824 -1.9622
   95MOL   H18039848   2.483   7.183   2.373  1.3435 -0.3706 -0.8243
   95MOL   H18139849   2.442   7.157   2.205  0.9508 -0.5615 -0.6976
   95MOL   H18239850   2.274   7.315   2.268  0.7785 -0.9653  1.6432
   95MOL   H18339851   2.391   7.402   2.184  1.3943 -1.1868 -0.7446
   95MOL   H18439852   2.477   7.501   2.367  0.0307  1.2204  1.7832
   95MOL   H18539853   2.413   7.394   2.496 -0.2259  0.8270 -0.4710
   95MOL   H18639854   2.200   7.480   2.461 -2.6240  1.7623 -1.7347
   95MOL   H18739855   2.242   7.577   2.321 -0.7733 -0.7744 -0.3793
   95MOL   H18839856   2.332   7.623   2.615  1.6959 -1.0922 -0.2033
   95MOL   H18939857   2.235   0.016   2.527 -1.2686 -1.3540 -1.7573
   95MOL   H19039858   2.409   7.704   2.480 -0.6398 -0.2076 -0.6157
   95MOL   C19139859   2.731   7.162   2.296  0.1919 -0.2718 -0.2979
   95MOL   C19239860   2.728   7.014   2.239  0.2391 -0.4595  0.1801
   95MOL   C19339861   2.863   6.939   2.241 -0.1679  0.5519 -0.5022
   95MOL   C19439862   2.917   6.923   2.386 -0.2684 -0.0349  0.1809
   95MOL   C19539863   3.051   6.852   2.388 -0.6250  0.4340 -0.6848
   95MOL   C19639864   3.095   6.818   2.530 -0.2321  0.3069 -0.1356
   95MOL   C19739865   3.219   6.725   2.534  0.8586  0.4259 -0.4389
   95MOL   H19839866   2.720   7.152   2.404 -0.4347 -2.7773 -0.5719
   95MOL   H19939867   2.835   7.192   2.291  0.2956 -0.8627 -1.8964
   95MOL   H20039868   2.706   7.026   2.133  1.2225  2.4782  0.2759
   95MOL   H20139869   2.941   6.985   2.181  1.4744 -2.1714 -0.5230
   95MOL   H20239870   2.854   6.841   2.195  1.1502  0.5120 -0.6653
   95MOL   H20339871   2.846   6.868   2.448 -1.1972 -0.3298 -1.1154
   95MOL   H20439872   2.936   7.020   2.431  4.9819  0.0913 -1.9883
   95MOL   H20539873   3.056   6.766   2.322 -0.8160 -0.2869  0.2270
   95MOL   H20639874   3.123   6.927   2.355 -0.4452  0.1428 -0.9483
   95MOL   H20739875   3.011   6.775   2.585 -0.6603  0.4886 -0.6440
   95MOL   H20839876   3.115   6.918   2.569 -2.5701  1.5613 -2.0072
   95MOL   H20939877   3.273   6.726   2.628  1.3807  0.2904 -0.7360
   95MOL   H21039878   3.293   6.746   2.457  0.7842 -0.1615 -0.6695
   95MOL   H21139879   3.190   6.620   2.531  2.1364  0.0894 -2.7502
   95MOL   C21239880   2.618   6.922   2.286 -0.3730 -0.0131  0.2449
   95MOL   C21339881   2.516   6.884   2.174 -0.0568 -0.2644  0.7857
   95MOL   C21439882   2.580   6.788   2.067 -0.2745  0.0554 -0.3692
   95MOL   C21539883   2.588   6.853   1.931 -0.7594 -0.6371 -0.1185
   95MOL   C21639884   2.692   6.781   1.842  0.0168  0.6184 -0.0369
   95MOL   C21739885   2.715   6.846   1.703  0.4711 -0.8122 -0.2199
   95MOL   C21839886   2.829   6.790   1.621  0.5758 -0.5692  1.1271
   95MOL   H21939887   2.571   6.964   2.376  0.4703  2.9217 -0.6324
   95MOL   H22039888   2.655   6.827   2.324 -0.1205 -1.0447 -2.4918
   95MOL   H22139889   2.479   6.968   2.116 -1.0879 -1.3835 -0.2126
   95MOL   H22239890   2.685   6.772   2.094 -0.3263  0.0981 -0.1455
   95MOL   H22339891   2.516   6.701   2.073 -1.1482  0.6859 -0.4548
   95MOL   H22439892   2.603   6.959   1.950  0.2305 -0.9826  1.0375
   95MOL   H22539893   2.490   6.838   1.885 -0.7143  0.9097 -0.7773
   95MOL   H22639894   2.786   6.786   1.898  1.4011 -0.5491 -2.2041
   95MOL   H22739895   2.669   6.679   1.812  0.6339 -0.0798  1.7692
   95MOL   H22839896   2.619   6.822   1.658  0.1445  3.6453 -2.1969
   95MOL   H22939897   2.728   6.954   1.709  2.1855 -1.0125 -0.0828
   95MOL   H23039898   2.928   6.811   1.662 -0.2285  0.7915  2.4033
   95MOL   H23139899   2.831   6.823   1.517  0.5117 -3.9025  0.0218
   95MOL   H23239900   2.825   6.681   1.618 -0.1515 -0.5507  1.3476
   95MOL   C23339901   2.389   6.825   2.240  0.4419  0.1468 -0.2945
   95MOL   C23439902   2.264   6.806   2.146 -0.2542  0.3790  0.0011
   95MOL   C23539903   2.180   6.696   2.199  0.9734 -0.4820  0.4635
   95MOL   C23639904   2.115   6.703   2.340 -0.3460 -0.1313  0.0780
   95MOL   C23739905   2.076   6.563   2.398  0.1442  0.4405  0.2015
   95MOL   C23839906   2.039   6.563   2.543  0.0802  0.1300 -0.3620
   95MOL   C23939907   2.024   6.413   2.602 -0.3171 -0.1444 -0.5075
   95MOL   H24039908   2.350   6.890   2.319  0.0964  1.2429 -1.3550
   95MOL   H24139909   2.417   6.732   2.288 -1.8903  0.0442  0.9335
   95MOL   H24239910   2.296   6.770   2.048  0.2080 -1.5998  0.8553
   95MOL   H24339911   2.241   6.606   2.199  2.5814  0.5821  0.4024
   95MOL   H24439912   2.107   6.679   2.120  0.0664  1.3195  0.9091
   95MOL   H24539913   2.024   6.762   2.353 -1.1171 -1.2431 -0.2308
   95MOL   H24639914   2.194   6.744   2.402  0.0007 -0.0623 -0.4108
   95MOL   H24739915   2.161   6.497   2.384 -1.1457 -1.3647  0.7385
   95MOL   H24839916   2.006   6.516   2.329  2.9757 -2.1972 -1.0049
   95MOL   H24939917   2.120   6.604   2.603  0.1618  0.7864 -0.9247
   95MOL   H25039918   1.942   6.608   2.565 -0.4595 -1.4221  0.5949
   95MOL   H25139919   1.954   6.350   2.548  1.8351 -0.6693 -2.7927
   95MOL   H25239920   2.110   6.346   2.596 -0.7248 -0.5352 -2.6551
   95MOL   H25339921   1.995   6.418   2.707  1.1188  0.4968 -0.1267
   95MOL   C25439922   2.197   6.939   2.111 -0.0823 -0.1947  0.1882
   95MOL   C25539923   2.091   6.938   1.994  0.3026  0.1619 -0.8017
   95MOL   C25639924   2.147   6.954   1.851 -0.1055 -1.0995  0.4946
   95MOL   C25739925   2.051   6.918   1.734  0.0228  0.4885  0.2620
   95MOL   C25839926   2.065   6.771   1.690 -0.2661  0.4219 -0.0662
   95MOL   C25939927   2.191   6.733   1.604 -0.1096  0.3087 -0.4218
   95MOL   C26039928   2.182   6.596   1.538  0.1684 -0.2268  0.0988
   95MOL   H26139929   2.268   7.019   2.088 -0.4142 -0.0592 -0.3768
   95MOL   H26239930   2.150   6.979   2.201 -0.0361 -1.0593  0.6021
   95MOL   H26339931   2.045   6.839   1.993 -0.5986  0.5646 -0.1372
   95MOL   H26439932   2.239   6.896   1.841 -1.1123 -3.1251  2.7492
   95MOL   H26539933   2.181   7.058   1.855 -1.9023 -0.5419  1.9896
   95MOL   H26639934   1.948   6.945   1.759  0.2086  1.6218 -0.1580
   95MOL   H26739935   2.074   6.985   1.651 -1.1492  0.3753 -0.1733
   95MOL   H26839936   1.976   6.754   1.629 -0.1475  0.2827 -0.1996
   95MOL   H26939937   2.058   6.698   1.771  2.7696  0.0188 -0.1375
   95MOL   H27039938   2.188   6.807   1.524  2.4874 -0.6050 -1.4053
   95MOL   H27139939   2.286   6.742   1.656 -0.7830 -3.0160  1.5483
   95MOL   H27239940   2.082   6.573   1.501  0.0554  0.8482 -0.2833
   95MOL   H27339941   2.254   6.578   1.458  0.4645  0.1507  0.2809
   95MOL   H27439942   2.212   6.522   1.612  0.5326 -1.1158 -0.9358
   95MOL   C27539943   1.976   7.041   2.012  0.6081  0.2368  0.3388
   95MOL   C27639944   1.885   7.037   2.141 -0.1906 -0.5829  0.3372
   95MOL   C27739945   1.802   6.905   2.153  0.0922  0.2353  1.1066
   95MOL   C27839946   1.759   6.867   2.297 -0.0138  0.4123  0.5740
   95MOL   C27939947   1.700   6.717   2.288  0.4107 -0.5544  0.3915
   95MOL   C28039948   1.684   6.646   2.425  0.5122 -0.4337  0.9624
   95MOL   C28139949   1.641   6.500   2.412 -0.0869  0.3991  0.6357
   95MOL   H28239950   1.906   7.025   1.930  1.3213 -1.9850  0.1261
   95MOL   H28339951   2.023   7.138   1.994  1.7116 -0.3568 -0.0220
   95MOL   H28439952   1.949   7.031   2.229 -1.4733  1.4781  1.4470
   95MOL   H28539953   1.714   6.910   2.089 -1.1394 -0.4910  2.6984
   95MOL   H28639954   1.869   6.827   2.115 -0.4053 -0.8629  2.4537
   95MOL   H28739955   1.685   6.937   2.336  0.3692  0.6729  0.8329
   95MOL   H28839956   1.842   6.876   2.366  1.3833  2.8363 -1.3437
   95MOL   H28939957   1.770   6.659   2.227 -0.6891 -0.1856 -1.2478
   95MOL   H29039958   1.596   6.714   2.256 -0.0670 -1.3394  1.9976
   95MOL   H29139959   1.785   6.644   2.464  1.1717  1.7204 -0.5301
   95MOL   H29239960   1.631   6.705   2.499 -2.5121  0.0231 -1.4351
   95MOL   H29339961   1.647   6.451   2.509 -2.1077 -0.8288  0.1635
   95MOL   H29439962   1.711   6.452   2.344 -1.3930 -1.6625  0.6981
   95MOL   H29539963   1.540   6.485   2.373  0.5644  0.0448 -0.9398
   95MOL   C29639964   1.803   7.161   2.156 -0.2856  0.3582 -0.5263
   95MOL   C29739965   1.884   7.295   2.187 -1.0376 -0.9397  0.0450
   95MOL   C29839966   1.989   7.292   2.301  0.0347 -0.8912 -0.1301
   95MOL   C29939967   1.938   7.242   2.437 -0.4082 -0.2567 -0.3410
   95MOL   C30039968   2.041   7.227   2.539 -0.0121 -0.0244 -0.1930
   95MOL   C30139969   2.143   7.113   2.508  0.5980 -0.2385  0.5160
   95MOL   C30239970   2.242   7.094   2.616  0.1788  0.1903 -0.0095
   95MOL   H30339971   1.738   7.177   2.070  0.4188 -0.4698 -1.2194
   95MOL   H30439972   1.741   7.144   2.243 -0.8773  1.0202 -0.8119
   95MOL   H30539973   1.951   7.316   2.104 -1.4897 -0.5265 -0.2177
   95MOL   H30639974   2.069   7.231   2.259  1.6247  1.4049 -0.5117
   95MOL   H30739975   2.032   7.390   2.316 -0.7882 -0.6254  0.5442
   95MOL   H30839976   1.892   7.146   2.411 -0.7795  0.3481 -2.0120
   95MOL   H30939977   1.848   7.298   2.465 -0.4763 -0.1790 -0.7167
   95MOL   H31039978   1.998   7.199   2.636 -2.1848  1.6901 -0.6037
   95MOL   H31139979   2.092   7.317   2.574 -1.1584  0.9517 -0.9829
   95MOL   H31239980   2.085   7.020   2.503  0.4617 -0.1627  0.7036
   95MOL   H31339981   2.195   7.133   2.415  2.7251 -2.1111  1.2408
   95MOL   H31439982   2.312   7.010   2.606  0.1980  0.1879  0.1365
   95MOL   H31539983   2.314   7.174   2.630 -0.0910  0.2871  0.8491
   95MOL   H31639984   2.188   7.095   2.711 -0.6580  2.8385 -0.4783
   95MOL   C31739985   1.792   7.416   2.209 -0.0662 -0.0295 -0.1094
   95MOL   C31839986   1.849   7.553   2.180  0.0648  0.3888 -0.4255
   95MOL   C31939987   1.842   7.589   2.027 -0.2616  0.1723 -0.1370
   95MOL   C32039988   1.692   7.606   1.973  0.1971  0.3640  0.2810
   95MOL   C32139989   1.680   7.676   1.831  0.3713  0.3201  0.1581
   95MOL   C32239990   1.535   0.008   1.781 -0.4367  0.4665 -0.3745
   95MOL   C32339991   1.561   0.075   1.647 -0.3169  0.5083  0.0911
   95MOL   H32439992   1.748   7.409   2.309  0.8435  0.8141  0.3600
   95MOL   H32539993   1.706   7.398   2.145  0.6172 -2.6890 -0.3405
   95MOL   H32639994   1.955   7.558   2.204 -0.1448 -1.3123  1.0158
   95MOL   H32739995   1.891   7.517   1.962  0.4347  0.3552  0.1861
   95MOL   H32839996   1.887   7.688   2.019  0.4038 -0.0219  1.0874
   95MOL   H32939997   1.627   7.656   2.044 -0.0140 -1.4830  1.4191
   95MOL   H33039998   1.649   7.506   1.973 -0.9603  0.8408 -0.8051
   95MOL   H33139999   1.734   7.620   1.754 -1.9513  0.2264 -1.4348
   95MOL   H33240000   1.740   0.053   1.838  0.3837  0.2016  1.8804
   95MOL   H33340001   1.498   0.076   1.858  3.0496  1.7301  0.2796
   95MOL   H33440002   1.476   7.630   1.772 -0.2747 -0.0780  3.1577
   95MOL   H33540003   1.477   0.117   1.591 -0.7790 -2.0909 -1.2504
   95MOL   H33640004   1.601   7.711   1.581 -2.5019  0.1773 -0.9039
   95MOL   H33740005   1.642   0.147   1.652 -0.8457  1.3807 -2.9142
   95MOL   C33840006   1.778   7.667   2.271 -0.8975 -0.4111  0.1530
   95MOL   C33940007   1.862   0.003   2.383  0.2293 -0.1084  0.3352
   95MOL   C34040008   1.881   7.626   2.500  0.2306 -0.5140 -0.3169
   95MOL   C34140009   1.751   7.592   2.579 -0.3438 -1.0357 -0.2853
   95MOL   C34240010   1.785   7.511   2.703 -0.5202 -0.1145  0.3162
   95MOL   C34340011   1.660   7.475   2.780 -0.2666 -0.0965 -0.3142
   95MOL   C34440012   1.588   7.604   2.835 -0.6489 -0.3181  0.3459
   95MOL   H34540013   1.679   7.630   2.298 -0.8838 -2.3177 -2.2189
   95MOL   H34640014   1.753   0.040   2.210  0.3457 -0.5836 -0.6071
   95MOL   H34740015   1.961   0.015   2.338  0.9969  1.9124  2.4580
   95MOL   H34840016   1.928   7.533   2.466 -0.5274 -1.0210  0.0183
   95MOL   H34940017   1.948   7.681   2.567 -0.2252  2.0117 -1.8840
   95MOL   H35040018   1.692   7.520   2.523 -0.7182  0.1232 -1.4113
   95MOL   H35140019   1.693   7.682   2.602  0.1321 -0.9456  0.5735
   95MOL   H35240020   1.837   7.422   2.666  0.9551  0.6514  0.5095
   95MOL   H35340021   1.854   7.567   2.764  0.0074 -0.3216 -0.0824
   95MOL   H35440022   1.584   7.423   2.721 -0.3453 -1.3407  0.8414
   95MOL   H35540023   1.689   7.406   2.860 -0.0062 -0.1459 -0.4504
   95MOL   H35640024   1.557   7.668   2.753 -1.4646 -0.5085  0.5033
   95MOL   H35740025   1.655   7.676   2.882 -1.1509  0.5994 -0.3240
   95MOL   H35840026   1.508   7.580   2.905 -0.0773  0.4471  1.2904
   95MOL   C35940027   1.825   0.147   2.421 -0.5578 -0.1397 -0.7021
   95MOL   C36040028   1.895   0.246   2.321 -0.4882 -0.6957  0.4515
   95MOL   C36140029   1.810   0.378   2.323  0.0884 -0.4648 -0.4983
   95MOL   C36240030   1.700   0.385   2.211  0.6291  0.7401  0.0639
   95MOL   C36340031   1.742   0.436   2.076 -0.1915 -0.4568 -0.1544
   95MOL   C36440032   1.775   0.333   1.973 -0.3575  0.0130 -0.0100
   95MOL   C36540033   1.837   0.400   1.854 -0.4652  0.1606  0.2023
   95MOL   H36640034   1.867   0.177   2.517  0.7079 -2.8287 -0.3727
   95MOL   H36740035   1.716   0.147   2.421 -0.5660  0.1726 -1.8075
   95MOL   H36840036   1.896   0.206   2.219 -2.3559 -2.3683  1.0506
   95MOL   H36940037   1.747   0.387   2.412 -0.7605  0.1593 -1.1545
   95MOL   H37040038   1.885   0.457   2.318 -2.6475  2.4281  1.5042
   95MOL   H37140039   1.649   0.289   2.201  1.7660 -0.0943  1.9939
   95MOL   H37240040   1.628   0.458   2.249  1.0070  0.3993  1.4489
   95MOL   H37340041   1.671   0.508   2.036 -0.0359  0.0254  0.4223
   95MOL   H37440042   1.834   0.492   2.087  0.5150 -1.1854 -2.1568
   95MOL   H37540043   1.837   0.253   2.013 -0.7410 -0.6516 -0.7312
   95MOL   H37640044   1.680   0.282   1.954  1.3697 -2.1734 -3.3637
   95MOL   H37740045   1.842   0.340   1.763 -2.1962 -0.8893  0.7697
   95MOL   H37840046   1.791   0.492   1.821 -0.2250  0.0309 -0.5061
   95MOL   H37940047   1.939   0.424   1.883 -1.0914  1.2376  1.5512
   95MOL   C38040048   2.036   0.278   2.359 -1.0257 -0.4650 -0.7302
   95MOL   C38140049   2.127   0.351   2.258 -0.8043  0.0236  0.9607
   95MOL   C38240050   2.193   0.481   2.317 -0.6120 -0.4828 -0.0490
   95MOL   C38340051   2.272   0.564   2.212 -0.0361  0.1746  1.0848
   95MOL   C38440052   2.205   0.609   2.083  0.2956 -0.2445  0.1157
   95MOL   C38540053   2.067   0.679   2.099  0.4484 -0.6193 -0.0731
   95MOL   C38640054   2.079   0.826   2.128  0.2027 -0.0059  0.1937
   95MOL   H38740055   2.021   0.337   2.450 -0.3942  0.3174 -1.1260
   95MOL   H38840056   2.092   0.188   2.384  0.5421  1.2507  2.2765
   95MOL   H38940057   2.061   0.391   2.181 -1.5798 -0.5196  1.3287
   95MOL   H39040058   2.266   0.442   2.387  0.7795  1.1120 -0.5699
   95MOL   H39140059   2.130   0.545   2.379  1.6477 -0.3237  2.1137
   95MOL   H39240060   2.302   0.657   2.262 -0.7519  0.0281  1.8037
   95MOL   H39340061   2.363   0.508   2.193  1.6921  2.7948  1.3469
   95MOL   H39440062   2.269   0.672   2.020 -1.3242  2.4637  1.0870
   95MOL   H39540063   2.175   0.522   2.024 -1.1348  2.1670 -2.8796
   95MOL   H39640064   2.014   0.624   2.177  2.1893 -3.1885 -0.6269
   95MOL   H39740065   2.001   0.665   2.014  0.7274  1.0324 -0.5672
   95MOL   H39840066   1.985   0.882   2.132  0.4843  0.4660  0.2142
   95MOL   H39940067   2.128   0.887   2.053  0.2841  1.4157  1.3784
   95MOL   H40040068   2.129   0.849   2.222  0.6489  0.8577 -0.2537
   95MOL   C40140069   2.223   0.258   2.177 -0.4094 -0.2284  0.7759
   95MOL   C40240070   2.157   0.136   2.105  0.1445  0.2071 -0.1950
   95MOL   C40340071   2.272   0.052   2.041  0.2611 -0.3678  0.5048
   95MOL   C40440072   2.212   7.637   1.976 -0.0828  0.5079 -0.0171
   95MOL   C40540073   2.315   7.535   1.906 -0.5892 -0.0520  0.3037
   95MOL   C40640074   2.253   7.412   1.838 -0.0590 -0.5959  1.0324
   95MOL   C40740075   2.365   7.321   1.793  0.3984 -0.0344  0.0134
   95MOL   H40840076   2.300   0.220   2.245  0.9371 -1.1825 -1.2398
   95MOL   H40940077   2.278   0.316   2.102 -1.5403 -1.5070 -1.0797
   95MOL   H41040078   2.107   0.178   2.017 -0.6900  1.9783  1.0806
   95MOL   H41140079   2.346   0.025   2.117  0.6130  0.2231  0.3814
   95MOL   H41240080   2.320   0.117   1.968  0.2323 -0.4027  0.4559
   95MOL   H41340081   2.130   7.658   1.908 -0.2966  1.4597  0.5185
   95MOL   H41440082   2.165   7.582   2.058  1.1458  1.6576  1.5146
   95MOL   H41540083   2.366   7.601   1.835 -0.6177 -0.4862 -0.1203
   95MOL   H41640084   2.394   7.496   1.970 -0.2401 -1.4897 -0.9858
   95MOL   H41740085   2.183   7.355   1.900 -1.6896 -1.6440 -1.6957
   95MOL   H41840086   2.189   7.433   1.752  0.4281  0.5397  0.9413
   95MOL   H41940087   2.322   7.231   1.750 -2.8641  1.8456 -0.8580
   95MOL   H42040088   2.425   7.282   1.875 -1.1637 -0.2505  1.0842
   95MOL   H42140089   2.427   7.374   1.721 -0.6876 -1.1466 -1.7828
   95MOL   H42240090   2.080   0.089   2.167  0.1243  1.7670  0.9986
   96MOL     C140091   1.289   6.749   2.549 -0.4061 -0.5295  0.1085
   96MOL     C240092   1.377   6.869   2.537  0.0671  0.3787 -0.6038
   96MOL     C340093   1.443   6.894   2.673 -0.0294  0.3741  0.2675
   96MOL     C440094   1.561   6.998   2.661 -0.7716 -0.4478  0.3583
   96MOL     C540095   1.640   7.014   2.785 -0.4803  0.6538 -0.0919
   96MOL     C640096   1.787   7.064   2.766  0.5708  0.3707 -0.2502
   96MOL     C740097   1.881   7.056   2.884  0.0676  0.1637 -1.1594
   96MOL     H840098   1.328   6.659   2.597  0.1608  1.3574  3.4131
   96MOL     H940099   1.247   6.726   2.452  0.7581 -0.1380 -0.4993
   96MOL    H1040100   1.458   6.834   2.473 -1.0087 -0.6704 -1.4080
   96MOL    H1140101   1.366   6.924   2.744 -0.9022  0.5232 -0.7165
   96MOL    H1240102   1.489   6.801   2.704 -0.6957  0.9324  3.0076
   96MOL    H1340103   1.624   6.962   2.580 -1.5080  1.2689 -1.0097
   96MOL    H1440104   1.522   7.095   2.631  0.2143  0.1185  0.8718
   96MOL    H1540105   1.644   6.916   2.832 -0.0570 -0.7215 -2.9292
   96MOL    H1640106   1.579   7.075   2.852  0.0050 -1.1399  2.0432
   96MOL    H1740107   1.778   7.159   2.713 -0.9822  0.6634  0.5030
   96MOL    H1840108   1.827   6.987   2.701 -0.2219 -0.3792  0.1364
   96MOL    H1940109   1.836   7.100   2.973  0.1612  0.3146 -1.1861
   96MOL    H2040110   1.969   7.118   2.869  1.2763 -0.6152  2.2344
   96MOL    H2140111   1.903   6.951   2.902 -1.7924 -0.3423 -1.7704
   96MOL    H2240112   1.210   6.785   2.615 -0.3800  1.9028 -1.1131
   96MOL    C2340113   1.318   6.990   2.465  0.1906 -0.1298  0.3723
   96MOL    C2440114   1.240   6.974   2.332 -0.1038  0.1614 -0.0088
   96MOL    C2540115   1.333   6.946   2.218  0.4248  0.0624 -0.3065
   96MOL    C2640116   1.263   6.867   2.103  0.3348  0.3388 -0.3623
   96MOL    C2740117   1.370   6.824   1.998 -0.7974 -0.3525  0.1323
   96MOL    C2840118   1.431   6.945   1.917  0.9479 -0.1269  0.2512
   96MOL    C2940119   1.539   6.893   1.823 -0.0313 -0.7968  0.3670
   96MOL    H3040120   1.254   7.038   2.539 -0.4623 -1.7633  0.8846
   96MOL    H3140121   1.395   7.067   2.454 -1.1289  0.9978 -1.2310
   96MOL    H3240122   1.174   6.889   2.350 -1.5858  1.1985 -0.4243
   96MOL    H3340123   1.429   6.905   2.250  0.2244 -0.2776 -0.1305
   96MOL    H3440124   1.359   7.042   2.175 -2.1032  0.2656 -1.4516
   96MOL    H3540125   1.194   6.926   2.043 -1.7058 -1.5078  0.1223
   96MOL    H3640126   1.218   6.775   2.142  1.9655  0.1425  1.1460
   96MOL    H3740127   1.333   6.752   1.925 -1.2295 -1.7939  1.7303
   96MOL    H3840128   1.450   6.765   2.043  0.8056  0.7232 -1.2522
   96MOL    H3940129   1.484   7.014   1.984 -0.0225  1.0314 -0.1751
   96MOL    H4040130   1.347   6.996   1.871  2.1649  0.4729 -1.3436
   96MOL    H4140131   1.634   6.861   1.865  1.1697  2.1044 -0.0108
   96MOL    H4240132   1.502   6.820   1.752 -0.7171  0.8819 -1.0334
   96MOL    H4340133   1.571   6.977   1.761 -0.8476 -0.8575 -0.1413
   96MOL    C4440134   1.145   7.096   2.323  0.2582 -0.5359 -0.9343
   96MOL    C4540135   1.015   7.076   2.412 -0.5995  0.2998 -0.1948
   96MOL    C4640136   0.960   7.203   2.467  0.2975 -0.2013  0.5270
   96MOL    C4740137   1.025   7.270   2.595  0.0645  0.4851  0.1286
   96MOL    C4840138   0.986   7.417   2.620 -0.2450 -0.1590 -0.3232
   96MOL    C4940139   1.081   7.482   2.725 -0.0893 -0.1911 -0.6326
   96MOL    C5040140   1.048   7.631   2.739 -0.1325 -0.2013  0.2842
   96MOL    H5140141   1.105   7.108   2.222 -1.8200  2.9578  0.2145
   96MOL    H5240142   1.194   7.189   2.351  1.5014 -1.7764  1.1665
   96MOL    H5340143   1.052   7.026   2.501 -0.5955  1.4942  0.4760
   96MOL    H5440144   0.857   7.183   2.497 -0.0400  1.0461  0.2330
   96MOL    H5540145   0.947   7.277   2.388 -1.4008 -1.2733 -0.2051
   96MOL    H5640146   1.005   7.217   2.688 -1.8948 -0.8240 -1.0198
   96MOL    H5740147   1.133   7.270   2.582  0.1713  0.9880  0.9315
   96MOL    H5840148   0.879   7.424   2.640 -0.3739  0.7301 -1.2670
   96MOL    H5940149   0.996   7.477   2.530  1.5388  0.6004  0.3702
   96MOL    H6040150   1.185   7.463   2.698 -0.3881 -1.5345 -0.8623
   96MOL    H6140151   1.068   7.428   2.818  1.8232 -0.7800 -0.6882
   96MOL    H6240152   1.121   7.683   2.801 -0.3208  1.0020 -0.4848
   96MOL    H6340153   0.957   7.638   2.798 -0.3315  0.6669 -0.1125
   96MOL    H6440154   1.038   7.680   2.642  0.6930  1.0772  0.8232
   96MOL    C6540155   0.901   6.985   2.343 -0.3355  0.0176 -0.2043
   96MOL    C6640156   0.801   6.916   2.439  0.3693  0.2849 -0.4745
   96MOL    C6740157   0.873   6.802   2.517 -0.2872  0.1933 -0.5287
   96MOL    C6840158   0.793   6.755   2.640 -0.1149 -0.6161 -0.0508
   96MOL    C6940159   0.880   6.668   2.732 -0.0296 -0.3660  0.1436
   96MOL    C7040160   0.922   6.546   2.666  0.6611  0.3043 -0.3950
   96MOL    C7140161   0.808   6.461   2.611 -0.4688 -0.0611 -0.0989
   96MOL    H7240162   0.836   7.049   2.282 -1.1581 -1.2367 -0.6614
   96MOL    H7340163   0.946   6.915   2.272 -0.5158 -0.0581 -0.2446
   96MOL    H7440164   0.768   6.994   2.507  1.1473 -0.8761  1.2647
   96MOL    H7540165   0.904   6.714   2.460 -2.2815 -0.8811  0.0273
   96MOL    H7640166   0.964   6.855   2.548 -0.0241 -0.2919 -0.4651
   96MOL    H7740167   0.764   6.848   2.690  1.2677  1.0646 -2.3092
   96MOL    H7840168   0.702   6.707   2.602 -1.5231  1.1211  1.0035
   96MOL    H7940169   0.960   6.733   2.767 -1.6723  2.3858 -1.0513
   96MOL    H8040170   0.808   6.646   2.811 -0.3621  0.8892  0.2034
   96MOL    H8140171   0.991   6.478   2.717 -1.9692 -1.1795  1.3416
   96MOL    H8240172   0.985   6.574   2.581 -0.8260  1.2068 -1.2187
   96MOL    H8340173   0.726   6.451   2.682 -0.2095  2.0840  0.5484
   96MOL    H8440174   0.761   6.498   2.520 -1.8216 -0.2834  0.4962
   96MOL    H8540175   0.826   6.355   2.591 -2.9715 -0.6711  0.6834
   96MOL    C8640176   0.684   6.846   2.352 -0.0762  0.0460 -0.4109
   96MOL    C8740177   0.558   6.932   2.339 -0.2404 -0.0648  0.5385
   96MOL    C8840178   0.466   6.889   2.224  0.1516  0.8157  0.1196
   96MOL    C8940179   0.511   6.954   2.088  1.0172 -0.4389  0.1647
   96MOL    C9040180   0.407   6.941   1.981  0.3164 -0.8492  0.5614
   96MOL    C9140181   0.278   7.013   1.989 -0.2437 -0.3845  0.0730
   96MOL    C9240182   0.174   6.979   1.884  0.3129 -0.6496 -0.6771
   96MOL    H9340183   0.728   6.832   2.253  0.5729 -2.5775  0.2215
   96MOL    H9440184   0.675   6.740   2.374 -0.4914 -0.1342 -1.3835
   96MOL    H9540185   0.584   7.036   2.317 -2.2124  0.2567 -0.3345
   96MOL    H9640186   0.468   6.780   2.218 -0.3477  0.7408  1.1579
   96MOL    H9740187   0.363   6.909   2.254 -0.4708 -1.4085 -0.4846
   96MOL    H9840188   0.512   7.060   2.113  1.2463 -0.5967  0.8330
   96MOL    H9940189   0.605   6.918   2.047 -1.0078 -2.9295 -2.5076
   96MOL   H10040190   0.383   6.835   1.968  0.3403 -1.0574  2.0780
   96MOL   H10140191   0.463   6.979   1.896 -0.4136  2.2310  1.4100
   96MOL   H10240192   0.235   6.998   2.088 -0.6456 -0.2312 -0.0778
   96MOL   H10340193   0.304   7.118   1.984 -1.7564 -0.0346 -0.9873
   96MOL   H10440194   0.214   7.005   1.786  1.4969 -3.2185 -0.9360
   96MOL   H10540195   0.088   7.043   1.904 -0.1486 -0.5445 -2.8498
   96MOL   H10640196   0.148   6.873   1.888  1.2196 -0.9403 -2.0900
   96MOL   C10740197   0.483   6.922   2.476 -0.1062  0.2545 -0.4739
   96MOL   C10840198   0.410   7.049   2.523  0.1172  0.0045  1.1313
   96MOL   C10940199   0.301   7.038   2.635  0.5418  0.4820  0.0221
   96MOL   C11040200   0.180   6.964   2.586 -0.2593  0.0650  1.0458
   96MOL   C11140201   0.063   6.952   2.678  0.4565 -0.0555 -0.3099
   96MOL   C11240202   7.654   6.869   2.621  0.5859  0.3799  0.6651
   96MOL   C11340203   7.606   6.938   2.485 -0.1448 -0.2507  0.1159
   96MOL   H11440204   0.546   6.894   2.560 -1.1945  1.1886  0.6870
   96MOL   H11540205   0.420   6.836   2.454  0.6893 -0.3943 -0.2207
   96MOL   H11640206   0.355   7.081   2.434 -0.7748  1.6130  2.2322
   96MOL   H11740207   0.264   7.136   2.665  0.4068  0.0168  1.3839
   96MOL   H11840208   0.340   6.985   2.722  2.4570 -0.7056 -1.5206
   96MOL   H11940209   0.144   7.015   2.497  0.3867  0.5809  1.0782
   96MOL   H12040210   0.209   6.862   2.560 -3.0018 -0.5842  0.3919
   96MOL   H12140211   0.012   7.047   2.697 -1.5853 -1.1990  0.0482
   96MOL   H12240212   0.095   6.927   2.779 -1.3694 -2.8805 -0.3894
   96MOL   H12340213   7.675   6.762   2.608  1.2758  0.3184  2.1539
   96MOL   H12440214   7.570   6.884   2.689 -1.8436 -1.1990 -1.8645
   96MOL   H12540215   7.681   6.922   2.408 -1.5592  1.9847 -1.7850
   96MOL   H12640216   7.519   6.893   2.437 -0.3049  0.8574 -0.6634
   96MOL   H12740217   7.606   7.046   2.503 -1.0244 -0.1704 -0.3325
   96MOL   C12840218   0.491   7.182   2.544 -0.0587 -0.5423  0.2847
   96MOL   C12940219   0.545   7.228   2.683 -0.2444 -0.4015 -0.5764
   96MOL   C13040220   0.591   7.376   2.673  0.5725  0.3416  0.1758
   96MOL   C13140221   0.485   7.486   2.664 -0.5327  0.4127 -1.0477
   96MOL   C13240222   0.543   7.629   2.656  0.6082  0.3173  0.1985
   96MOL   C13340223   0.607   7.684   2.782 -0.0817 -0.7685 -0.3762
   96MOL   C13440224   0.494   0.027   2.883 -0.1568  0.0173  0.0092
   96MOL   H13540225   0.572   7.185   2.471  0.2282  1.1749  0.6579
   96MOL   H13640226   0.410   7.251   2.523 -0.5011 -1.7915 -2.3061
   96MOL   H13740227   0.465   7.231   2.757 -1.3168 -1.4942 -1.6678
   96MOL   H13840228   0.649   7.388   2.581  0.3919  1.8459  0.2514
   96MOL   H13940229   0.667   7.402   2.747 -1.7285  0.8927  2.3955
   96MOL   H14040230   0.412   7.483   2.745 -0.5708  3.8992 -0.8752
   96MOL   H14140231   0.422   7.466   2.578 -3.1157  2.6806  0.2566
   96MOL   H14240232   0.471   7.693   2.605  0.6560  0.8777  0.8388
   96MOL   H14340233   0.631   7.622   2.593  0.7417 -0.2822  0.4419
   96MOL   H14440234   0.670   0.049   2.740 -0.6486  1.0024  2.0381
   96MOL   H14540235   0.668   7.603   2.822 -3.6270 -1.9569  2.8229
   96MOL   H14640236   0.508   0.135   2.895  2.0494 -0.0404 -1.7592
   96MOL   H14740237   0.484   7.689   2.979 -3.9748 -0.0998 -0.3926
   96MOL   H14840238   0.391   0.020   2.849 -0.2110  1.0867 -0.0497
   96MOL   C14940239   0.652   7.129   2.734 -0.1655  0.7531  0.9584
   96MOL   C15040240   0.675   7.141   2.882  0.2792 -0.2738 -0.0566
   96MOL   C15140241   0.827   7.144   2.926  0.2336 -0.0920  0.0745
   96MOL   C15240242   0.911   7.016   2.884  0.1591 -0.1492  0.0865
   96MOL   C15340243   1.054   7.010   2.945  0.4576 -0.4026  0.0467
   96MOL   C15440244   1.151   7.117   2.895 -0.0645  0.2100 -0.1601
   96MOL   C15540245   1.290   7.107   2.959  0.5143 -0.5079 -0.2525
   96MOL   H15640246   0.619   7.029   2.709  0.6896  0.2359  1.8837
   96MOL   H15740247   0.748   7.143   2.685  0.3930 -2.8882  0.9387
   96MOL   H15840248   0.636   7.238   2.912  2.6414  0.5642  0.4891
   96MOL   H15940249   0.879   7.232   2.890  2.2897 -2.2324 -2.4137
   96MOL   H16040250   0.833   7.162   3.033 -1.1997 -2.3214  0.5653
   96MOL   H16140251   0.916   7.010   2.775 -1.3250  1.7074 -0.1086
   96MOL   H16240252   0.859   6.924   2.910 -0.1699  0.0243  0.0410
   96MOL   H16340253   1.098   6.919   2.904 -1.3027 -1.8588  1.3151
   96MOL   H16440254   1.061   6.997   3.053  1.0831  0.7455  0.1480
   96MOL   H16540255   1.123   7.221   2.909  0.0893  0.3425 -0.8498
   96MOL   H16640256   1.160   7.112   2.787  1.4203  0.6142 -0.0558
   96MOL   H16740257   1.354   7.192   2.932  1.2820 -0.0273  2.8126
   96MOL   H16840258   1.346   7.014   2.949  0.6190 -0.6366  1.3545
   96MOL   H16940259   1.292   7.112   3.068  4.6044 -0.2311 -0.2325
   96MOL   C17040260   0.603   7.024   2.945  0.1751 -0.1291 -0.3177
   96MOL   C17140261   0.578   7.031   3.098  0.4258 -0.2126 -0.4997
   96MOL   C17240262   0.447   7.091   3.132  1.1519 -0.5643 -0.2850
   96MOL   C17340263   0.429   7.146   3.279  0.5673  0.5101  0.1441
   96MOL   C17440264   0.522   7.264   3.320  0.2255  0.4882  0.0267
   96MOL   C17540265   0.494   7.389   3.244  0.8415  0.4378  0.2211
   96MOL   C17640266   0.554   7.520   3.302 -0.0794  0.2459  0.2143
   96MOL   H17740267   0.641   6.931   2.905  0.2354  0.6313 -2.0584
   96MOL   H17840268   0.499   7.016   2.912 -0.1525  0.7316  0.4615
   96MOL   H17940269   0.657   7.095   3.137  0.7976  0.0715 -1.7039
   96MOL   H18040270   0.372   7.016   3.107  1.3334 -0.5797 -0.7892
   96MOL   H18140271   0.421   7.176   3.068  1.3644 -0.4777 -0.2573
   96MOL   H18240272   0.426   7.064   3.352 -2.2427 -0.4055 -0.9044
   96MOL   H18340273   0.325   7.177   3.293  0.4801  0.5585 -0.5985
   96MOL   H18440274   0.622   7.224   3.299 -0.1378 -0.6003  0.3159
   96MOL   H18540275   0.511   7.283   3.426 -1.8830 -1.0565  0.1191
   96MOL   H18640276   0.386   7.406   3.239  0.8445 -0.1289 -3.2358
   96MOL   H18740277   0.525   7.386   3.139 -0.0637 -2.1690 -0.0222
   96MOL   H18840278   0.506   7.596   3.241 -0.8859 -0.7176 -0.3664
   96MOL   H18940279   0.662   7.528   3.305 -0.0235 -0.2931 -0.1550
   96MOL   H19040280   0.520   7.533   3.405  2.2662  0.6634  0.9587
   96MOL   C19140281   0.590   6.889   3.158 -0.4611 -0.0543 -0.1326
   96MOL   C19240282   0.733   6.833   3.181  0.8325 -0.1378  0.6405
   96MOL   C19340283   0.805   6.905   3.305 -0.6580  0.5178  0.4876
   96MOL   C19440284   0.724   6.916   3.440  0.2401  0.7071 -0.4742
   96MOL   C19540285   0.793   7.002   3.550 -0.9410  0.2562  0.2032
   96MOL   C19640286   0.762   6.949   3.693 -0.1026 -0.6300 -0.3651
   96MOL   C19740287   0.840   7.022   3.808  0.1644  0.0033  0.0746
   96MOL   H19840288   0.547   6.827   3.080  1.2819  0.0128 -1.1858
   96MOL   H19940289   0.518   6.884   3.240 -0.5424 -0.0605 -0.2047
   96MOL   H20040290   0.779   6.841   3.083 -0.3443  0.1357  0.1096
   96MOL   H20140291   0.825   7.007   3.272 -1.7569  0.2077 -1.2052
   96MOL   H20240292   0.901   6.858   3.325 -0.8163  0.2841  0.6998
   96MOL   H20340293   0.715   6.821   3.493 -0.2642  0.9826 -0.0617
   96MOL   H20440294   0.623   6.953   3.423  0.0547  0.9216  0.9919
   96MOL   H20540295   0.902   7.003   3.547 -0.9046 -2.4594 -0.3151
   96MOL   H20640296   0.757   7.104   3.531 -0.6589  0.1619 -0.8513
   96MOL   H20740297   0.773   6.841   3.698 -1.3025 -0.7494  0.1316
   96MOL   H20840298   0.656   6.974   3.708  0.4981  0.5142  2.3853
   96MOL   H20940299   0.947   7.002   3.796 -0.1695 -0.6280 -2.0212
   96MOL   H21040300   0.804   7.005   3.910 -1.8113  2.9591 -0.0758
   96MOL   H21140301   0.824   7.129   3.795  2.5885  1.0939  4.6627
   96MOL   C21240302   0.724   6.682   3.199 -0.3390 -0.0353  0.1026
   96MOL   C21340303   0.848   6.608   3.246 -0.3342 -0.1864 -0.3305
   96MOL   C21440304   0.807   6.458   3.243 -0.8516 -0.1838  0.2145
   96MOL   C21540305   0.698   6.412   3.339  0.0968  0.0681 -1.0051
   96MOL   C21640306   0.673   6.259   3.344 -0.2604 -0.5804  0.4224
   96MOL   C21740307   0.582   6.230   3.458 -0.1091  0.0022  0.2781
   96MOL   C21840308   0.547   6.084   3.475 -0.1789 -0.4767  0.1410
   96MOL   H21940309   0.706   6.644   3.098  1.8891 -2.7150  0.6541
   96MOL   H22040310   0.639   6.659   3.263  0.1211  0.3214  0.8433
   96MOL   H22140311   0.871   6.638   3.348 -0.4605 -1.9499  0.2266
   96MOL   H22240312   0.771   6.435   3.143 -0.3301 -0.5142  0.1001
   96MOL   H22340313   0.896   6.398   3.265 -0.3830 -0.5296 -2.4766
   96MOL   H22440314   0.609   6.463   3.302  0.1438  0.4694 -0.5637
   96MOL   H22540315   0.713   6.453   3.439 -1.6863 -0.5336 -0.4792
   96MOL   H22640316   0.634   6.222   3.249  1.8951 -1.8460 -0.0085
   96MOL   H22740317   0.764   6.204   3.368  0.4427  0.6357  0.5662
   96MOL   H22840318   0.626   6.268   3.550 -1.1703  1.4444  0.2146
   96MOL   H22940319   0.496   6.294   3.436  0.6862  0.6147 -1.1491
   96MOL   H23040320   0.635   6.021   3.474  1.1052  1.3028 -0.5187
   96MOL   H23140321   0.482   6.037   3.401 -2.3931  0.7695  1.2180
   96MOL   H23240322   0.494   6.077   3.570  0.7135 -1.8121  0.5502
   96MOL   C23340323   0.976   6.632   3.164 -0.3709 -0.1355  0.1347
   96MOL   C23440324   1.113   6.578   3.213  0.6185 -0.8405 -0.0508
   96MOL   C23540325   1.223   6.604   3.106 -0.2828 -0.8932 -0.4310
   96MOL   C23640326   1.369   6.554   3.132  0.7923 -0.4270 -0.5135
   96MOL   C23740327   1.469   6.577   3.015 -0.6480 -0.8689 -0.3392
   96MOL   C23840328   1.441   6.481   2.899  0.0098  0.2427 -0.3054
   96MOL   C23940329   1.540   6.497   2.783 -0.4449  0.3402  0.4830
   96MOL   H24040330   0.985   6.738   3.143  0.4168  0.2880  2.4455
   96MOL   H24140331   0.962   6.586   3.066 -0.8997  0.8002 -0.2295
   96MOL   H24240332   1.119   6.470   3.201 -3.4999 -1.1581 -0.2550
   96MOL   H24340333   1.235   6.710   3.085  2.1992 -1.2758 -1.0813
   96MOL   H24440334   1.186   6.556   3.015  0.4454 -1.7143 -0.2969
   96MOL   H24540335   1.374   6.450   3.164  2.4187 -0.4103 -0.6874
   96MOL   H24640336   1.414   6.615   3.210 -0.0242  1.0263 -1.1550
   96MOL   H24740337   1.567   6.547   3.051 -0.1622  1.6668  0.6131
   96MOL   H24840338   1.458   6.683   2.990 -0.5686 -0.4126  1.4948
   96MOL   H24940339   1.441   6.377   2.929 -0.3737 -0.1569 -1.6274
   96MOL   H25040340   1.351   6.503   2.840  1.6187 -1.4633 -3.5600
   96MOL   H25140341   1.553   6.603   2.762 -0.8313  0.7645  2.3225
   96MOL   H25240342   1.636   6.450   2.806 -1.4646 -2.0664  0.0341
   96MOL   H25340343   1.513   6.442   2.693  0.0009  0.5206  0.2353
   96MOL   C25440344   1.157   6.627   3.348  0.1744  0.3189  0.4058
   96MOL   C25540345   1.105   6.552   3.464  0.1515  0.3852  0.5347
   96MOL   C25640346   1.082   6.653   3.582  0.9958 -0.0371 -0.1735
   96MOL   C25740347   1.009   6.605   3.704 -0.2601  0.4194 -0.7218
   96MOL   C25840348   0.866   6.578   3.669 -0.5372 -0.2477  0.3607
   96MOL   C25940349   0.774   6.552   3.798 -0.1013 -0.3252 -0.0910
   96MOL   C26040350   0.629   6.523   3.758 -0.3393  0.1235 -0.3206
   96MOL   H26140351   1.123   6.730   3.358  0.0680  0.3719 -0.4907
   96MOL   H26240352   1.265   6.638   3.356  0.2102  0.5312 -0.3640
   96MOL   H26340353   1.017   6.499   3.429  0.5861 -1.1005  1.6222
   96MOL   H26440354   1.022   6.740   3.553  3.1141  1.4347 -0.2867
   96MOL   H26540355   1.171   6.711   3.606  0.2346  0.9429  0.3226
   96MOL   H26640356   1.051   6.522   3.760 -2.1890  0.8914  1.4803
   96MOL   H26740357   1.007   6.693   3.768 -1.4561 -1.2991  1.6725
   96MOL   H26840358   0.864   6.483   3.615 -0.0638  0.2406 -0.5159
   96MOL   H26940359   0.815   6.654   3.610 -1.1385 -0.3929  0.6873
   96MOL   H27040360   0.811   6.471   3.861 -0.4856  1.1749  2.1044
   96MOL   H27140361   0.776   6.642   3.859  0.6736 -0.1593 -0.3620
   96MOL   H27240362   0.571   6.451   3.817  0.1954 -0.8244 -0.9400
   96MOL   H27340363   0.569   6.614   3.758 -0.9317 -0.2612 -0.6823
   96MOL   H27440364   0.618   6.485   3.657 -0.3610  0.4661 -0.4473
   96MOL   C27540365   1.198   6.438   3.523 -0.1276 -0.6649 -0.1248
   96MOL   C27640366   1.187   6.298   3.455 -0.1185 -0.6660 -0.6782
   96MOL   C27740367   1.050   6.226   3.498 -0.0921 -0.5085  0.2576
   96MOL   C27840368   1.029   6.192   3.648  0.5760 -0.0606  0.2457
   96MOL   C27940369   0.890   6.128   3.682 -0.3898 -0.0245 -0.1117
   96MOL   C28040370   0.879   6.101   3.837  0.2246 -0.1327  0.2286
   96MOL   C28140371   0.734   6.119   3.884  0.3152 -0.7673 -0.6387
   96MOL   H28240372   1.182   6.428   3.630  1.2352 -0.6149  0.0818
   96MOL   H28340373   1.304   6.462   3.524 -0.5601  1.2698  0.0354
   96MOL   H28440374   1.171   6.316   3.349 -0.1457 -1.0896 -0.7496
   96MOL   H28540375   0.962   6.283   3.468  0.2908  0.9211  1.7179
   96MOL   H28640376   1.052   6.130   3.446  0.0961 -0.1512 -0.4078
   96MOL   H28740377   1.039   6.286   3.700 -1.6984  1.2161 -1.4887
   96MOL   H28840378   1.108   6.132   3.693 -0.2062  0.0007  1.7196
   96MOL   H28940379   0.871   6.031   3.636  0.5195  0.0210 -0.6022
   96MOL   H29040380   0.800   6.177   3.646  0.7396  0.6233 -2.1884
   96MOL   H29140381   0.887   5.995   3.863  0.7781 -0.6538 -1.9839
   96MOL   H29240382   0.946   6.158   3.901  1.0207 -1.6813  0.8119
   96MOL   H29340383   0.722   6.086   3.988  2.0048 -1.4214 -0.6309
   96MOL   H29440384   0.661   6.080   3.813  1.7294  0.9216 -3.0883
   96MOL   H29540385   0.698   6.222   3.889  0.1747 -0.9014  1.6054
   96MOL   C29640386   1.307   6.209   3.493  0.1161  0.2565  0.6999
   96MOL   C29740387   1.434   6.239   3.418  0.0178 -0.1369  0.0332
   96MOL   C29840388   1.461   6.160   3.285  0.2788  0.1085  0.4043
   96MOL   C29940389   1.506   6.014   3.308  0.5369  0.2226  0.2870
   96MOL   C30040390   1.415   5.904   3.251 -0.5134 -0.4954  0.7155
   96MOL   C30140391   1.481   5.766   3.266  0.7682  0.9323  0.4731
   96MOL   C30240392   1.383   5.651   3.232  0.4278 -0.0098 -0.2457
   96MOL   H30340393   1.334   6.232   3.596 -2.8231  1.1010  1.3278
   96MOL   H30440394   1.283   6.103   3.492  0.5197  0.1383  2.1654
   96MOL   H30540395   1.431   6.339   3.376 -3.2944 -0.6825 -1.2207
   96MOL   H30640396   1.379   6.165   3.214  0.3587 -0.1043  0.2979
   96MOL   H30740397   1.529   6.219   3.225 -0.5378 -0.0641 -0.6972
   96MOL   H30840398   1.516   5.990   3.414 -1.4518 -2.7251 -0.1162
   96MOL   H30940399   1.611   6.006   3.278  0.0958  0.7157 -1.4894
   96MOL   H31040400   1.382   5.918   3.148 -2.6771 -1.4867  1.2454
   96MOL   H31140401   1.322   5.894   3.307 -0.5442 -1.6665  0.4699
   96MOL   H31240402   1.566   5.757   3.199  0.8045 -1.9957  0.8495
   96MOL   H31340403   1.518   5.760   3.368  0.3204 -2.6765  0.5070
   96MOL   H31440404   1.304   5.646   3.306  0.6811 -1.2678 -0.0520
   96MOL   H31540405   1.345   5.654   3.130 -1.4851 -1.7000  0.3870
   96MOL   H31640406   1.441   5.558   3.235 -0.5270 -0.5822  0.5691
   96MOL   C31740407   1.548   6.252   3.515  0.3404  0.2861 -0.0234
   96MOL   C31840408   1.692   6.269   3.459 -0.7265 -0.3419  0.3704
   96MOL   C31940409   1.717   6.405   3.377  0.4077  0.2744  0.1876
   96MOL   C32040410   1.682   6.540   3.444 -0.8030  0.7452 -0.4773
   96MOL   C32140411   1.715   6.671   3.362  0.0332 -0.2034 -0.0587
   96MOL   C32240412   1.605   6.780   3.362 -0.7861  0.0262  0.4008
   96MOL   C32340413   1.626   6.889   3.251 -0.1347  0.4974 -0.0464
   96MOL   H32440414   1.556   6.164   3.580 -0.0870  2.5048  3.1250
   96MOL   H32540415   1.535   6.326   3.594  0.7333 -1.8516  2.0997
   96MOL   H32640416   1.718   6.189   3.390  2.1885  1.1831 -0.3634
   96MOL   H32740417   1.660   6.395   3.285 -1.7249  0.4738  1.4466
   96MOL   H32840418   1.822   6.401   3.347  1.3895 -0.4817  3.5023
   96MOL   H32940419   1.724   6.548   3.544 -0.3860 -0.3229 -0.5600
   96MOL   H33040420   1.574   6.541   3.453 -0.9156 -1.2430 -1.3387
   96MOL   H33140421   1.733   6.642   3.258 -0.4829 -1.1116  0.1048
   96MOL   H33240422   1.797   6.730   3.405 -1.2663  2.5357 -1.1908
   96MOL   H33340423   1.611   6.844   3.450 -0.7120  1.3319 -0.5454
   96MOL   H33440424   1.504   6.739   3.355 -1.4321  1.0847  2.8083
   96MOL   H33540425   1.573   6.984   3.255 -1.1647  0.1155 -3.1195
   96MOL   H33640426   1.595   6.847   3.155  1.8378  1.6785 -1.2478
   96MOL   H33740427   1.733   6.907   3.238 -0.0840  1.8611  2.0241
   96MOL   C33840428   1.795   6.267   3.572  0.0465 -0.1856 -0.0255
   96MOL   C33940429   1.926   6.191   3.526  0.6455 -0.7433  0.3940
   96MOL   C34040430   1.895   6.033   3.545  0.6510 -0.5921 -0.1471
   96MOL   C34140431   1.983   5.931   3.466  0.2745 -0.3280  0.3558
   96MOL   C34240432   1.929   5.890   3.326 -0.0207 -0.4235  0.1486
   96MOL   C34340433   2.019   5.797   3.249  0.4477 -0.1320  0.3893
   96MOL   C34440434   1.972   5.780   3.102 -0.4829 -0.6702 -0.4036
   96MOL   H34540435   1.757   6.212   3.658  0.2837  1.4531  1.1458
   96MOL   H34640436   1.806   6.365   3.618 -1.3123  0.2727 -0.6358
   96MOL   H34740437   1.941   6.208   3.420  0.1127 -1.1822  0.2459
   96MOL   H34840438   1.902   6.002   3.649  0.2613  0.2005  0.1181
   96MOL   H34940439   1.791   6.015   3.520  0.2696  1.3932 -0.0513
   96MOL   H35040440   1.988   5.842   3.528  0.7607 -0.7403 -0.2680
   96MOL   H35140441   2.084   5.967   3.445  0.4875 -0.9148  0.3573
   96MOL   H35240442   1.831   5.844   3.343  0.2491 -0.6054  1.2527
   96MOL   H35340443   1.910   5.985   3.276 -0.9932 -1.0608 -0.7253
   96MOL   H35440444   2.119   5.840   3.242 -0.1399  1.1564 -0.2683
   96MOL   H35540445   2.027   5.700   3.298  2.6042  0.5189  1.3910
   96MOL   H35640446   1.868   5.749   3.113 -0.6785  0.7699  2.1971
   96MOL   H35740447   2.021   5.711   3.034  1.9931 -0.0942  0.7334
   96MOL   H35840448   1.972   5.881   3.061  2.9239 -0.1674  0.6662
   96MOL   C35940449   2.050   6.247   3.601  0.0909  0.5168 -0.2675
   96MOL   C36040450   2.105   6.374   3.549 -0.1092 -0.8400  0.5735
   96MOL   C36140451   2.193   6.425   3.663  0.3269 -0.0036 -0.6071
   96MOL   C36240452   2.116   6.483   3.782  0.1184  0.1647  0.1742
   96MOL   C36340453   2.211   6.576   3.853 -0.4836 -0.5340 -0.1136
   96MOL   C36440454   2.142   6.676   3.948 -0.2613 -0.3238 -0.4334
   96MOL   C36540455   2.038   6.766   3.877 -1.0719  1.0111  0.4072
   96MOL   H36640456   2.124   6.167   3.597  1.7678  1.9646  1.0417
   96MOL   H36740457   2.028   6.246   3.708 -0.4942 -0.6419 -0.3880
   96MOL   H36840458   2.018   6.440   3.540  0.3655 -0.3153 -0.2968
   96MOL   H36940459   2.265   6.347   3.689 -0.0077  0.3716  1.6058
   96MOL   H37040460   2.251   6.504   3.616 -0.7759  1.7375  0.8909
   96MOL   H37140461   2.034   6.540   3.738  1.8780  1.3954 -1.5740
   96MOL   H37240462   2.068   6.408   3.845  0.3841 -2.0450 -2.1704
   96MOL   H37340463   2.292   6.521   3.901 -2.6879 -1.6618  2.3889
   96MOL   H37440464   2.257   6.641   3.779  0.9957 -2.3371 -0.8191
   96MOL   H37540465   2.106   6.628   4.039 -0.9682  1.1679  0.1000
   96MOL   H37640466   2.215   6.750   3.980  0.0381 -0.0144 -1.8344
   96MOL   H37740467   2.029   6.864   3.924 -1.5022  0.2489  1.9262
   96MOL   H37840468   2.074   6.785   3.776  0.2681  0.5130  0.7781
   96MOL   H37940469   1.939   6.722   3.889 -0.1047 -1.3897 -0.1437
   96MOL   C38040470   2.182   6.355   3.421 -0.2521  0.7727 -0.6806
   96MOL   C38140471   2.217   6.472   3.320 -0.6287  0.5601  0.0033
   96MOL   C38240472   2.340   6.431   3.231 -0.1439 -0.0214  0.1105
   96MOL   C38340473   2.358   6.523   3.114  0.3536  0.0592 -0.1263
   96MOL   C38440474   2.505   6.554   3.074  1.0430 -0.2172  0.1023
   96MOL   C38540475   2.578   6.437   3.013 -0.1951 -0.0311  0.3560
   96MOL   C38640476   2.500   6.372   2.903  0.0502 -0.0620 -0.3568
   96MOL   H38740477   2.280   6.313   3.446 -0.7937 -0.5948 -0.7907
   96MOL   H38840478   2.149   6.260   3.378 -1.5992  1.4691 -1.1894
   96MOL   H38940479   2.242   6.558   3.382 -1.7188 -0.0928  1.4019
   96MOL   H39040480   2.337   6.328   3.197 -0.3257  0.5676 -1.6945
   96MOL   H39140481   2.427   6.436   3.297  0.3086 -1.1294 -0.3864
   96MOL   H39240482   2.296   6.476   3.037 -0.1628  2.0094 -0.9401
   96MOL   H39340483   2.313   6.621   3.133 -1.0253 -0.2284 -1.8153
   96MOL   H39440484   2.496   6.630   2.997 -1.1351 -0.3899  0.1456
   96MOL   H39540485   2.552   6.596   3.163 -0.0369 -1.9548  1.5342
   96MOL   H39640486   2.602   6.357   3.083 -0.6541 -0.8543 -0.4188
   96MOL   H39740487   2.674   6.470   2.973 -0.7269  0.5223 -0.4937
   96MOL   H39840488   2.404   6.330   2.932  0.4793  0.1104  1.3496
   96MOL   H39940489   2.555   6.295   2.849  0.9162 -0.4325  1.0332
   96MOL   H40040490   2.464   6.447   2.832  0.2900 -1.0072 -1.5039
   96MOL   C40140491   2.086   6.494   3.231  0.4053  0.2808 -0.0245
   96MOL   C40240492   2.034   6.371   3.144 -0.1812  0.2127  0.4194
   96MOL   C40340493   1.916   6.405   3.057 -0.0236 -0.2059 -0.3248
   96MOL   C40440494   1.870   6.290   2.961  0.1684  0.3394  0.3674
   96MOL   C40540495   1.810   6.163   3.038 -0.1283  0.4949 -0.0742
   96MOL   C40640496   1.747   6.062   2.938 -0.2176 -0.5853  0.0074
   96MOL   C40740497   1.618   6.101   2.875  0.1740  0.2066  0.4116
   96MOL   H40840498   2.095   6.589   3.178  1.1601  1.6195  2.3992
   96MOL   H40940499   2.004   6.512   3.301 -0.1787 -2.4924  0.0631
   96MOL   H41040500   1.997   6.292   3.210 -0.2512  1.6223  2.0962
   96MOL   H41140501   1.949   6.488   2.995  0.2180  0.9380  1.2846
   96MOL   H41240502   1.835   6.442   3.121  0.3671 -1.8589  1.1697
   96MOL   H41340503   1.953   6.250   2.903  0.1327  0.5715  0.1554
   96MOL   H41440504   1.806   6.331   2.883 -0.6783 -0.9164  0.3825
   96MOL   H41540505   1.890   6.122   3.100  0.9380  1.4928 -0.7560
   96MOL   H41640506   1.738   6.190   3.115  0.1212 -0.5020  0.5165
   96MOL   H41740507   1.819   6.028   2.864 -0.4954  0.0117 -0.5407
   96MOL   H41840508   1.729   5.974   3.000  0.9945  0.1757  1.4802
   96MOL   H41940509   1.653   6.183   2.813  0.3988  0.0215  0.2949
   96MOL   H42040510   1.543   6.117   2.953  2.2773 -1.5004  2.8751
   96MOL   H42140511   1.589   6.028   2.800  1.9492  1.2432 -1.3121
   96MOL   H42240512   2.109   6.312   3.091 -1.0483 -2.2838  1.8666
   97MOL     C140513   3.232   0.545   4.645  0.0487  0.2307  0.5760
   97MOL     C240514   3.267   0.623   4.774  0.3691  1.3252  0.5232
   97MOL     C340515   3.237   0.545   4.902 -0.2092 -0.9224 -1.3759
   97MOL     C440516   3.343   0.581   5.008 -0.0507  0.2126  0.3490
   97MOL     C540517   3.305   0.537   5.153  0.1530  0.3890  0.8140
   97MOL     C640518   3.429   0.546   5.237  0.5173  0.3643  0.0161
   97MOL     C740519   3.528   0.433   5.226 -0.4149 -0.0497  0.0298
   97MOL     H840520   3.130   0.572   4.618 -0.5926 -1.8519  0.7924
   97MOL     H940521   3.228   0.437   4.656  1.4556  0.2941  1.9557
   97MOL    H1040522   3.374   0.635   4.765  0.6254  0.3041  2.0448
   97MOL    H1140523   3.133   0.563   4.932 -0.0985 -1.7739 -0.4217
   97MOL    H1240524   3.246   0.439   4.878  0.0534 -0.7925 -1.8570
   97MOL    H1340525   3.439   0.552   4.965 -1.5575 -3.4025 -0.8143
   97MOL    H1440526   3.349   0.690   5.009 -1.9073  0.3397 -0.6133
   97MOL    H1540527   3.284   0.430   5.157 -0.8243  0.5976  1.4448
   97MOL    H1640528   3.220   0.593   5.191  1.2385  1.2861  1.9639
   97MOL    H1740529   3.400   0.565   5.340  0.1414 -0.3147  0.0392
   97MOL    H1840530   3.486   0.638   5.218  1.5320 -0.5696 -1.6371
   97MOL    H1940531   3.488   0.349   5.284  0.6247 -0.7868 -0.3023
   97MOL    H2040532   3.618   0.456   5.283 -0.2636  2.0110 -0.9925
   97MOL    H2140533   3.543   0.407   5.121  2.3940  2.7449 -0.3419
   97MOL    H2240534   3.300   0.573   4.565 -0.7506 -0.7682 -0.4686
   97MOL    C2340535   3.197   0.765   4.785 -0.8341  0.7294  0.2505
   97MOL    C2440536   3.227   0.867   4.671 -0.2532 -0.6284  0.1176
   97MOL    C2540537   3.370   0.923   4.686  0.8089 -0.3804 -0.3244
   97MOL    C2640538   3.400   1.029   4.804 -0.0089  0.2778  0.4862
   97MOL    C2740539   3.395   1.174   4.747  0.9171  0.6007 -0.4687
   97MOL    C2840540   3.455   1.278   4.846  0.3318 -0.3020 -0.9543
   97MOL    C2940541   3.493   1.410   4.779  0.2382 -0.2513  0.1862
   97MOL    H3040542   3.090   0.742   4.784 -0.1920 -2.5386  0.2920
   97MOL    H3140543   3.222   0.810   4.880 -1.5115  1.3668  0.1321
   97MOL    H3240544   3.221   0.807   4.581 -2.3204 -1.2752  0.6657
   97MOL    H3340545   3.403   0.965   4.591  0.9386  0.4299  0.0685
   97MOL    H3440546   3.434   0.837   4.705  0.8641 -0.2761 -0.0364
   97MOL    H3540547   3.494   1.001   4.851 -0.2895  0.9925  1.5026
   97MOL    H3640548   3.338   1.011   4.892  1.6424  0.3789  1.6850
   97MOL    H3740549   3.294   1.216   4.745  1.0917  1.0653  0.3566
   97MOL    H3840550   3.442   1.178   4.649  0.1666 -0.1487 -0.8725
   97MOL    H3940551   3.549   1.236   4.883 -1.2853  0.0409  3.9762
   97MOL    H4040552   3.380   1.289   4.924 -1.4318 -1.5100 -2.4409
   97MOL    H4140553   3.550   1.474   4.846  1.7553  0.3875 -1.6509
   97MOL    H4240554   3.543   1.395   4.683 -2.0372  1.2160 -1.2573
   97MOL    H4340555   3.399   1.457   4.751  0.0351 -1.1465 -0.6996
   97MOL    C4440556   3.114   0.967   4.653  0.5299 -0.6783 -0.1740
   97MOL    C4540557   2.977   0.910   4.612  0.6303  0.7406  0.2897
   97MOL    C4640558   2.865   1.019   4.626 -0.0157 -0.0274 -0.1234
   97MOL    C4740559   2.790   1.007   4.758  0.1558  0.2025 -0.3660
   97MOL    C4840560   2.725   0.876   4.796  0.2006 -0.2096 -0.1932
   97MOL    C4940561   2.667   0.874   4.940 -0.4044 -0.6933  0.1628
   97MOL    C5040562   2.531   0.956   4.948 -0.0298  0.0769 -0.5191
   97MOL    H5140563   3.141   1.057   4.598 -3.1253  2.1270  2.3727
   97MOL    H5240564   3.101   1.006   4.754 -1.1909 -1.1008 -0.2121
   97MOL    H5340565   2.950   0.826   4.676 -2.7750  0.1486 -1.7709
   97MOL    H5440566   2.797   1.007   4.542 -0.8548 -1.0770  0.6835
   97MOL    H5540567   2.909   1.118   4.619  1.2693 -0.4712  1.2989
   97MOL    H5640568   2.851   1.042   4.842 -2.8046  0.2894  1.8279
   97MOL    H5740569   2.705   1.074   4.744 -0.2421  0.0539  1.1976
   97MOL    H5840570   2.793   0.791   4.800  0.0093 -0.3901 -0.7129
   97MOL    H5940571   2.655   0.851   4.717 -0.3285 -2.0561  0.8418
   97MOL    H6040572   2.749   0.909   5.003 -1.1292  1.2635  0.0568
   97MOL    H6140573   2.649   0.766   4.949 -0.2603 -0.7630 -0.3778
   97MOL    H6240574   2.469   0.913   4.870 -0.9828  0.8138 -0.1740
   97MOL    H6340575   2.555   1.059   4.923 -2.9684  0.4500 -1.9930
   97MOL    H6440576   2.479   0.950   5.044  2.4393  2.0392  1.0013
   97MOL    C6540577   2.981   0.860   4.457 -0.3131  1.0073  0.2228
   97MOL    C6640578   2.855   0.791   4.392 -0.0528  0.1266  0.0309
   97MOL    C6740579   2.839   0.648   4.441 -0.6601  0.6461 -0.6938
   97MOL    C6840580   2.941   0.543   4.385 -0.2502  0.2098  0.0948
   97MOL    C6940581   2.921   0.406   4.446 -0.2933  0.4725 -0.2608
   97MOL    C7040582   3.027   0.310   4.388 -0.4959 -0.0357 -0.6952
   97MOL    C7140583   3.000   0.252   4.250 -0.3823 -0.2219 -0.2001
   97MOL    H7240584   3.006   0.946   4.395 -2.2759  1.0444 -0.5575
   97MOL    H7340585   3.067   0.796   4.439 -1.7965 -0.8982 -0.2076
   97MOL    H7440586   2.764   0.838   4.430  0.8257  0.9656  1.1258
   97MOL    H7540587   2.843   0.634   4.549 -1.6098 -0.7968 -0.8243
   97MOL    H7640588   2.735   0.619   4.424  0.1394 -2.8600 -0.0766
   97MOL    H7740589   2.934   0.545   4.277 -0.3040 -0.5085  0.0834
   97MOL    H7840590   3.041   0.578   4.411 -1.5592  1.7266  3.5366
   97MOL    H7940591   2.934   0.407   4.554 -3.1520 -1.8501  0.1926
   97MOL    H8040592   2.821   0.366   4.429 -1.0153  1.4741  1.5596
   97MOL    H8140593   3.034   0.225   4.455 -1.0948 -0.4919 -1.2045
   97MOL    H8240594   3.123   0.360   4.399  0.2337 -1.8334  1.4344
   97MOL    H8340595   2.913   0.186   4.254 -0.1611 -0.5444 -0.6854
   97MOL    H8440596   3.005   0.331   4.175 -0.6748  0.1646  0.1873
   97MOL    H8540597   3.090   0.193   4.230 -0.6299 -0.1545 -1.5745
   97MOL    C8640598   2.852   0.805   4.235  0.8787  0.2890 -0.6771
   97MOL    C8740599   2.795   0.936   4.176  0.3321 -0.5790  0.4175
   97MOL    C8840600   2.882   1.004   4.076 -0.1855 -0.1069  0.2594
   97MOL    C8940601   3.022   1.056   4.127 -0.6387 -0.0058 -0.6925
   97MOL    C9040602   3.088   1.167   4.040  0.0029 -0.2714  0.7452
   97MOL    C9140603   3.231   1.202   4.076 -0.0367  0.0822 -0.1254
   97MOL    C9240604   3.285   1.330   4.002  0.1754  0.6644 -0.3475
   97MOL    H9340605   2.955   0.794   4.200  2.0398  1.7878  2.1013
   97MOL    H9440606   2.798   0.724   4.186  1.7453 -1.3275  0.9947
   97MOL    H9540607   2.793   1.012   4.254 -0.7288  0.0083 -0.1725
   97MOL    H9640608   2.898   0.943   3.987 -4.2125 -3.0057  1.4057
   97MOL    H9740609   2.837   1.091   4.027  0.8244 -0.1125 -0.7075
   97MOL    H9840610   3.010   1.102   4.225  3.1135 -0.2409 -0.0491
   97MOL    H9940611   3.093   0.973   4.127 -1.4714 -0.8017  2.1730
   97MOL   H10040612   3.029   1.258   4.054  1.4521  0.4712  2.2008
   97MOL   H10140613   3.082   1.132   3.937  2.8040  0.7812  0.1934
   97MOL   H10240614   3.235   1.221   4.183 -1.8925  1.5519 -0.3057
   97MOL   H10340615   3.303   1.120   4.076 -1.0768 -0.8579 -1.7206
   97MOL   H10440616   3.210   1.409   3.999 -1.2337 -0.6733 -1.3718
   97MOL   H10540617   3.303   1.325   3.895 -3.7385  0.7992 -1.0860
   97MOL   H10640618   3.377   1.370   4.045  0.7767 -0.1379 -0.8843
   97MOL   C10740619   2.660   0.918   4.099  0.7277  0.6517  0.1783
   97MOL   C10840620   2.527   0.885   4.179  0.3718 -0.4907  0.1165
   97MOL   C10940621   2.491   1.010   4.263  0.5998  0.4870 -0.6355
   97MOL   C11040622   2.382   0.997   4.372  0.4642 -0.0777  0.1632
   97MOL   C11140623   2.401   1.096   4.495 -0.1673  0.1036 -0.6318
   97MOL   C11240624   2.308   1.063   4.611 -0.0293 -0.2409  0.2626
   97MOL   C11340625   2.289   1.172   4.707 -0.1524 -0.0872 -0.5302
   97MOL   H11440626   2.682   0.843   4.023 -0.2270 -0.0644  0.6031
   97MOL   H11540627   2.631   1.005   4.039 -1.8085 -0.4383 -0.2220
   97MOL   H11640628   2.554   0.804   4.247 -0.5087  0.9147  2.1876
   97MOL   H11740629   2.472   1.095   4.198 -0.2640  0.6840 -0.1202
   97MOL   H11840630   2.583   1.022   4.320  1.8728 -2.3236 -1.9644
   97MOL   H11940631   2.290   1.033   4.326  1.6893  1.8030 -0.9162
   97MOL   H12040632   2.372   0.894   4.406 -1.5933  0.1575  0.3458
   97MOL   H12140633   2.371   1.194   4.459 -2.1084  0.3227  1.4639
   97MOL   H12240634   2.506   1.108   4.522 -0.4145 -1.4917  1.1802
   97MOL   H12340635   2.205   1.040   4.583  0.1371 -0.8651  0.1739
   97MOL   H12440636   2.356   0.980   4.662  0.0604 -0.4142 -0.1105
   97MOL   H12540637   2.386   1.209   4.742 -0.1272  0.1568 -0.8550
   97MOL   H12640638   2.257   1.268   4.667 -0.5856 -0.3277 -0.7555
   97MOL   H12740639   2.230   1.149   4.795  2.5207  0.8533  1.5982
   97MOL   C12840640   2.406   0.836   4.091 -0.7138 -0.4515 -0.2287
   97MOL   C12940641   2.388   0.679   4.108 -0.8878  0.6779  0.3982
   97MOL   C13040642   2.498   0.594   4.032 -0.0579 -0.0652 -0.3036
   97MOL   C13140643   2.497   0.450   4.093 -0.4606 -0.2713 -0.3772
   97MOL   C13240644   2.611   0.365   4.035  0.3051  0.2654 -0.4947
   97MOL   C13340645   2.616   0.218   4.085 -0.5320  0.1101 -0.3002
   97MOL   C13440646   2.726   0.143   4.014 -0.1915 -0.4802  0.5620
   97MOL   H13540647   2.315   0.881   4.129 -0.3681  0.4084 -0.4119
   97MOL   H13640648   2.414   0.858   3.985  0.5953 -2.8471 -0.6765
   97MOL   H13740649   2.383   0.661   4.216 -1.3879  2.1891  0.6355
   97MOL   H13840650   2.596   0.641   4.041  0.4452 -0.5739 -2.8190
   97MOL   H13940651   2.479   0.589   3.925 -1.7855  0.7628 -0.0429
   97MOL   H14040652   2.403   0.398   4.075  0.1087 -1.0762 -1.1135
   97MOL   H14140653   2.501   0.474   4.199  1.7109  2.3651 -0.9905
   97MOL   H14240654   2.705   0.408   4.068 -0.6390 -1.0003  4.1443
   97MOL   H14340655   2.596   0.368   3.927 -2.1624  1.9552 -0.1574
   97MOL   H14440656   2.521   0.166   4.078 -1.8491  2.1562  1.6324
   97MOL   H14540657   2.638   0.206   4.191  0.0408 -1.2914 -0.5770
   97MOL   H14640658   2.709   0.035   4.015  0.5513 -0.6052  1.9236
   97MOL   H14740659   2.826   0.168   4.051  0.3317  0.6143 -1.5404
   97MOL   H14840660   2.722   0.171   3.909 -1.2299  0.6293  0.8870
   97MOL   C14940661   2.241   0.654   4.054  0.2333  0.4844  0.7554
   97MOL   C15040662   2.138   0.590   4.147  0.0156 -0.4653 -0.1614
   97MOL   C15140663   2.030   0.503   4.078 -0.0091  0.0142 -0.8284
   97MOL   C15240664   1.931   0.576   3.980 -0.6944  0.0994  0.8458
   97MOL   C15340665   1.868   0.471   3.885  0.3266  0.0311  0.2470
   97MOL   C15440666   1.774   0.534   3.783 -0.0194 -0.4090 -0.0238
   97MOL   C15540667   1.699   0.433   3.690  0.1319 -0.1937 -0.3263
   97MOL   H15640668   2.200   0.739   4.000  4.6285  1.4203 -1.4208
   97MOL   H15740669   2.255   0.579   3.975  2.0763 -1.8585  3.2000
   97MOL   H15840670   2.191   0.514   4.204 -0.7120 -2.2045 -1.7927
   97MOL   H15940671   2.086   0.426   4.024  1.7056 -1.1533  2.5089
   97MOL   H16040672   1.969   0.449   4.150  0.9446 -1.0572 -0.8033
   97MOL   H16140673   1.987   0.637   3.909 -0.6129 -0.1492  0.6966
   97MOL   H16240674   1.855   0.645   4.017  0.4320  2.2464 -0.6979
   97MOL   H16340675   1.816   0.404   3.954  2.1154 -0.4906  1.1154
   97MOL   H16440676   1.937   0.405   3.834  0.2374  0.5575 -0.5585
   97MOL   H16540677   1.837   0.600   3.723  1.5931 -0.9632  1.0328
   97MOL   H16640678   1.709   0.600   3.841 -1.0191 -1.4307  0.0214
   97MOL   H16740679   1.647   0.488   3.612 -0.0271  0.2155  0.0664
   97MOL   H16840680   1.621   0.374   3.738  0.1517  0.3497  0.3975
   97MOL   H16940681   1.763   0.365   3.635  0.7252 -0.0396  0.1598
   97MOL   C17040682   2.073   0.698   4.244  0.3297  0.0843  0.4519
   97MOL   C17140683   1.989   0.640   4.358  0.4437 -0.4965 -0.8993
   97MOL   C17240684   2.077   0.561   4.459 -0.1329  0.7693  0.0635
   97MOL   C17340685   2.200   0.635   4.521  0.1072  0.5188 -0.2958
   97MOL   C17440686   2.313   0.548   4.580 -0.4907 -0.2534  0.1992
   97MOL   C17540687   2.454   0.603   4.570 -0.3399 -0.3958 -0.5191
   97MOL   C17640688   2.558   0.522   4.648 -0.0974  0.9874 -0.1015
   97MOL   H17740689   2.002   0.757   4.185  1.3461  0.0527 -0.8088
   97MOL   H17840690   2.140   0.774   4.284  0.5679  0.4500 -0.6314
   97MOL   H17940691   1.906   0.580   4.320  0.0910 -0.0849 -0.7824
   97MOL   H18040692   2.119   0.472   4.413 -3.3703 -1.5032  1.2775
   97MOL   H18140693   2.008   0.517   4.532  0.6989  0.5641  0.7327
   97MOL   H18240694   2.163   0.704   4.597  0.4521  1.0191 -0.5807
   97MOL   H18340695   2.249   0.713   4.464  1.7574  0.1326  0.5816
   97MOL   H18440696   2.314   0.444   4.547  1.7921  0.1461 -1.0423
   97MOL   H18540697   2.289   0.529   4.685 -2.9926  2.0916  0.0985
   97MOL   H18640698   2.444   0.707   4.603 -1.5213 -0.8073  0.4482
   97MOL   H18740699   2.476   0.618   4.464 -0.6950 -0.3088 -0.5828
   97MOL   H18840700   2.641   0.590   4.661  1.0750  0.1882 -3.0979
   97MOL   H18940701   2.596   0.433   4.597  0.4680  1.1816 -0.0182
   97MOL   H19040702   2.528   0.495   4.750 -0.8444 -0.1465 -0.6054
   97MOL   C19140703   1.922   0.765   4.436 -0.0982  0.5190 -0.0541
   97MOL   C19240704   1.816   0.841   4.361  0.4741 -0.0995 -0.4736
   97MOL   C19340705   1.701   0.750   4.299  0.7903 -0.3312 -0.5484
   97MOL   C19440706   1.629   0.651   4.391  0.1236  0.1227 -0.1420
   97MOL   C19540707   1.500   0.587   4.332 -0.1946  0.3279 -0.5051
   97MOL   C19640708   1.421   0.484   4.426  0.1311 -0.3373  0.2733
   97MOL   C19740709   1.509   0.373   4.489 -0.4022  0.2908 -0.0610
   97MOL   H19840710   2.001   0.837   4.458 -1.2602  1.6951  0.3602
   97MOL   H19940711   1.873   0.731   4.528 -0.1435 -1.7647 -0.8893
   97MOL   H20040712   1.862   0.902   4.284 -0.8692  1.0255 -0.3981
   97MOL   H20140713   1.744   0.687   4.222  1.9301 -1.0730  0.6779
   97MOL   H20240714   1.627   0.816   4.254 -0.5252 -1.3215  0.1249
   97MOL   H20340715   1.582   0.706   4.473 -1.7981 -0.4318 -0.8383
   97MOL   H20440716   1.698   0.576   4.430  0.2817  0.7041  0.7095
   97MOL   H20540717   1.421   0.659   4.314  0.7027  0.6270 -3.6117
   97MOL   H20640718   1.529   0.528   4.245 -0.0986 -1.3943  0.6644
   97MOL   H20740719   1.341   0.435   4.370  0.3636 -1.4852  0.9358
   97MOL   H20840720   1.371   0.534   4.509 -0.3106  0.4661 -0.4674
   97MOL   H20940721   1.441   0.320   4.556 -0.8836 -0.9253 -1.4816
   97MOL   H21040722   1.592   0.406   4.552 -1.1717  0.3167  0.9554
   97MOL   H21140723   1.550   0.303   4.417  3.1608  1.8635  0.3507
   97MOL   C21240724   1.750   0.948   4.450  0.0158  0.2631  0.8638
   97MOL   C21340725   1.841   1.061   4.509  0.3231  0.1042 -0.4524
   97MOL   C21440726   1.908   1.153   4.398 -0.0221  0.5170 -0.4834
   97MOL   C21540727   1.803   1.224   4.304 -0.1062  0.0955  0.0365
   97MOL   C21640728   1.859   1.341   4.221 -0.0946  1.1414  0.2902
   97MOL   C21740729   1.758   1.403   4.131  0.7255  0.0723 -1.9165
   97MOL   C21840730   1.795   1.538   4.067 -0.3972  0.3343 -0.1734
   97MOL   H21940731   1.717   0.905   4.544  0.6345  2.0760  1.9542
   97MOL   H22040732   1.665   0.990   4.396  1.4359  2.3797  0.1992
   97MOL   H22140733   1.922   1.013   4.565 -0.8596 -2.4274 -0.8664
   97MOL   H22240734   1.963   1.232   4.449  1.5859 -1.5311  1.0631
   97MOL   H22340735   1.983   1.099   4.339  0.9960  0.7087  0.6192
   97MOL   H22440736   1.722   1.253   4.370  0.4567  2.6087 -0.3182
   97MOL   H22540737   1.749   1.157   4.237  1.5194  0.1909 -1.4004
   97MOL   H22640738   1.900   1.416   4.289 -0.0968  1.8294 -0.4591
   97MOL   H22740739   1.934   1.314   4.146 -0.6852 -0.2690  0.1891
   97MOL   H22840740   1.724   1.333   4.054  1.3858 -2.0018 -0.3494
   97MOL   H22940741   1.676   1.431   4.196  1.4832 -0.9527 -0.5041
   97MOL   H23040742   1.890   1.512   4.020 -0.5851  1.0689 -0.9573
   97MOL   H23140743   1.816   1.623   4.133 -0.1164  0.7615 -0.8100
   97MOL   H23240744   1.718   1.566   3.996 -2.1871  0.6999  1.8552
   97MOL   C23340745   1.761   1.146   4.611  1.0795  0.3502 -0.9133
   97MOL   C23440746   1.785   1.112   4.762  0.2814  0.1153 -0.1751
   97MOL   C23540747   1.936   1.088   4.817  0.6754 -0.0544  0.0456
   97MOL   C23640748   1.952   0.957   4.889  0.4105 -0.9203  0.3050
   97MOL   C23740749   2.082   0.880   4.863  0.5046  0.0157  0.8642
   97MOL   C23840750   2.095   0.754   4.959 -0.6550  0.0008 -0.4852
   97MOL   C23940751   2.235   0.703   4.949 -0.2424 -0.1399 -0.2270
   97MOL   H24040752   1.654   1.144   4.591  0.4122  0.3683  2.4089
   97MOL   H24140753   1.791   1.249   4.593  1.6135 -0.0518 -2.4617
   97MOL   H24240754   1.735   1.015   4.773  0.1633  0.1901 -0.0552
   97MOL   H24340755   1.976   1.167   4.881 -2.1558  1.6761 -0.2324
   97MOL   H24440756   2.007   1.080   4.735  0.1992 -2.4843 -0.1625
   97MOL   H24540757   1.860   0.899   4.893 -0.2736 -0.0684 -2.0373
   97MOL   H24640758   1.971   0.992   4.991 -1.0203 -3.3709  1.4398
   97MOL   H24740759   2.168   0.946   4.876  0.2696  0.2720  1.1554
   97MOL   H24840760   2.096   0.849   4.760 -1.4269 -0.6195  0.7737
   97MOL   H24940761   2.095   0.786   5.063  0.7465  0.8529 -0.7422
   97MOL   H25040762   2.021   0.678   4.934 -0.1124 -0.9652  0.7812
   97MOL   H25140763   2.294   0.791   4.978 -0.0245 -0.6109  0.7972
   97MOL   H25240764   2.250   0.613   5.009  0.4561 -0.4900 -0.9227
   97MOL   H25340765   2.269   0.666   4.853  0.3854  1.6430 -0.7142
   97MOL   C25440766   1.712   1.212   4.849  0.0552  0.6688  0.1733
   97MOL   C25540767   1.669   1.155   4.993  0.2073 -0.1231 -0.1769
   97MOL   C25640768   1.596   1.020   4.996 -0.2157  0.2591 -0.9646
   97MOL   C25740769   1.453   1.002   4.934 -0.1595 -0.4640 -0.3441
   97MOL   C25840770   1.439   0.989   4.777 -0.2490 -0.1567 -0.8730
   97MOL   C25940771   1.305   1.054   4.740 -0.2065 -0.8230  0.8210
   97MOL   C26040772   1.297   1.081   4.592 -0.6015 -0.2796  0.5681
   97MOL   H26140773   1.614   1.246   4.816 -1.1772  1.0878  3.9320
   97MOL   H26240774   1.773   1.301   4.865  0.3954  0.5324 -0.3774
   97MOL   H26340775   1.762   1.122   5.040  0.3031 -2.5130 -1.9561
   97MOL   H26440776   1.591   0.986   5.099 -0.6259  0.2696 -0.9805
   97MOL   H26540777   1.656   0.941   4.950 -1.6924 -1.4044 -0.1081
   97MOL   H26640778   1.402   0.921   4.986 -1.7936  0.7914  0.0173
   97MOL   H26740779   1.405   1.092   4.971 -1.2558 -0.8414 -0.8365
   97MOL   H26840780   1.461   0.886   4.749  0.4453  0.5327 -2.9242
   97MOL   H26940781   1.517   1.055   4.740 -1.0218 -0.0558 -2.3262
   97MOL   H27040782   1.226   0.991   4.781  1.2835 -1.8791  2.1568
   97MOL   H27140783   1.292   1.142   4.804  0.1174 -0.4386  0.3613
   97MOL   H27240784   1.334   0.998   4.532 -0.1620 -0.4184  1.0266
   97MOL   H27340785   1.196   1.114   4.570 -0.7105 -1.3778 -0.6548
   97MOL   H27440786   1.361   1.166   4.566 -0.4893 -0.4902  0.1453
   97MOL   C27540787   1.602   1.252   5.086  0.1302 -0.3831 -0.1822
   97MOL   C27640788   1.695   1.354   5.165 -0.3865 -0.1758  0.7234
   97MOL   C27740789   1.759   1.293   5.287  0.3844  0.1723  0.0572
   97MOL   C27840790   1.892   1.363   5.331 -0.3529 -0.3913  0.0498
   97MOL   C27940791   1.952   1.291   5.449 -0.6958  0.0652 -0.2665
   97MOL   C28040792   1.889   1.325   5.579 -0.1284 -0.0466 -0.5688
   97MOL   C28140793   1.974   1.281   5.692 -0.6398  0.2767  0.1513
   97MOL   H28240794   1.539   1.200   5.158  1.4972  0.2097  1.4677
   97MOL   H28340795   1.545   1.309   5.013  0.9364  0.4963 -0.1284
   97MOL   H28440796   1.774   1.386   5.096 -2.7246  2.0112 -1.0658
   97MOL   H28540797   1.688   1.280   5.368  1.1921 -3.0100  0.3526
   97MOL   H28640798   1.789   1.192   5.257  1.8244  0.8413 -0.8017
   97MOL   H28740799   1.889   1.470   5.349 -0.4766 -0.2467 -0.7880
   97MOL   H28840800   1.955   1.364   5.242  1.0333  0.1112  1.0145
   97MOL   H28940801   2.057   1.322   5.449 -1.0453  1.3105 -0.2705
   97MOL   H29040802   1.958   1.187   5.417 -1.4458  0.0135 -0.2555
   97MOL   H29140803   1.875   1.430   5.607  0.3083 -0.4212  1.1209
   97MOL   H29240804   1.796   1.270   5.593 -0.3140  0.8065  1.7802
   97MOL   H29340805   2.025   1.185   5.679  0.8194  1.1654 -0.8598
   97MOL   H29440806   1.925   1.268   5.788  1.6574  1.4788  1.5172
   97MOL   H29540807   2.057   1.350   5.704  0.6148 -0.7051 -2.3675
   97MOL   C29640808   1.622   1.486   5.189 -0.1027 -0.5868 -0.0303
   97MOL   C29740809   1.653   1.600   5.086  0.0285 -0.0011  0.5943
   97MOL   C29840810   1.794   1.660   5.111  0.0145 -0.1882  1.0038
   97MOL   C29940811   1.860   1.744   4.995 -0.0108 -0.1290  0.3082
   97MOL   C30040812   1.980   1.830   5.031  0.3417 -0.0885 -0.0108
   97MOL   C30140813   2.020   1.937   4.935  0.4321  0.4031  0.1361
   97MOL   C30240814   2.051   1.882   4.796 -0.2921  0.1038 -0.0336
   97MOL   H30340815   1.515   1.466   5.184 -0.1732 -1.5813  3.9591
   97MOL   H30440816   1.630   1.523   5.291  0.1545 -0.2869 -0.1580
   97MOL   H30540817   1.645   1.556   4.986  0.2832 -0.8920  0.9593
   97MOL   H30640818   1.792   1.709   5.208  1.3746 -0.8726  1.3917
   97MOL   H30740819   1.865   1.587   5.150 -0.6885 -1.1471  0.4915
   97MOL   H30840820   1.773   1.804   4.970 -0.4651 -1.2289 -0.8235
   97MOL   H30940821   1.884   1.688   4.905  3.2117  1.9279 -0.1966
   97MOL   H31040822   2.062   1.765   5.061 -0.0638 -1.0391 -0.9519
   97MOL   H31140823   1.965   1.884   5.125  2.9343  3.1278 -1.3256
   97MOL   H31240824   1.935   2.003   4.924 -0.0501 -0.3890 -1.0181
   97MOL   H31340825   2.094   2.008   4.971  1.2495  0.5257 -1.7160
   97MOL   H31440826   1.962   1.854   4.739 -0.3778  1.9661 -0.8542
   97MOL   H31540827   2.095   1.969   4.746 -1.0807  0.0783 -0.8002
   97MOL   H31640828   2.117   1.796   4.796  0.7884  0.9175  0.2743
   97MOL   C31740829   1.549   1.720   5.097 -0.1072 -0.2225  0.0016
   97MOL   C31840830   1.407   1.675   5.044  0.2384 -0.0230 -0.1925
   97MOL   C31940831   1.301   1.784   5.073 -0.1273  0.8083  0.2423
   97MOL   C32040832   1.271   1.790   5.222  0.7280  0.1431 -0.1325
   97MOL   C32140833   1.144   1.870   5.250 -0.2895 -0.0752 -0.1543
   97MOL   C32240834   1.020   1.783   5.263  0.4438 -0.4260 -0.2200
   97MOL   C32340835   1.008   1.731   5.404  0.3308  0.8387 -0.0656
   97MOL   H32440836   1.577   1.812   5.045  1.7832 -0.7804  0.0086
   97MOL   H32540837   1.546   1.757   5.199 -0.1111 -1.6765  0.5374
   97MOL   H32640838   1.374   1.591   5.105  1.3406  0.8732  1.6806
   97MOL   H32740839   1.211   1.751   5.021  0.1482 -0.0185  0.2730
   97MOL   H32840840   1.309   1.884   5.031  0.4488  0.9502  0.6822
   97MOL   H32940841   1.355   1.848   5.260  0.7555  0.1789 -0.2482
   97MOL   H33040842   1.279   1.694   5.273 -0.5187 -0.1559 -0.4872
   97MOL   H33140843   1.129   1.941   5.169 -0.0574  0.1742  0.0209
   97MOL   H33240844   1.154   1.941   5.332  0.0645 -0.7532  0.3975
   97MOL   H33340845   1.018   1.696   5.197 -0.0935 -1.3749  1.0266
   97MOL   H33440846   0.938   1.848   5.233  0.9313 -0.0719 -0.7964
   97MOL   H33540847   1.089   1.664   5.433  0.5935  0.4406 -1.7165
   97MOL   H33640848   0.913   1.679   5.417  0.9966 -0.4258 -0.1914
   97MOL   H33740849   1.000   1.817   5.471 -0.3181  0.1530  0.7485
   97MOL   C33840850   1.406   1.630   4.888 -0.7119  0.0889 -0.0921
   97MOL   C33940851   1.499   1.709   4.782  0.1676  0.5488  0.1356
   97MOL   C34040852   1.407   1.823   4.731 -0.1005 -0.0312 -0.4328
   97MOL   C34140853   1.474   1.958   4.703  0.1072  0.0246 -0.5653
   97MOL   C34240854   1.376   2.070   4.711 -0.3961 -0.8359 -0.0645
   97MOL   C34340855   1.457   2.203   4.696  0.5849  0.5498 -0.6272
   97MOL   C34440856   1.365   2.318   4.708 -0.4829 -0.4250  0.0913
   97MOL   H34540857   1.305   1.608   4.856 -1.0288  2.9542 -1.2440
   97MOL   H34640858   1.453   1.532   4.890  0.3416  0.5401 -1.4199
   97MOL   H34740859   1.589   1.747   4.831  0.6833  0.0880 -0.4542
   97MOL   H34840860   1.353   1.799   4.639 -0.7272 -0.1200 -0.0431
   97MOL   H34940861   1.324   1.833   4.801 -0.8493  1.5135 -1.5237
   97MOL   H35040862   1.524   1.949   4.607 -0.0495 -0.1849 -0.6276
   97MOL   H35140863   1.549   1.979   4.779 -1.6185 -1.0011  1.4663
   97MOL   H35240864   1.306   2.052   4.629  1.2264 -2.1105 -1.1877
   97MOL   H35340865   1.323   2.062   4.806 -0.1357 -0.6199  0.0980
   97MOL   H35440866   1.536   2.209   4.771 -0.1006 -1.9761  0.3600
   97MOL   H35540867   1.504   2.187   4.598 -0.0143  3.4861 -1.4312
   97MOL   H35640868   1.305   2.309   4.800  0.0885  1.6691  0.6894
   97MOL   H35740869   1.315   2.322   4.611 -1.7663  3.1508  0.8169
   97MOL   H35840870   1.426   2.408   4.706 -1.6450  0.3549 -0.7940
   97MOL   C35940871   1.549   1.613   4.672  0.4468 -0.4257  0.3165
   97MOL   C36040872   1.653   1.659   4.568 -0.1673  0.3960  0.6380
   97MOL   C36140873   1.800   1.624   4.596  0.0781 -0.3406 -0.2370
   97MOL   C36240874   1.907   1.686   4.501 -0.2287  0.1422 -0.2227
   97MOL   C36340875   2.042   1.627   4.531  0.2735  0.0628 -0.9073
   97MOL   C36440876   2.156   1.690   4.443  0.3575 -0.3289  0.1905
   97MOL   C36540877   2.285   1.617   4.465 -0.2878 -0.3224 -0.3538
   97MOL   H36640878   1.460   1.571   4.626  1.1967  0.0776 -1.6316
   97MOL   H36740879   1.589   1.524   4.721  1.2975 -0.2951 -0.1351
   97MOL   H36840880   1.658   1.768   4.564  0.0592  0.3423 -0.9693
   97MOL   H36940881   1.829   1.666   4.692 -1.3305  3.9549 -1.6080
   97MOL   H37040882   1.811   1.515   4.597 -1.8508 -0.5780  3.4360
   97MOL   H37140883   1.893   1.658   4.397 -0.6252 -0.5477  0.0130
   97MOL   H37240884   1.919   1.794   4.509  2.6000 -0.2698  2.1490
   97MOL   H37340885   2.071   1.637   4.635  0.4498 -0.2721 -0.9236
   97MOL   H37440886   2.048   1.520   4.507  2.5327 -0.0707  0.2106
   97MOL   H37540887   2.132   1.687   4.337 -1.2069 -3.9805  0.5823
   97MOL   H37640888   2.173   1.797   4.461  1.9122 -0.3382 -1.0827
   97MOL   H37740889   2.370   1.668   4.419  0.4400 -0.5305  0.7260
   97MOL   H37840890   2.309   1.620   4.572 -0.8449  0.5769 -0.2484
   97MOL   H37940891   2.279   1.515   4.428 -1.5634  0.0927 -1.3169
   97MOL   C38040892   1.599   1.617   4.421  0.3866  0.1073  0.3226
   97MOL   C38140893   1.482   1.699   4.358  0.0107  0.2164 -0.1007
   97MOL   C38240894   1.540   1.838   4.313 -0.4426  0.0175  0.0866
   97MOL   C38340895   1.431   1.950   4.310 -0.1141 -0.2985  0.4471
   97MOL   C38440896   1.488   2.090   4.282 -0.2518 -0.4115  0.0500
   97MOL   C38540897   1.378   2.200   4.291 -0.6999 -0.4556 -0.1699
   97MOL   C38640898   1.248   2.195   4.217 -0.0388  0.2305  0.5790
   97MOL   H38740899   1.679   1.628   4.348  1.5322 -0.0273  1.5540
   97MOL   H38840900   1.566   1.514   4.423  1.5861 -0.3133 -0.6401
   97MOL   H38940901   1.401   1.706   4.430 -1.6411 -0.3425 -1.8351
   97MOL   H39040902   1.590   1.828   4.217 -2.2397  0.4246 -0.9123
   97MOL   H39140903   1.613   1.869   4.389  2.2114  1.3268 -2.8985
   97MOL   H39240904   1.366   1.916   4.229  0.5336  0.8216 -0.5606
   97MOL   H39340905   1.382   1.941   4.407  0.7397 -1.1509  0.8162
   97MOL   H39440906   1.575   2.126   4.338 -1.0913  1.4858  0.1828
   97MOL   H39540907   1.537   2.092   4.184 -0.6422 -3.1437 -0.2270
   97MOL   H39640908   1.416   2.299   4.264 -2.3424  0.3361  0.3541
   97MOL   H39740909   1.351   2.204   4.396 -1.2216  0.8080 -0.3390
   97MOL   H39840910   1.179   2.270   4.257  0.3683  0.3025  1.1510
   97MOL   H39940911   1.197   2.101   4.238  0.4852  0.0375  0.9823
   97MOL   H40040912   1.257   2.205   4.109 -2.2519 -1.8551  0.1623
   97MOL   C40140913   1.415   1.629   4.238  0.2734 -0.3226 -0.6461
   97MOL   C40240914   1.340   1.504   4.260 -0.0593  0.7928 -0.1763
   97MOL   C40340915   1.288   1.449   4.128  0.1364  0.7034 -0.3354
   97MOL   C40440916   1.389   1.410   4.017  0.3407  0.0147 -0.2419
   97MOL   C40540917   1.305   1.350   3.896  0.2588  0.2973 -0.1263
   97MOL   C40640918   1.394   1.331   3.774  0.0939  0.0998 -0.6632
   97MOL   C40740919   1.318   1.259   3.658 -0.1167 -0.3828 -0.0318
   97MOL   H40840920   1.496   1.598   4.173 -0.5834 -0.6809 -1.5577
   97MOL   H40940921   1.357   1.697   4.175 -1.1680  0.4494  1.4547
   97MOL   H41040922   1.254   1.512   4.326 -0.6090 -1.5043 -0.5737
   97MOL   H41140923   1.205   1.515   4.102 -0.7720  0.3739  1.5929
   97MOL   H41240924   1.233   1.360   4.159 -1.0504  1.5086 -0.0625
   97MOL   H41340925   1.466   1.345   4.059 -0.6692 -0.3921  1.0411
   97MOL   H41440926   1.446   1.496   3.982  1.8230 -1.2927 -1.1314
   97MOL   H41540927   1.259   1.254   3.921  0.2829  0.7449  1.6475
   97MOL   H41640928   1.225   1.421   3.872 -0.7316 -1.0495 -0.8936
   97MOL   H41740929   1.437   1.425   3.737 -0.0647  1.3159  2.1598
   97MOL   H41840930   1.483   1.277   3.806  1.8264  2.3554 -1.5192
   97MOL   H41940931   1.296   1.154   3.678  1.8471 -1.2553 -2.2322
   97MOL   H42040932   1.383   1.250   3.571 -0.6486 -1.7360 -0.3032
   97MOL   H42140933   1.226   1.308   3.624 -0.1552 -1.0395 -0.8685
   97MOL   H42240934   1.399   1.422   4.301  0.9411  1.4288 -0.3338
   98MOL     C140935   1.143   5.398   2.293  0.3120 -0.3768  0.3254
   98MOL     C240936   1.119   5.503   2.182  0.3013 -0.3393  0.9475
   98MOL     C340937   1.029   5.444   2.077  0.0731  0.7336  0.3999
   98MOL     C440938   1.083   5.315   2.006 -0.2484  0.0456 -0.6542
   98MOL     C540939   0.994   5.273   1.890  0.3614 -0.1793 -0.5859
   98MOL     C640940   1.033   5.143   1.826 -0.3527  0.2413  0.0835
   98MOL     C740941   1.007   5.021   1.915 -0.7030  0.0314  0.4380
   98MOL     H840942   1.192   5.447   2.377  0.7339  0.9405 -0.6619
   98MOL     H940943   1.205   5.318   2.253 -0.7129  0.0817 -2.3099
   98MOL    H1040944   1.065   5.588   2.225 -0.2037  0.5146 -1.3130
   98MOL    H1140945   0.926   5.417   2.104 -0.2977  1.9184  0.1845
   98MOL    H1240946   1.021   5.522   2.001 -0.8434  0.7860  0.5406
   98MOL    H1340947   1.180   5.335   1.961 -0.1776  1.0929 -0.0678
   98MOL    H1440948   1.084   5.232   2.076  1.2065  0.5074 -0.1286
   98MOL    H1540949   1.001   5.363   1.829 -1.9651  1.6503  1.7526
   98MOL    H1640950   0.891   5.271   1.926  1.1509  0.1326  1.7570
   98MOL    H1740951   1.139   5.145   1.797 -0.7974  2.4839 -1.5371
   98MOL    H1840952   0.987   5.115   1.731  0.2871 -3.4952  0.7753
   98MOL    H1940953   1.018   4.924   1.865 -0.1755  0.2274  0.1673
   98MOL    H2040954   0.909   5.027   1.962 -1.1633  0.2360 -0.5359
   98MOL    H2140955   1.087   5.009   1.988 -0.4352 -1.9533 -0.1317
   98MOL    H2240956   1.044   5.354   2.307  1.1580 -2.3335  0.3789
   98MOL    C2340957   1.250   5.569   2.138 -0.6779 -0.3044  0.7034
   98MOL    C2440958   1.325   5.669   2.230  0.1260 -0.1778 -0.2764
   98MOL    C2540959   1.248   5.801   2.249 -0.2339  0.2685  0.1591
   98MOL    C2640960   1.219   5.895   2.123 -0.4823  0.2407  0.2314
   98MOL    C2740961   1.115   5.997   2.166 -0.9493 -0.3685  0.3679
   98MOL    C2840962   1.073   6.087   2.048  0.2540  0.4153  0.0438
   98MOL    C2940963   0.982   6.198   2.084 -0.2959 -0.0434 -0.4172
   98MOL    H3040964   1.315   5.490   2.101  0.4470  0.5517  0.8636
   98MOL    H3140965   1.219   5.618   2.045 -1.5479 -0.4122  0.9277
   98MOL    H3240966   1.325   5.620   2.328  0.8424 -0.9666 -0.6668
   98MOL    H3340967   1.299   5.861   2.325  2.2183  0.0993 -1.3155
   98MOL    H3440968   1.155   5.786   2.303 -0.2885 -0.1734 -0.0517
   98MOL    H3540969   1.171   5.835   2.046 -2.5744 -1.1647  2.5630
   98MOL    H3640970   1.316   5.921   2.080 -0.0032  2.5904  2.6313
   98MOL    H3740971   1.155   6.061   2.244 -0.3906 -1.7258  1.2137
   98MOL    H3840972   1.024   5.947   2.200 -2.5312  1.3596 -1.1972
   98MOL    H3940973   1.027   6.023   1.972  2.2806 -1.0631  0.0415
   98MOL    H4040974   1.164   6.123   2.001  0.1755 -0.0422 -0.4685
   98MOL    H4140975   0.942   6.249   1.997 -1.6793  0.6832  0.6174
   98MOL    H4240976   0.896   6.149   2.131  0.1820 -0.1463  0.3647
   98MOL    H4340977   1.038   6.272   2.142 -0.4675  0.9367 -1.4985
   98MOL    C4440978   1.468   5.692   2.183 -0.4350  0.6960 -0.4826
   98MOL    C4540979   1.575   5.626   2.264 -0.8386 -0.6096  0.9502
   98MOL    C4640980   1.561   5.478   2.279  0.3676  0.4427  0.9193
   98MOL    C4740981   1.637   5.412   2.399 -0.1704  0.6427 -0.4327
   98MOL    C4840982   1.574   5.279   2.432 -0.6041 -0.3671  0.5310
   98MOL    C4940983   1.652   5.207   2.544 -0.0545 -0.1582 -0.5807
   98MOL    C5040984   1.609   5.056   2.559 -0.3014  0.0798  0.0771
   98MOL    H5140985   1.493   5.798   2.190  1.9781  0.0598  0.9843
   98MOL    H5240986   1.484   5.676   2.076 -1.0086 -3.9968  0.0625
   98MOL    H5340987   1.577   5.677   2.360  2.8464 -0.8712  1.0857
   98MOL    H5440988   1.591   5.432   2.185 -2.1006 -0.9332  0.7339
   98MOL    H5540989   1.458   5.443   2.290  0.4963 -0.9142 -1.7321
   98MOL    H5640990   1.743   5.405   2.374 -0.2509 -0.0293 -0.5896
   98MOL    H5740991   1.621   5.480   2.483  0.3081  2.1342 -1.5134
   98MOL    H5840992   1.581   5.208   2.349  0.6288 -0.9443  1.1087
   98MOL    H5940993   1.467   5.285   2.452 -1.0031 -0.5838 -1.3983
   98MOL    H6040994   1.655   5.269   2.633 -3.0845  2.1276 -1.9644
   98MOL    H6140995   1.755   5.199   2.509  0.4557  0.2474  0.8040
   98MOL    H6240996   1.635   5.000   2.469 -0.7192  1.9557 -1.2186
   98MOL    H6340997   1.508   5.046   2.599 -0.1551  0.7460  0.6304
   98MOL    H6440998   1.672   5.010   2.636  2.0105  0.3576 -1.5776
   98MOL    C6540999   1.710   5.669   2.208  0.0110 -0.4541  0.1372
   98MOL    C6641000   1.773   5.808   2.233  0.3645 -0.1192  0.0793
   98MOL    C6741001   1.878   5.850   2.123  0.1951  0.0526 -0.0476
   98MOL    C6841002   2.011   5.774   2.123 -0.0494  0.2433  0.3613
   98MOL    C6941003   2.012   5.629   2.056 -0.3992  0.6566  0.1102
   98MOL    C7041004   2.155   5.576   2.051 -0.3938 -0.1925  0.5547
   98MOL    C7141005   2.162   5.430   2.014  0.0906 -0.3127  0.1809
   98MOL    H7241006   1.783   5.599   2.248 -0.1072 -0.6059  0.0865
   98MOL    H7341007   1.710   5.638   2.103  1.0388  0.3494 -0.1093
   98MOL    H7441008   1.688   5.876   2.227 -0.7511 -1.5088 -0.1402
   98MOL    H7541009   1.827   5.840   2.027 -0.6789  1.0715  0.2951
   98MOL    H7641010   1.895   5.957   2.134  0.3568  0.0764 -0.5389
   98MOL    H7741011   2.086   5.827   2.065  0.5737 -1.3970 -0.3550
   98MOL    H7841012   2.051   5.776   2.225 -0.9794 -0.8652  0.7603
   98MOL    H7941013   1.953   5.566   2.123  1.0458  0.8193  1.5611
   98MOL    H8041014   1.969   5.646   1.957  0.9809  0.5534 -0.5063
   98MOL    H8141015   2.192   5.583   2.153  1.1525 -1.1590  0.0831
   98MOL    H8241016   2.222   5.638   1.991 -1.7978 -0.7414 -1.6290
   98MOL    H8341017   2.122   5.411   1.914  2.7286 -1.6240 -0.6722
   98MOL    H8441018   2.262   5.388   2.004 -0.1630 -1.2122  1.3895
   98MOL    H8541019   2.105   5.380   2.093  0.9238 -0.2367  0.8293
   98MOL    C8641020   1.823   5.811   2.379 -0.1086  0.3210  0.1902
   98MOL    C8741021   1.869   5.945   2.439 -0.3472 -0.0234 -0.1764
   98MOL    C8841022   1.758   6.053   2.416 -0.2987  0.2887 -0.3677
   98MOL    C8941023   1.625   6.029   2.479 -0.2349 -0.8001 -0.0602
   98MOL    C9041024   1.541   6.153   2.474 -0.0504 -0.2777 -0.4336
   98MOL    C9141025   1.392   6.130   2.503 -0.3550 -0.7770  0.4527
   98MOL    C9241026   1.315   6.258   2.489  0.7644  0.2315 -0.2615
   98MOL    H9341027   1.750   5.763   2.444 -1.0052  0.6063 -0.6049
   98MOL    H9441028   1.910   5.746   2.388 -0.5480 -0.1262  1.3369
   98MOL    H9541029   1.958   5.971   2.382 -0.6122  2.8916  0.6759
   98MOL    H9641030   1.792   6.148   2.457  0.7285 -0.1450 -0.2146
   98MOL    H9741031   1.747   6.073   2.310  0.6444 -2.4518 -1.0156
   98MOL    H9841032   1.571   5.954   2.420 -1.2648  0.8861 -1.3245
   98MOL    H9941033   1.624   5.985   2.579  1.4098 -2.9363 -0.9343
   98MOL   H10041034   1.565   6.201   2.379  0.2464  0.8015  0.1798
   98MOL   H10141035   1.578   6.219   2.553 -0.7323  0.6180 -0.8586
   98MOL   H10241036   1.366   6.053   2.429 -0.7253 -2.6522  2.4729
   98MOL   H10341037   1.373   6.072   2.593 -1.2812 -0.0077  0.7610
   98MOL   H10441038   1.331   6.299   2.389  0.9259  0.5330 -0.1135
   98MOL   H10541039   1.335   6.324   2.573  1.9493  0.7598 -0.9590
   98MOL   H10641040   1.207   6.248   2.500  0.7602 -0.0041 -0.5224
   98MOL   C10741041   1.908   5.934   2.593 -0.0288  0.4365 -0.1700
   98MOL   C10841042   2.053   5.899   2.632 -0.1083  0.8162 -0.0798
   98MOL   C10941043   2.098   5.762   2.573 -0.6162 -0.8637 -0.3209
   98MOL   C11041044   2.197   5.671   2.644 -0.6917  0.3787  0.5193
   98MOL   C11141045   2.226   5.541   2.564  0.1632 -0.1470 -0.9420
   98MOL   C11241046   2.317   5.453   2.643  0.5345 -0.9533  0.4919
   98MOL   C11341047   2.459   5.514   2.689  0.3536 -0.0992 -0.9908
   98MOL   H11441048   1.844   5.858   2.638  2.1500 -1.1311  0.3496
   98MOL   H11541049   1.868   6.017   2.651 -3.3082  0.0530 -1.7746
   98MOL   H11641050   2.051   5.885   2.740 -0.6949 -1.2346 -0.3458
   98MOL   H11741051   2.136   5.773   2.472 -1.6185 -0.6137 -0.6695
   98MOL   H11841052   2.010   5.698   2.584 -0.0857 -1.1333  3.0306
   98MOL   H11941053   2.293   5.721   2.651 -0.6488  0.4839 -0.7126
   98MOL   H12041054   2.158   5.661   2.745  1.1965  0.8660  1.3176
   98MOL   H12141055   2.279   5.557   2.470  0.3120 -2.7230 -1.3261
   98MOL   H12241056   2.129   5.498   2.539  0.3764 -0.0456 -1.9678
   98MOL   H12341057   2.254   5.425   2.727 -0.5239 -0.9843 -0.3027
   98MOL   H12441058   2.331   5.365   2.581  0.7523 -0.3564 -0.3134
   98MOL   H12541059   2.498   5.466   2.779 -1.7254  0.7915  0.4228
   98MOL   H12641060   2.529   5.514   2.605 -0.6884  0.7869 -1.8724
   98MOL   H12741061   2.445   5.617   2.720  0.3847 -0.5489  0.5281
   98MOL   C12841062   2.135   6.020   2.605  0.6654 -0.1911 -0.2408
   98MOL   C12941063   2.266   6.035   2.674 -0.4967 -0.2397 -0.7731
   98MOL   C13041064   2.241   6.085   2.818 -0.6817 -0.2224  0.2901
   98MOL   C13141065   2.341   6.024   2.919  0.6164 -1.2783  0.8762
   98MOL   C13241066   2.306   6.058   3.059  0.1426 -0.3378  1.3119
   98MOL   C13341067   2.405   5.994   3.157 -0.1941  0.2631  0.5728
   98MOL   C13441068   2.391   6.036   3.300 -0.3491  0.1138 -0.3278
   98MOL   H13541069   2.150   6.004   2.498 -1.7584 -0.8554 -0.5224
   98MOL   H13641070   2.074   6.109   2.623  0.6554 -0.6165  1.9316
   98MOL   H13741071   2.302   5.933   2.685 -0.0837 -0.1261 -1.0639
   98MOL   H13841072   2.139   6.074   2.853 -1.4057  1.2258 -1.2730
   98MOL   H13941073   2.259   6.193   2.823 -1.0877 -0.1443  0.0499
   98MOL   H14041074   2.439   6.066   2.897  0.5920 -1.5375  0.2577
   98MOL   H14141075   2.361   5.919   2.900  1.4313 -0.7833 -1.0669
   98MOL   H14241076   2.200   6.035   3.074 -0.6544  0.9970 -1.7322
   98MOL   H14341077   2.313   6.167   3.065  0.6047 -0.3400  0.8608
   98MOL   H14441078   2.510   5.993   3.128 -0.1184 -0.9013  0.8771
   98MOL   H14541079   2.380   5.888   3.158 -0.4683  0.3393  1.4348
   98MOL   H14641080   2.451   5.969   3.361 -2.0543  1.7972  3.3093
   98MOL   H14741081   2.289   6.035   3.338 -0.6878 -1.3969 -1.2319
   98MOL   H14841082   2.419   6.140   3.315 -0.0588  0.0330 -0.3027
   98MOL   C14941083   2.373   6.124   2.600  0.3104 -0.1837  0.3184
   98MOL   C15041084   2.416   6.083   2.453 -0.2091  0.2582 -0.8947
   98MOL   C15141085   2.442   5.926   2.447 -0.1609 -0.2232 -0.3493
   98MOL   C15241086   2.465   5.866   2.306 -0.4115  0.0534  0.6047
   98MOL   C15341087   2.476   5.714   2.304  0.0819  0.6430  0.3472
   98MOL   C15441088   2.495   5.657   2.169 -0.7492 -0.0506  0.5018
   98MOL   C15541089   2.504   5.514   2.171 -0.2674 -0.1421 -0.3878
   98MOL   H15641090   2.327   6.223   2.595  1.4403  0.3580  0.4247
   98MOL   H15741091   2.462   6.119   2.662 -0.9064 -1.0108  2.0214
   98MOL   H15841092   2.319   6.098   2.404 -0.4438 -1.0196 -0.8454
   98MOL   H15941093   2.539   5.905   2.491 -0.4970  0.4876  0.7581
   98MOL   H16041094   2.365   5.867   2.496  0.4446  1.2187  2.4404
   98MOL   H16141095   2.554   5.903   2.254  0.0855 -1.9637 -0.0359
   98MOL   H16241096   2.372   5.897   2.258 -0.1795  1.7230  1.2104
   98MOL   H16341097   2.404   5.660   2.364 -0.2646 -1.6126 -1.9773
   98MOL   H16441098   2.568   5.691   2.358 -1.4740 -3.7108  1.4190
   98MOL   H16541099   2.583   5.702   2.123 -1.0283 -0.3608 -0.3442
   98MOL   H16641100   2.403   5.687   2.119 -0.1765  1.3883  0.2922
   98MOL   H16741101   2.546   5.485   2.075  0.3652 -0.1411 -0.1127
   98MOL   H16841102   2.412   5.455   2.176 -0.6240  0.2073 -2.4498
   98MOL   H16941103   2.567   5.479   2.252 -1.4628  0.7532  0.9554
   98MOL   C17041104   2.530   6.155   2.381 -0.7098  0.1780  0.0860
   98MOL   C17141105   2.533   6.310   2.365  0.0669 -0.0222 -0.2593
   98MOL   C17241106   2.403   6.371   2.330  0.2054 -0.2124  0.2762
   98MOL   C17341107   2.338   6.322   2.205 -0.5556 -0.3335  0.2086
   98MOL   C17441108   2.391   6.384   2.079 -0.5125 -0.0330  0.3525
   98MOL   C17541109   2.305   6.353   1.957 -0.0817 -0.1798 -0.8072
   98MOL   C17641110   2.357   6.423   1.837 -0.4219  0.4203 -0.4199
   98MOL   H17741111   2.543   6.125   2.277  1.3796  3.5637 -0.7145
   98MOL   H17841112   2.626   6.128   2.426 -1.3047 -1.4391  0.3810
   98MOL   H17941113   2.597   6.325   2.279 -1.7298 -0.9759 -1.8024
   98MOL   H18041114   2.421   6.478   2.329 -2.4317  0.2754  1.1243
   98MOL   H18141115   2.341   6.368   2.420 -0.8067  0.2416 -0.4004
   98MOL   H18241116   2.232   6.351   2.204 -0.4222  0.1292 -2.0848
   98MOL   H18341117   2.329   6.214   2.211 -0.9878 -0.2875  0.4902
   98MOL   H18441118   2.499   6.378   2.067 -0.4822  1.0360  0.0468
   98MOL   H18541119   2.384   6.492   2.083 -0.5819  0.0046 -0.6007
   98MOL   H18641120   2.200   6.366   1.982 -0.2589 -2.2560 -0.4271
   98MOL   H18741121   2.322   6.246   1.950  2.1404  0.2799 -3.4223
   98MOL   H18841122   2.464   6.401   1.830 -0.2213  1.8919 -2.9503
   98MOL   H18941123   2.347   6.531   1.849  0.2244  0.4518 -0.1461
   98MOL   H19041124   2.310   6.385   1.746 -0.9575  0.5898 -0.2115
   98MOL   C19141125   2.590   6.373   2.496 -0.1778  0.1254 -1.4129
   98MOL   C19241126   2.651   6.514   2.465 -0.4446  0.5037 -0.2736
   98MOL   C19341127   2.613   6.620   2.575 -0.4068 -0.7559  0.0959
   98MOL   C19441128   2.462   6.662   2.590 -0.3664 -0.7099 -0.2276
   98MOL   C19541129   2.439   6.745   2.716 -0.1907 -1.2541 -0.1642
   98MOL   C19641130   2.288   6.753   2.761  0.0377 -0.4213  0.5441
   98MOL   C19741131   2.259   6.843   2.887 -0.5333 -0.1840  0.1584
   98MOL   H19841132   2.674   6.309   2.522 -0.6997 -0.1849 -0.4717
   98MOL   H19941133   2.522   6.364   2.580  1.7309 -0.4669  0.1108
   98MOL   H20041134   2.606   6.536   2.368 -0.6396 -0.0389 -0.3073
   98MOL   H20141135   2.676   6.708   2.558 -2.0061  0.4141  0.1778
   98MOL   H20241136   2.652   6.577   2.668  1.1213 -0.0864 -0.2115
   98MOL   H20341137   2.410   6.566   2.598  0.2766 -1.1080 -0.8152
   98MOL   H20441138   2.423   6.713   2.502 -1.3287 -0.4450  0.3414
   98MOL   H20541139   2.505   6.715   2.798 -0.1526 -2.1375 -0.5107
   98MOL   H20641140   2.466   6.849   2.698 -0.8093 -0.6886  2.0504
   98MOL   H20741141   2.253   6.652   2.782 -0.2965 -0.2705  0.6996
   98MOL   H20841142   2.231   6.793   2.678  1.3384  0.8246  0.2264
   98MOL   H20941143   2.333   6.834   2.965 -0.6275  0.3176  0.3068
   98MOL   H21041144   2.167   6.819   2.941  0.4621 -0.0341  1.9370
   98MOL   H21141145   2.279   6.950   2.881  0.7497 -0.4122  0.2215
   98MOL   C21241146   2.815   6.514   2.449 -0.6987 -0.1049  0.9745
   98MOL   C21341147   2.870   6.431   2.330 -0.5324  0.0844 -0.0869
   98MOL   C21441148   2.824   6.488   2.196 -0.3799 -0.6438 -0.0084
   98MOL   C21541149   2.826   6.394   2.073  0.0829  0.0570  0.6827
   98MOL   C21641150   2.799   6.457   1.942 -0.5885 -0.0800 -0.0358
   98MOL   C21741151   2.777   6.343   1.839 -0.2173 -0.0666  0.6438
   98MOL   C21841152   2.744   6.394   1.693 -0.0149 -0.0506  0.2309
   98MOL   H21941153   2.858   6.474   2.541 -0.5062 -0.4309  0.7446
   98MOL   H22041154   2.845   6.617   2.430 -0.8874 -0.5249 -1.9461
   98MOL   H22141155   2.822   6.333   2.337 -1.0943  0.4143  0.7063
   98MOL   H22241156   2.721   6.525   2.195  0.2473  1.3306  2.7771
   98MOL   H22341157   2.881   6.579   2.178  0.7140 -1.1763  0.6795
   98MOL   H22441158   2.763   6.306   2.085 -1.3694  0.8655 -0.7723
   98MOL   H22541159   2.925   6.350   2.068 -0.3492 -0.7182 -1.1889
   98MOL   H22641160   2.711   6.522   1.950 -0.5851 -0.3174  2.2662
   98MOL   H22741161   2.880   6.526   1.922 -1.1571  1.0550  1.4355
   98MOL   H22841162   2.866   6.280   1.827 -0.6010 -0.5941  0.5533
   98MOL   H22941163   2.689   6.286   1.867 -1.1587 -0.2394 -2.4995
   98MOL   H23041164   2.729   6.305   1.631  2.3210 -0.9946  0.9569
   98MOL   H23141165   2.828   6.445   1.646  0.2406 -1.3862 -0.7923
   98MOL   H23241166   2.660   6.464   1.694  0.2880  0.3202 -0.1125
   98MOL   C23341167   3.024   6.407   2.335  0.5825  0.1290  0.1508
   98MOL   C23441168   3.064   6.265   2.379  0.0200  0.8891 -0.1817
   98MOL   C23541169   3.035   6.239   2.525 -0.0439  0.2220 -0.1226
   98MOL   C23641170   3.113   6.343   2.618 -0.0697 -0.5988  0.2342
   98MOL   C23741171   3.115   6.285   2.760 -0.4840 -0.4571 -0.5047
   98MOL   C23841172   3.178   6.393   2.852 -0.3507 -0.4162  0.3198
   98MOL   C23941173   3.185   6.336   2.993  0.2025 -0.2581 -0.4417
   98MOL   H24041174   3.062   6.492   2.392 -1.4386 -0.8330  3.0846
   98MOL   H24141175   3.066   6.421   2.236  0.6915 -0.8141  0.0604
   98MOL   H24241176   3.172   6.281   2.372  0.5036 -0.6546  2.9081
   98MOL   H24341177   3.062   6.142   2.566 -0.1595  1.2177  2.3729
   98MOL   H24441178   2.929   6.249   2.547 -0.2656  1.1589 -1.5689
   98MOL   H24541179   3.046   6.429   2.622 -0.3607 -0.8814  2.0888
   98MOL   H24641180   3.212   6.365   2.580 -0.1626  0.7818  0.7267
   98MOL   H24741181   3.172   6.192   2.763  1.4626  0.7482  0.6138
   98MOL   H24841182   3.016   6.272   2.802 -1.0911  2.3243 -0.9568
   98MOL   H24941183   3.279   6.413   2.815 -0.1448 -0.2381  0.9697
   98MOL   H25041184   3.127   6.489   2.858  0.6068  0.2106 -1.1994
   98MOL   H25141185   3.238   6.406   3.058  1.4974 -0.2702 -1.4630
   98MOL   H25241186   3.083   6.333   3.033  0.3141 -0.4247 -0.1695
   98MOL   H25341187   3.233   6.239   2.998  0.5997 -0.0343  0.0417
   98MOL   C25441188   3.041   6.150   2.283  0.4057 -0.1785 -0.3407
   98MOL   C25541189   3.119   6.024   2.309  0.0434  0.4296  0.7786
   98MOL   C25641190   3.267   6.041   2.326 -0.2175 -0.0135 -0.4688
   98MOL   C25741191   3.336   6.134   2.222  0.6119 -0.3240 -1.3697
   98MOL   C25841192   3.491   6.152   2.238  0.8897  0.4765 -0.0931
   98MOL   C25941193   3.549   6.279   2.300  0.6743 -0.1496 -0.7810
   98MOL   C26041194   3.506   6.425   2.250 -0.1082  0.7240  0.0063
   98MOL   H26141195   3.056   6.178   2.179  1.2661  0.3034 -0.0926
   98MOL   H26241196   2.935   6.129   2.296 -0.7056  4.1256 -1.7702
   98MOL   H26341197   3.092   5.980   2.404  1.2234 -0.4428  0.7129
   98MOL   H26441198   3.305   5.939   2.328 -0.7883 -0.2104  0.6487
   98MOL   H26541199   3.300   6.078   2.423  0.4320 -1.2646 -0.1969
   98MOL   H26641200   3.317   6.086   2.126 -2.8653  0.9931 -1.4048
   98MOL   H26741201   3.283   6.227   2.202 -0.6535 -0.6835  0.1373
   98MOL   H26841202   3.522   6.137   2.135  1.2498 -0.4016  0.1419
   98MOL   H26941203   3.523   6.066   2.297 -0.1376  0.4833  0.4909
   98MOL   H27041204   3.523   6.280   2.407 -0.8081  0.6482 -1.1288
   98MOL   H27141205   3.657   6.276   2.306  0.6894  1.2963 -0.1959
   98MOL   H27241206   3.529   6.443   2.145 -1.5380  2.6029 -0.0049
   98MOL   H27341207   3.400   6.441   2.270 -0.2190 -1.7296  1.6445
   98MOL   H27441208   3.569   6.499   2.299 -0.4896  1.2164 -0.2506
   98MOL   C27541209   3.075   5.918   2.203  0.7575 -0.1843 -0.1845
   98MOL   C27641210   2.928   5.855   2.187  0.5158  0.0932  0.3043
   98MOL   C27741211   2.867   5.813   2.319  0.1985  0.3395 -0.0118
   98MOL   C27841212   2.946   5.703   2.402  0.3439 -0.2355 -0.0064
   98MOL   C27941213   2.855   5.630   2.510 -0.0808  0.0513 -0.0534
   98MOL   C28041214   2.920   5.512   2.573 -0.0598  0.0185  0.0645
   98MOL   C28141215   2.841   5.442   2.688 -1.1893 -0.3200 -0.1527
   98MOL   H28241216   3.140   5.832   2.193  1.6221  0.3192  0.8991
   98MOL   H28341217   3.089   5.979   2.114  0.7164  0.1743  0.0530
   98MOL   H28441218   2.854   5.927   2.151 -0.1862 -0.9697 -0.4453
   98MOL   H28541219   2.857   5.902   2.382  0.8832  1.0878 -0.9305
   98MOL   H28641220   2.767   5.774   2.301  1.0119 -1.1235 -1.4709
   98MOL   H28741221   3.021   5.762   2.454 -0.0999 -0.5499  0.9916
   98MOL   H28841222   3.003   5.636   2.336 -0.0747 -0.4397 -0.1613
   98MOL   H28941223   2.770   5.604   2.447 -1.7901  3.3879  0.7735
   98MOL   H29041224   2.810   5.695   2.585 -0.5827 -1.1047  0.6591
   98MOL   H29141225   2.928   5.434   2.498 -1.1460 -0.7839  0.7738
   98MOL   H29241226   3.025   5.539   2.589 -0.1868 -0.2181  1.3443
   98MOL   H29341227   2.749   5.397   2.651 -1.0177 -0.3999 -0.4815
   98MOL   H29441228   2.810   5.502   2.774  1.6135  1.1196 -0.0882
   98MOL   H29541229   2.890   5.351   2.723  0.8599  0.8912  0.2598
   98MOL   C29641230   2.917   5.747   2.077 -0.3056 -0.2815 -0.5637
   98MOL   C29741231   2.937   5.777   1.924 -0.2658 -0.1659  0.4345
   98MOL   C29841232   2.805   5.783   1.849 -0.9602  0.0286 -0.1814
   98MOL   C29941233   2.711   5.907   1.882  0.6988  1.0014 -0.2087
   98MOL   C30041234   2.580   5.901   1.802 -0.0816  0.7749  0.3552
   98MOL   C30141235   2.472   6.013   1.832 -0.1986  0.6504 -0.3676
   98MOL   C30241236   2.337   5.988   1.762 -0.6254  0.2756 -0.1654
   98MOL   H30341237   2.972   5.656   2.104 -2.1628 -1.8589 -1.9477
   98MOL   H30441238   2.817   5.706   2.090  0.8914 -3.1533  0.1112
   98MOL   H30541239   2.988   5.872   1.910  0.7552 -0.6759  0.6486
   98MOL   H30641240   2.832   5.786   1.744  1.0992  1.3403  0.3676
   98MOL   H30741241   2.754   5.687   1.854 -1.1910  0.0656 -1.6222
   98MOL   H30841242   2.764   5.997   1.851  2.1786  0.1629 -0.1516
   98MOL   H30941243   2.687   5.916   1.988 -2.1009  1.2688 -0.8364
   98MOL   H31041244   2.530   5.807   1.824  0.1860  0.3355 -0.8911
   98MOL   H31141245   2.599   5.882   1.696 -0.6595 -0.0691  0.4003
   98MOL   H31241246   2.455   6.027   1.939  0.8308 -0.2467 -0.0847
   98MOL   H31341247   2.512   6.105   1.791 -0.7482  1.0620  0.0031
   98MOL   H31441248   2.270   6.073   1.753 -1.2651 -0.0364  1.4762
   98MOL   H31541249   2.351   5.956   1.659 -0.0009 -0.0664  0.0200
   98MOL   H31641250   2.282   5.908   1.812  0.6281  0.4803  1.5911
   98MOL   C31741251   3.019   5.673   1.852  0.2287  0.0264 -0.4771
   98MOL   C31841252   3.163   5.664   1.908 -0.3843  0.2337  0.0250
   98MOL   C31941253   3.235   5.538   1.847  0.5865 -0.6069  0.4412
   98MOL   C32041254   3.197   5.397   1.899 -0.1041  0.6901  0.2719
   98MOL   C32141255   3.279   5.280   1.828 -0.3285  0.3566  0.1461
   98MOL   C32241256   3.413   5.261   1.886  0.0409  0.3592  0.2974
   98MOL   C32341257   3.494   5.156   1.796  0.4582 -0.9104 -0.5479
   98MOL   H32441258   3.021   5.683   1.744 -1.4291  0.2872 -0.4876
   98MOL   H32541259   2.965   5.582   1.877  0.7436 -0.1710 -0.0650
   98MOL   H32641260   3.151   5.640   2.014 -0.4608  0.6289  0.1045
   98MOL   H32741261   3.341   5.547   1.869  1.5939 -2.4007 -3.3409
   98MOL   H32841262   3.249   5.541   1.739  3.7925  2.5252  0.8434
   98MOL   H32941263   3.091   5.373   1.888  0.5141 -1.3604 -1.7752
   98MOL   H33041264   3.214   5.389   2.007 -2.6943  2.4786  0.8420
   98MOL   H33141265   3.289   5.296   1.721 -0.9912  0.7718  0.1424
   98MOL   H33241266   3.227   5.185   1.839 -1.1267  0.7482 -0.1952
   98MOL   H33341267   3.409   5.223   1.988  0.1674 -0.5144 -0.0208
   98MOL   H33441268   3.461   5.359   1.890  0.0715  0.2775  2.7638
   98MOL   H33541269   3.585   5.126   1.848  0.6923 -1.6815 -1.3855
   98MOL   H33641270   3.524   5.200   1.700 -1.0298 -2.5749 -1.8169
   98MOL   H33741271   3.440   5.063   1.778 -1.9485  0.0533  1.4829
   98MOL   C33841272   3.244   5.794   1.903  0.6742  0.5860 -0.1499
   98MOL   C33941273   3.252   5.871   1.768  0.4409  0.2155 -0.7153
   98MOL   C34041274   3.374   5.835   1.691  0.3077  0.5389  0.6666
   98MOL   C34141275   3.512   5.890   1.727  0.1425  0.4399 -0.9046
   98MOL   C34241276   3.607   5.853   1.622 -0.2082 -0.1829  0.1128
   98MOL   C34341277   3.740   5.926   1.635 -0.0715  0.2614 -0.2812
   98MOL   C34441278   3.849   5.880   1.530  0.7293 -0.2075 -0.1840
   98MOL   H34541279   3.336   5.770   1.955  0.1547  2.0271  1.4531
   98MOL   H34641280   3.186   5.852   1.974 -1.3834  1.0382 -2.1249
   98MOL   H34741281   3.173   5.839   1.700 -0.3257 -0.4724  0.4751
   98MOL   H34841282   3.379   5.726   1.692 -0.3271  0.5191  1.3563
   98MOL   H34941283   3.345   5.858   1.588 -0.6236 -1.5339  0.4532
   98MOL   H35041284   3.549   5.855   1.823 -0.8797 -1.2548 -1.1086
   98MOL   H35141285   3.503   5.999   1.730  0.0419  0.3914  2.6574
   98MOL   H35241286   3.625   5.746   1.629 -0.5437 -0.0552  3.7914
   98MOL   H35341287   3.560   5.876   1.527  0.2562  0.1271 -0.0449
   98MOL   H35441288   3.716   6.032   1.625  1.5689  0.8169  1.5791
   98MOL   H35541289   3.782   5.931   1.735  1.2534  1.1641 -0.8711
   98MOL   H35641290   3.814   5.900   1.428  0.5070  0.4131  0.0094
   98MOL   H35741291   3.869   5.773   1.536 -1.4547 -0.7909 -2.3866
   98MOL   H35841292   3.942   5.930   1.557 -0.0596  1.1187  0.1261
   98MOL   C35941293   3.252   6.022   1.790  0.6544  1.0341 -0.4782
   98MOL   C36041294   3.247   6.112   1.665 -0.0139  0.0337  0.0789
   98MOL   C36141295   3.125   6.076   1.571  0.2258 -0.6573  0.0901
   98MOL   C36241296   2.988   6.061   1.639 -0.0419  0.2639 -0.1609
   98MOL   C36341297   2.871   6.040   1.547 -0.0966 -0.3360 -0.5439
   98MOL   C36441298   2.865   5.908   1.468 -0.0499 -0.1023  0.5049
   98MOL   C36541299   2.741   5.910   1.384 -0.4114 -0.2773  0.0371
   98MOL   H36641300   3.342   6.048   1.845 -0.0628 -1.2925  1.9432
   98MOL   H36741301   3.168   6.057   1.851  1.8947  3.5473 -0.1535
   98MOL   H36841302   3.335   6.089   1.606 -0.8513 -3.1401 -0.0215
   98MOL   H36941303   3.114   6.154   1.495  0.3899  0.1444  0.8890
   98MOL   H37041304   3.155   5.988   1.513 -0.2340 -0.7814  0.0391
   98MOL   H37141305   2.989   5.979   1.711  0.0480 -0.0398 -0.5074
   98MOL   H37241306   2.962   6.151   1.694  0.3972  0.2447  0.0771
   98MOL   H37341307   2.780   6.040   1.608  1.4922 -0.1438  1.8935
   98MOL   H37441308   2.864   6.119   1.472 -1.6533  0.0355 -0.0269
   98MOL   H37541309   2.949   5.917   1.398 -1.1822  2.9346 -0.5728
   98MOL   H37641310   2.878   5.812   1.517  1.3134 -0.2439 -0.1015
   98MOL   H37741311   2.746   5.827   1.314  0.5457 -1.6318  1.6794
   98MOL   H37841312   2.659   5.903   1.456  2.4775 -1.5843  3.3733
   98MOL   H37941313   2.730   5.999   1.321  0.1881 -0.8133 -0.8235
   98MOL   C38041314   3.254   6.262   1.712 -0.4128  0.1404 -0.2850
   98MOL   C38141315   3.380   6.318   1.784 -0.1870 -0.8143 -0.0812
   98MOL   C38241316   3.497   6.318   1.683 -0.4833  0.2365  0.2376
   98MOL   C38341317   3.635   6.348   1.752 -0.4340  0.0576  0.8049
   98MOL   C38441318   3.680   6.242   1.861 -0.0222  0.1165  0.1453
   98MOL   C38541319   3.817   6.280   1.915 -0.2752  0.2274 -0.0679
   98MOL   C38641320   3.853   6.175   2.021 -0.3563  0.9864 -0.0870
   98MOL   H38741321   3.236   6.315   1.618  1.2564 -0.4987 -0.9809
   98MOL   H38841322   3.162   6.291   1.763  0.1495 -0.4937  1.1263
   98MOL   H38941323   3.411   6.267   1.875  0.4368  1.9159  1.3036
   98MOL   H39041324   3.478   6.399   1.612 -1.5527  0.8148  1.1832
   98MOL   H39141325   3.510   6.221   1.634  1.1435  0.4372  0.2245
   98MOL   H39241326   3.712   6.364   1.676  0.3984  3.2195  2.2398
   98MOL   H39341327   3.636   6.443   1.805 -0.7450  0.0278  0.8656
   98MOL   H39441328   3.611   6.236   1.945 -0.4845 -1.5327 -0.3344
   98MOL   H39541329   3.679   6.144   1.814 -1.2125 -0.4501  1.3166
   98MOL   H39641330   3.826   6.379   1.960 -1.0847  1.4378 -2.4802
   98MOL   H39741331   3.881   6.273   1.827 -1.6893 -1.1552 -1.0177
   98MOL   H39841332   3.955   6.194   2.056 -0.2223  0.5673 -0.2440
   98MOL   H39941333   3.862   6.073   1.983 -0.0344  0.4958  1.2681
   98MOL   H40041334   3.786   6.170   2.107  0.1432 -0.4566  0.2455
   98MOL   C40141335   3.359   6.456   1.849 -0.3199  0.3542  0.2026
   98MOL   C40241336   3.275   6.452   1.976 -0.3750  0.0978  0.1051
   98MOL   C40341337   3.259   6.594   2.048  0.4953  0.3459  0.2942
   98MOL   C40441338   3.172   6.685   1.957 -0.7228 -0.9916  0.1067
   98MOL   C40541339   3.158   6.819   2.020  0.4940  0.3585  0.1005
   98MOL   C40641340   3.101   6.929   1.920  0.4679  0.1275 -0.2170
   98MOL   C40741341   3.203   6.969   1.810 -0.2587  0.7170 -0.5014
   98MOL   H40841342   3.319   6.533   1.783 -1.7316 -1.0567 -0.6311
   98MOL   H40941343   3.457   6.494   1.878  0.1577 -1.0366  0.4518
   98MOL   H41041344   3.324   6.384   2.046  0.6865 -0.6477 -1.3583
   98MOL   H41141345   3.362   6.625   2.068  1.0669 -1.0454 -0.4576
   98MOL   H41241346   3.213   6.574   2.145 -0.4181  3.1770  0.4893
   98MOL   H41341347   3.072   6.644   1.943 -0.5209 -1.6322  0.5564
   98MOL   H41441348   3.225   6.715   1.867 -2.3888  0.3121 -0.4636
   98MOL   H41541349   3.091   6.813   2.106  0.8179 -1.1898  0.2630
   98MOL   H41641350   3.253   6.854   2.062  0.9390  0.1124 -0.6996
   98MOL   H41741351   3.004   6.901   1.878  0.4450 -0.0810 -0.0259
   98MOL   H41841352   3.079   7.018   1.979  0.4128 -1.7342  2.7039
   98MOL   H41941353   3.208   6.893   1.733 -1.7551  1.6520 -1.5472
   98MOL   H42041354   3.306   6.992   1.838  0.2862 -2.4758  0.3001
   98MOL   H42141355   3.160   7.044   1.744 -2.0017  1.0056  0.9123
   98MOL   H42241356   3.173   6.414   1.966 -0.4838 -0.1640  2.0408
   99MOL     C141357   5.146   3.732   7.599 -0.0223 -0.1717  0.5364
   99MOL     C241358   5.204   3.805   7.479  0.1243  0.1535 -0.0063
   99MOL     C341359   5.100   3.897   7.419  0.1290  0.0156  0.3522
   99MOL     C441360   5.057   4.010   7.502 -0.2317  0.6266 -0.1394
   99MOL     C541361   5.003   4.124   7.415 -0.2763 -0.3709  0.3901
   99MOL     C641362   4.939   4.249   7.484  0.0685 -0.0782  0.3242
   99MOL     C741363   4.791   4.228   7.520  0.0796  0.2368  1.0084
   99MOL     H841364   5.112   3.803   7.674 -2.3988 -1.8060  1.0563
   99MOL     H941365   5.212   3.666   7.654  0.7678  0.2785  0.1341
   99MOL    H1041366   5.280   3.875   7.515 -0.3343  1.2913 -1.1789
   99MOL    H1141367   5.146   3.957   7.340  1.4877  2.1220  2.6766
   99MOL    H1241368   5.012   3.855   7.370 -0.4460  1.6190 -0.0395
   99MOL    H1341369   4.991   3.981   7.584  3.5278 -2.0818  2.0604
   99MOL    H1441370   5.139   4.051   7.560  1.3102  0.5128 -2.2022
   99MOL    H1541371   4.933   4.078   7.345 -1.1117  0.9588  0.3298
   99MOL    H1641372   5.092   4.151   7.357  0.7440 -2.4711  0.9399
   99MOL    H1741373   4.932   4.335   7.418  1.3152  0.2352  0.5875
   99MOL    H1841374   4.998   4.267   7.574  0.7098 -0.3047 -0.0525
   99MOL    H1941375   4.797   4.157   7.602 -2.5686 -1.8469 -0.5262
   99MOL    H2041376   4.728   4.190   7.439  1.5177 -1.2424  0.5552
   99MOL    H2141377   4.744   4.321   7.550  0.8784  1.3162 -0.9888
   99MOL    H2241378   5.060   3.666   7.585  0.6549 -0.8050 -0.6799
   99MOL    C2341379   5.282   3.718   7.375 -0.3268 -0.1265 -0.3453
   99MOL    C2441380   5.397   3.786   7.298 -0.5538  0.5981 -0.0428
   99MOL    C2541381   5.420   3.712   7.165 -0.3216 -0.5713 -0.2478
   99MOL    C2641382   5.308   3.721   7.061 -0.2101 -0.2659 -0.3599
   99MOL    C2741383   5.360   3.691   6.917  0.6600 -0.1291  0.2295
   99MOL    C2841384   5.243   3.680   6.815  0.3561 -0.9370 -0.1252
   99MOL    C2941385   5.288   3.680   6.667  0.0976 -0.0426 -0.1812
   99MOL    H3041386   5.303   3.621   7.418 -2.6013 -2.1161 -3.4449
   99MOL    H3141387   5.200   3.696   7.306 -0.2675 -2.9040  0.4346
   99MOL    H3241388   5.359   3.884   7.270 -1.7570  0.6480  1.6446
   99MOL    H3341389   5.443   3.610   7.194 -0.5208 -1.0619 -1.7553
   99MOL    H3441390   5.505   3.757   7.112 -0.2937  3.7607  3.1349
   99MOL    H3541391   5.268   3.821   7.043  1.5573  0.6591  0.6227
   99MOL    H3641392   5.231   3.651   7.091  1.3368 -1.9208 -0.1819
   99MOL    H3741393   5.417   3.599   6.927  1.1991  0.0239 -1.2722
   99MOL    H3841394   5.435   3.764   6.884  1.4523 -0.9538  0.1973
   99MOL    H3941395   5.162   3.748   6.841 -0.2438 -1.3323 -0.9207
   99MOL    H4041396   5.202   3.579   6.815 -1.2348 -0.3041  0.8221
   99MOL    H4141397   5.364   3.603   6.656  0.2082 -0.2149  1.6479
   99MOL    H4241398   5.211   3.638   6.601 -0.1057 -1.2532  0.7919
   99MOL    H4341399   5.322   3.774   6.624  1.0482 -0.7856 -1.0686
   99MOL    C4441400   5.515   3.794   7.394  0.1594 -0.7342 -0.0879
   99MOL    C4541401   5.628   3.882   7.334  0.3001 -0.4336 -0.0118
   99MOL    C4641402   5.590   4.033   7.297  0.4138  0.7951 -0.4738
   99MOL    C4741403   5.514   4.112   7.405  0.1587 -0.1726 -0.8119
   99MOL    C4841404   5.528   4.262   7.389  0.3258 -0.2913 -0.5178
   99MOL    C4941405   5.466   4.342   7.506  0.3991  0.4456  0.4605
   99MOL    C5041406   5.308   4.304   7.512 -0.4277 -0.3671  0.0449
   99MOL    H5141407   5.564   3.697   7.398  0.9238 -0.3146  0.7944
   99MOL    H5241408   5.494   3.825   7.496 -3.5653 -1.4629 -0.5666
   99MOL    H5341409   5.651   3.838   7.237  1.6543 -0.0879  0.1342
   99MOL    H5441410   5.531   4.024   7.205 -0.4052  0.4534  0.0750
   99MOL    H5541411   5.680   4.088   7.268  1.8277 -1.9131 -1.3703
   99MOL    H5641412   5.410   4.080   7.400  0.3110 -0.6729 -0.9228
   99MOL    H5741413   5.546   4.075   7.502  0.1071 -1.8236 -1.3966
   99MOL    H5841414   5.481   4.287   7.294 -0.1694 -0.1993 -0.2487
   99MOL    H5941415   5.632   4.293   7.373  0.1253  0.9591  0.4918
   99MOL    H6041416   5.490   4.448   7.507 -2.5471  1.1850 -1.1922
   99MOL    H6141417   5.507   4.301   7.597  0.1484  0.9217  0.7904
   99MOL    H6241418   5.260   4.350   7.598 -2.7806  1.5554 -2.2108
   99MOL    H6341419   5.284   4.197   7.518 -0.8396 -0.2980 -0.3038
   99MOL    H6441420   5.251   4.328   7.422 -0.0571  1.8985  0.4072
   99MOL    C6541421   5.759   3.867   7.421  0.2716  0.2757  0.0598
   99MOL    C6641422   5.892   3.894   7.343  0.4643 -0.3352  0.6378
   99MOL    C6741423   5.927   3.777   7.248 -0.9665  0.8782 -0.9921
   99MOL    C6841424   5.922   3.640   7.317  0.0017  0.2397  0.2721
   99MOL    C6941425   6.011   3.531   7.265  0.8054  0.0058 -0.0464
   99MOL    C7041426   5.985   3.498   7.123 -0.2891  0.6430  0.3963
   99MOL    C7141427   6.057   3.373   7.082 -0.5233  0.3289  0.1588
   99MOL    H7241428   5.750   3.948   7.493 -1.3773 -0.8030  1.1209
   99MOL    H7341429   5.756   3.774   7.478 -0.3605  0.5001  0.3912
   99MOL    H7441430   5.882   3.991   7.296  1.0857 -0.1422  0.8920
   99MOL    H7541431   5.867   3.777   7.156 -1.0247  0.2522 -0.9554
   99MOL    H7641432   6.028   3.798   7.212  0.4124  1.6049  3.0829
   99MOL    H7741433   5.937   3.652   7.424  0.5916  0.6451  0.1442
   99MOL    H7841434   5.822   3.597   7.319  0.3371 -0.5524  0.6016
   99MOL    H7941435   6.109   3.569   7.292 -0.4524  1.0848  3.2163
   99MOL    H8041436   6.009   3.441   7.327 -0.9980 -0.2977 -0.5120
   99MOL    H8141437   6.019   3.573   7.052 -1.5055  0.3707 -0.4778
   99MOL    H8241438   5.884   3.469   7.094  0.2687  1.4384 -2.4292
   99MOL    H8341439   6.046   3.363   6.974 -0.2447  0.4599  0.1203
   99MOL    H8441440   6.161   3.375   7.111 -0.5632  0.4339  0.2935
   99MOL    H8541441   6.007   3.293   7.137  0.3391 -0.1405  0.2525
   99MOL    C8641442   6.006   3.931   7.447 -0.7860 -0.3775 -0.0591
   99MOL    C8741443   6.088   4.066   7.427  0.0408  0.3114  0.3540
   99MOL    C8841444   6.002   4.191   7.434 -0.2967  0.8429 -0.2577
   99MOL    C8941445   5.961   4.237   7.573 -0.3772 -0.1570  0.3357
   99MOL    C9041446   5.852   4.352   7.575  0.1716 -0.2792  0.2088
   99MOL    C9141447   5.825   4.399   0.009 -0.3873  0.3054 -0.2987
   99MOL    C9241448   5.725   4.513   0.028 -0.0935  0.1131 -0.2361
   99MOL    H9341449   5.964   3.935   7.548 -0.9448 -1.2249 -0.0921
   99MOL    H9441450   6.071   3.844   7.455 -0.2899  0.1341  1.5494
   99MOL    H9541451   6.118   4.061   7.323 -1.4697 -1.5411 -0.0147
   99MOL    H9641452   6.071   4.264   7.391 -0.0399  0.3526 -0.6847
   99MOL    H9741453   5.924   4.201   7.358  0.1282 -1.4236 -1.0077
   99MOL    H9841454   5.922   4.153   7.631  1.4921 -0.7412  0.7797
   99MOL    H9941455   6.053   4.273   7.621 -0.7015  0.3560  0.5813
   99MOL   H10041456   5.763   4.314   7.526 -0.1835  0.2269  0.4607
   99MOL   H10141457   5.895   4.433   7.517  0.5027  1.8648  3.3402
   99MOL   H10241458   5.804   4.315   0.075 -1.5401  0.7090 -0.1393
   99MOL   H10341459   5.921   4.429   0.051 -0.8173  1.3419 -0.0225
   99MOL   H10441460   5.727   4.539   0.134 -0.9546 -1.8779  0.2970
   99MOL   H10541461   5.628   4.469   0.006  0.8124 -2.0700  0.0313
   99MOL   H10641462   5.740   4.599   7.677  1.2302  1.0905  1.3218
   99MOL   C10741463   6.211   4.063   7.518 -0.4441 -0.6436  0.2612
   99MOL   C10841464   6.332   3.981   7.465 -0.0378 -0.2859  0.3143
   99MOL   C10941465   6.429   4.064   7.376 -0.5264  0.4088  0.4735
   99MOL   C11041466   6.509   4.171   7.464  0.2230 -0.1530  0.9342
   99MOL   C11141467   6.595   4.263   7.372  0.6901  0.0290 -0.2889
   99MOL   C11241468   6.698   4.190   7.291  0.0842 -0.4575 -0.3588
   99MOL   C11341469   6.807   4.289   7.236  0.5911  0.3240  0.7687
   99MOL   H11441470   6.187   4.028   7.619  2.5119  0.8617  1.5532
   99MOL   H11541471   6.242   4.167   7.527  0.3639 -0.5873 -2.6993
   99MOL   H11641472   6.291   3.907   7.396 -1.6819  2.1777 -1.4593
   99MOL   H11741473   6.370   4.108   7.296 -0.1756 -0.9921 -0.5830
   99MOL   H11841474   6.498   3.996   7.326 -2.9088 -0.7189 -1.3444
   99MOL   H11941475   6.447   4.226   7.534 -0.5315 -2.2022  1.9124
   99MOL   H12041476   6.575   4.110   7.526  1.9237  0.8595  0.1405
   99MOL   H12141477   6.644   4.335   7.437 -1.8549  2.4429 -0.9337
   99MOL   H12241478   6.533   4.327   7.309  1.5467  1.6465  0.4677
   99MOL   H12341479   6.748   4.119   7.357  1.7927  0.6126 -0.4874
   99MOL   H12441480   6.655   4.135   7.207  0.1370  0.9689 -1.3423
   99MOL   H12541481   6.760   4.361   7.168 -0.4281  0.8448  1.9968
   99MOL   H12641482   6.876   4.331   7.308  4.1799 -1.5044 -1.4775
   99MOL   H12741483   6.882   4.220   7.198  1.8461  0.0937  3.5660
   99MOL   C12841484   6.405   3.905   7.579  0.2182  0.2423 -0.1608
   99MOL   C12941485   6.521   3.811   7.536 -0.4567  0.1838 -0.3374
   99MOL   C13041486   6.482   3.676   7.469  0.0704 -0.3450 -0.4553
   99MOL   C13141487   6.574   3.648   7.338 -0.1355  0.1284 -0.8884
   99MOL   C13241488   6.515   3.695   7.209 -0.2544 -0.3468 -0.4681
   99MOL   C13341489   6.604   3.680   7.079  0.1206 -0.0927 -0.1153
   99MOL   C13441490   6.703   3.796   7.059  0.4598 -0.2106  0.8105
   99MOL   H13541491   6.440   3.975   7.655  1.5618  0.0179 -0.5640
   99MOL   H13641492   6.322   3.849   7.623 -2.8549  3.0280 -2.1437
   99MOL   H13741493   6.592   3.876   7.486  0.7336 -1.0117 -0.2429
   99MOL   H13841494   6.377   3.658   7.444  0.1744 -1.9405  0.1890
   99MOL   H13941495   6.497   3.592   7.536 -1.8936 -0.3752 -0.0247
   99MOL   H14041496   6.604   3.543   7.336 -0.2740  0.0854 -0.7753
   99MOL   H14141497   6.669   3.699   7.351  0.7187 -1.0535 -2.3298
   99MOL   H14241498   6.497   3.802   7.211 -1.6598 -0.5999  0.5855
   99MOL   H14341499   6.423   3.640   7.189 -0.8840  0.6499 -0.2944
   99MOL   H14441500   6.540   3.656   6.994  0.6189 -2.9715  0.2738
   99MOL   H14541501   6.661   3.589   7.092  1.6017  0.6836 -1.0289
   99MOL   H14641502   6.769   3.809   7.145  0.8299 -0.2232  0.5258
   99MOL   H14741503   6.658   3.891   7.032 -0.2257 -0.9647 -0.7528
   99MOL   H14841504   6.762   3.783   6.969 -0.5771  0.9619 -0.0574
   99MOL   C14941505   6.619   3.787   7.651  0.1250  0.0406 -0.6524
   99MOL   C15041506   6.701   3.908   7.700 -0.0658  0.1860  0.0405
   99MOL   C15141507   6.830   3.925   7.617 -0.5278 -0.0539  0.3000
   99MOL   C15241508   6.878   4.076   7.614 -0.3342  1.2077  0.3431
   99MOL   C15341509   7.008   4.085   7.527 -0.2938  0.1185 -0.3453
   99MOL   C15441510   7.130   4.138   7.603 -0.5085  0.4893  0.1444
   99MOL   C15541511   7.202   4.034   7.694  0.1435 -0.5622  0.0969
   99MOL   H15641512   6.553   3.737   0.009  0.8504 -0.5365 -0.3742
   99MOL   H15741513   6.693   3.714   7.617  1.0533  0.8171 -0.3139
   99MOL   H15841514   6.641   3.998   7.703  2.5143  2.0509 -1.5461
   99MOL   H15941515   6.912   3.856   7.639 -1.1085 -0.3455  1.5739
   99MOL   H16041516   6.816   3.897   7.512  1.7456 -2.4708  0.5826
   99MOL   H16141517   6.905   4.096   0.004 -1.2508 -1.6006  1.1892
   99MOL   H16241518   6.800   4.148   7.589 -0.2946  0.9507 -0.5672
   99MOL   H16341519   6.985   4.172   7.466 -0.7757  2.2614  2.8270
   99MOL   H16441520   7.029   4.001   7.461  0.7939  2.0849 -2.5803
   99MOL   H16541521   7.110   4.229   7.659 -0.9885  0.0600  0.6642
   99MOL   H16641522   7.203   4.164   7.526  0.0037  1.7677  1.0525
   99MOL   H16741523   7.195   3.937   7.646 -0.4558 -0.7290  0.5077
   99MOL   H16841524   7.140   4.028   0.070  0.9512  1.1944  0.8055
   99MOL   H16941525   7.304   4.065   0.002  0.6166 -1.0190 -1.4772
   99MOL   C17041526   6.732   3.888   0.133 -0.5034 -0.1278  0.0259
   99MOL   C17141527   6.620   3.883   0.238  0.4668  0.9143  0.0629
   99MOL   C17241528   6.604   3.738   0.293 -0.5572 -0.3875  0.1366
   99MOL   C17341529   6.457   3.716   0.342  0.2082  0.1571  0.0936
   99MOL   C17441530   6.438   3.568   0.383  0.5224 -0.0393 -0.2972
   99MOL   C17541531   6.292   3.522   0.418  0.3623 -0.1990  0.4541
   99MOL   C17641532   6.280   3.371   0.404 -0.0618 -0.1472 -0.1215
   99MOL   H17741533   6.801   3.971   0.154 -0.8205  0.1634 -0.0804
   99MOL   H17841534   6.808   3.812   0.149 -2.5763 -1.9483  1.4368
   99MOL   H17941535   6.532   3.899   0.177  0.8445  1.0754 -0.4392
   99MOL   H18041536   6.672   3.714   0.375  0.8491 -0.8680 -1.1352
   99MOL   H18141537   6.638   3.666   0.218  1.5607 -0.8981  1.5505
   99MOL   H18241538   6.388   3.729   0.259 -0.4090 -2.0312  0.2198
   99MOL   H18341539   6.438   3.785   0.424 -0.3003 -1.6072  1.4940
   99MOL   H18441540   6.501   3.549   0.469  1.8078  1.7375 -0.8159
   99MOL   H18541541   6.480   3.503   0.306 -0.3156 -2.8133  1.5188
   99MOL   H18641542   6.216   3.558   0.348  0.0581  0.9973  1.3830
   99MOL   H18741543   6.255   3.560   0.514 -0.6007  0.1720 -0.0557
   99MOL   H18841544   6.174   3.349   0.422 -0.0108 -1.9104 -1.8312
   99MOL   H18941545   6.335   3.313   0.478 -1.2427  0.7704  1.5059
   99MOL   H19041546   6.317   3.333   0.308  1.2196  1.3789 -0.2520
   99MOL   C19141547   6.625   3.992   0.351  0.1774 -0.5184  0.7138
   99MOL   C19241548   6.586   4.140   0.306 -0.4474 -0.2095 -0.5110
   99MOL   C19341549   6.683   4.212   0.214  0.5405 -0.2121 -0.5416
   99MOL   C19441550   6.713   4.363   0.246  0.1987 -0.1523  0.2177
   99MOL   C19541551   6.752   4.437   0.115  0.3571 -0.1275  0.1714
   99MOL   C19641552   6.623   4.481   0.032  0.0771 -0.1114  0.5137
   99MOL   C19741553   6.674   4.593   7.650  0.0275  0.8033  0.5711
   99MOL   H19841554   6.723   4.011   0.393  0.2163  2.5270 -0.6521
   99MOL   H19941555   6.566   3.951   0.432  0.2156 -0.8002  0.6013
   99MOL   H20041556   6.585   4.200   0.397 -1.2526 -0.6825 -0.1949
   99MOL   H20141557   6.657   4.193   0.110 -0.2930 -0.6780 -0.2512
   99MOL   H20241558   6.782   4.171   0.235  0.2772 -0.5537  0.0344
   99MOL   H20341559   6.802   4.359   0.310  0.7638 -2.0680 -0.6472
   99MOL   H20441560   6.633   4.408   0.305 -0.6033 -4.1817  2.3961
   99MOL   H20541561   6.807   4.531   0.125 -0.0799  0.3831 -1.9127
   99MOL   H20641562   6.816   4.374   0.053  0.2510 -0.0156 -0.0533
   99MOL   H20741563   6.548   4.538   0.086 -1.6829 -1.1655 -0.7899
   99MOL   H20841564   6.576   4.395   7.698  1.7791 -0.9788  0.3403
   99MOL   H20941565   6.708   4.687   7.694 -0.0992  2.0264 -1.8356
   99MOL   H21041566   6.595   4.620   7.580  0.7940  0.8449 -0.2941
   99MOL   H21141567   6.752   4.560   7.581  1.3759 -0.9446  2.8531
   99MOL   C21241568   6.444   4.157   0.254 -0.4669 -0.2845  0.6411
   99MOL   C21341569   6.333   4.174   0.363  0.5578 -0.1170  0.4844
   99MOL   C21441570   6.329   4.321   0.413  0.3914 -0.3280 -0.0286
   99MOL   C21541571   6.348   4.341   0.566 -0.4540  0.0112 -0.3586
   99MOL   C21641572   6.344   4.486   0.616  0.7940  0.3215 -0.0393
   99MOL   C21741573   6.391   4.516   0.757 -0.8182  0.1894 -0.4286
   99MOL   C21841574   6.545   4.523   0.785 -0.1210 -0.3044 -0.0234
   99MOL   H21941575   6.420   4.067   0.197  1.1773 -0.1688 -0.2606
   99MOL   H22041576   6.431   4.226   0.171 -1.1536 -2.9306 -1.5330
   99MOL   H22141577   6.346   4.107   0.448 -2.1726 -0.9806  0.2888
   99MOL   H22241578   6.413   4.380   0.375 -0.9613  2.5929  1.3344
   99MOL   H22341579   6.243   4.370   0.367  0.2233 -2.2106 -1.8079
   99MOL   H22441580   6.437   4.288   0.601 -1.4341 -0.8696  0.8291
   99MOL   H22541581   6.274   4.281   0.617 -1.1517 -0.1595 -1.5566
   99MOL   H22641582   6.411   4.535   0.546  0.8946  0.1349 -0.0723
   99MOL   H22741583   6.251   4.536   0.590  0.1846 -0.5254  0.4744
   99MOL   H22841584   6.358   4.618   0.777 -0.9434  0.3655 -1.4908
   99MOL   H22941585   6.353   4.442   0.827  0.9116 -0.2816  0.0378
   99MOL   H23041586   6.600   4.436   0.750 -0.6704 -0.7455  0.2070
   99MOL   H23141587   6.566   4.531   0.892  0.1069 -2.5162  0.1100
   99MOL   H23241588   6.591   4.610   0.737  0.8220 -1.1895 -0.7520
   99MOL   C23341589   6.191   4.141   0.307 -0.4808 -0.2829 -0.5060
   99MOL   C23441590   6.163   3.990   0.281  0.1466  0.3564 -0.7702
   99MOL   C23541591   6.154   3.916   0.414  0.1907  0.0228  0.5191
   99MOL   C23641592   6.037   3.944   0.498 -0.1911 -0.4983  0.0405
   99MOL   C23741593   6.035   3.861   0.625 -0.2110  0.1322  0.1827
   99MOL   C23841594   5.907   3.882   0.709  0.5225 -0.0890  0.6087
   99MOL   C23941595   5.915   3.997   0.801 -0.1802  0.1569  0.0440
   99MOL   H24041596   6.177   4.198   0.215 -1.7627  0.5598  0.1989
   99MOL   H24141597   6.107   4.177   0.365  0.5250  0.7545  0.3189
   99MOL   H24241598   6.251   3.949   0.230  0.6014  0.8636 -0.3968
   99MOL   H24341599   6.244   3.924   0.475  0.0747 -1.0304  0.8388
   99MOL   H24441600   6.155   3.809   0.394  1.4735 -0.1972  1.7066
   99MOL   H24541601   5.943   3.934   0.444 -0.7681  1.4572  0.6239
   99MOL   H24641602   6.035   4.051   0.523  0.7195 -0.6459  0.7701
   99MOL   H24741603   6.119   3.881   0.692 -0.1551  4.9796 -1.1238
   99MOL   H24841604   6.069   3.760   0.606  1.1595  0.5674  0.2487
   99MOL   H24941605   5.821   3.886   0.641  0.6674  0.6088  0.4611
   99MOL   H25041606   5.895   3.793   0.770 -1.5746 -1.8439 -2.1998
   99MOL   H25141607   5.816   4.015   0.845  0.1923  0.5160  0.7404
   99MOL   H25241608   5.980   3.969   0.883 -0.3591 -2.4219 -0.6628
   99MOL   H25341609   5.941   4.091   0.752 -2.0101 -0.3355 -1.9682
   99MOL   C25441610   6.037   3.969   0.194 -0.2516 -0.7849 -0.0713
   99MOL   C25541611   5.994   3.823   0.168  0.6800  0.2083 -0.1594
   99MOL   C25641612   6.094   3.743   0.078 -0.0559 -0.0566  0.3415
   99MOL   C25741613   6.065   3.591   0.059 -0.3728  0.3976 -0.1967
   99MOL   C25841614   6.174   3.517   7.679 -0.0646  0.8620 -0.1265
   99MOL   C25941615   6.131   3.376   7.631 -0.4039  0.3151 -0.8438
   99MOL   C26041616   6.230   3.307   7.550  0.1212  0.2258 -0.2777
   99MOL   H26141617   6.057   4.012   0.096 -0.7127 -0.1988  0.0857
   99MOL   H26241618   5.953   4.028   0.232  0.8394  1.5122 -1.0880
   99MOL   H26341619   5.986   3.781   0.268 -2.1853  0.3782 -0.2936
   99MOL   H26441620   6.185   3.759   0.135 -0.4061  1.1933  0.5660
   99MOL   H26541621   6.100   3.791   7.694  0.4504  0.2382  0.5174
   99MOL   H26641622   6.072   3.530   0.148  1.0604 -0.8511 -1.1307
   99MOL   H26741623   5.972   3.568   0.006  0.4520 -0.7315 -1.2011
   99MOL   H26841624   6.271   3.505   0.013 -1.7683 -1.4688  2.8876
   99MOL   H26941625   6.185   3.579   7.590 -0.7349  0.8218 -0.2393
   99MOL   H27041626   6.119   3.316   0.007  1.5319  1.3993  0.1652
   99MOL   H27141627   6.032   3.375   7.586 -0.8708 -0.7967  0.2010
   99MOL   H27241628   6.234   3.356   7.452 -0.6387  1.3705  0.2534
   99MOL   H27341629   6.330   3.307   7.594 -0.9397  0.2770  2.2003
   99MOL   H27441630   6.204   3.204   7.530 -0.6686  0.4688 -0.5277
   99MOL   C27541631   5.853   3.821   0.106  0.4945  0.4179  0.0726
   99MOL   C27641632   5.729   3.836   0.197  0.3748 -0.0029  0.2867
   99MOL   C27741633   5.716   3.707   0.291  0.0447  0.8051  0.0252
   99MOL   C27841634   5.702   3.571   0.215 -0.4999 -0.2890 -0.2989
   99MOL   C27941635   5.688   3.446   0.312 -0.1312  0.3189 -0.2756
   99MOL   C28041636   5.616   3.326   0.253  0.4509  0.8738 -0.1290
   99MOL   C28141637   5.613   3.208   0.351  0.7420 -0.2995 -0.0623
   99MOL   H28241638   5.830   3.730   0.051 -1.5122  1.8421 -1.4977
   99MOL   H28341639   5.855   3.906   0.039  2.6239  0.3649  0.0153
   99MOL   H28441640   5.759   3.921   0.259  1.6130  0.1010 -0.4252
   99MOL   H28541641   5.807   3.706   0.349 -1.5206 -0.3820  2.5359
   99MOL   H28641642   5.632   3.724   0.358 -2.2027 -1.5978 -2.0342
   99MOL   H28741643   5.784   3.549   0.145  0.3151  0.9998  0.2508
   99MOL   H28841644   5.614   3.572   0.150 -1.3913 -4.3016  0.6780
   99MOL   H28941645   5.628   3.473   0.399  0.7291  1.2470  0.0497
   99MOL   H29041646   5.785   3.421   0.355  0.4185  0.6063 -1.3289
   99MOL   H29141647   5.515   3.360   0.228  0.7465  0.3873 -2.0977
   99MOL   H29241648   5.667   3.298   0.161 -0.4416  0.1833 -0.4172
   99MOL   H29341649   5.539   3.135   0.317 -3.1103  2.4326  2.0285
   99MOL   H29441650   5.575   3.231   0.451 -0.6480 -0.4993 -0.5225
   99MOL   H29541651   5.709   3.158   0.344  0.2978 -1.2103  0.1989
   99MOL   C29641652   5.603   3.871   0.116  0.2068 -0.0001 -0.4980
   99MOL   C29741653   5.497   3.952   0.191 -0.3502 -0.5325  0.0528
   99MOL   C29841654   5.356   3.877   0.196 -0.2520  0.5439 -0.1277
   99MOL   C29941655   5.347   3.755   0.296  0.0117  0.0184  0.2593
   99MOL   C30041656   5.210   3.683   0.311 -0.0262  0.1808 -0.3973
   99MOL   C30141657   5.199   3.597   0.440  0.0511  0.7663  0.3948
   99MOL   C30241658   5.291   3.480   0.416 -0.4788 -0.2364  0.5171
   99MOL   H30341659   5.623   3.935   0.031  3.0551 -1.9364 -1.3576
   99MOL   H30441660   5.550   3.786   0.072 -2.1432  0.3706  1.5244
   99MOL   H30541661   5.544   3.959   0.289  0.3485 -0.6404 -0.2708
   99MOL   H30641662   5.285   3.954   0.225 -1.7494 -0.2137 -1.6449
   99MOL   H30741663   5.325   3.846   0.096 -1.1646  1.0380  0.0044
   99MOL   H30841664   5.380   3.794   0.393  2.7751 -0.2643 -0.5281
   99MOL   H30941665   5.415   3.677   0.261 -0.5676 -1.6991  2.7813
   99MOL   H31041666   5.175   3.631   0.222  0.0502  0.9455 -0.8760
   99MOL   H31141667   5.140   3.765   0.327  1.2289  1.2607 -0.3212
   99MOL   H31241668   5.221   3.664   0.524 -0.0952 -0.1995  1.2106
   99MOL   H31341669   5.095   3.566   0.451  0.2507  0.4602  1.5187
   99MOL   H31441670   5.259   3.415   0.334  2.4706 -1.5640  0.3344
   99MOL   H31541671   5.395   3.514   0.406 -0.4027 -0.8797 -1.0481
   99MOL   H31641672   5.295   3.408   0.498  1.2539 -1.4000 -0.5521
   99MOL   C31741673   5.472   4.092   0.135 -0.4469  0.6361 -0.2027
   99MOL   C31841674   5.407   4.189   0.235  0.4287 -0.6249  0.2961
   99MOL   C31941675   5.514   4.298   0.284 -0.0624  0.1779  0.3808
   99MOL   C32041676   5.632   4.241   0.364  0.1333 -0.6887  0.3977
   99MOL   C32141677   5.739   4.340   0.398  0.2256 -0.7760  0.0694
   99MOL   C32241678   5.855   4.294   0.495 -0.0030  0.1243 -0.4417
   99MOL   C32341679   5.949   4.401   0.545  0.3421 -0.5810 -0.4171
   99MOL   H32441680   5.407   4.077   0.049 -1.6625 -0.5117  0.9072
   99MOL   H32541681   5.572   4.122   0.102 -0.2515  1.0384  0.7347
   99MOL   H32641682   5.368   4.138   0.323  0.1804 -0.8714  0.0434
   99MOL   H32741683   5.481   4.379   0.349 -0.5189  0.1856  0.1373
   99MOL   H32841684   5.565   4.347   0.201  2.4050  0.1892  1.8287
   99MOL   H32941685   5.676   4.152   0.319  0.2131 -1.0864  1.2411
   99MOL   H33041686   5.591   4.193   0.453  0.8134 -0.1927  0.9776
   99MOL   H33141687   5.696   4.422   0.456 -1.5396  0.0162 -2.2828
   99MOL   H33241688   5.789   4.384   0.311  2.8293 -1.4230  1.1872
   99MOL   H33341689   5.915   4.220   0.442 -1.1340 -0.1834 -1.3105
   99MOL   H33441690   5.814   4.240   0.580  2.2932 -0.4361  0.3613
   99MOL   H33541691   5.979   4.460   0.458  0.4256  0.0345  0.0224
   99MOL   H33641692   6.038   4.378   0.602 -0.6795  1.5092  2.1412
   99MOL   H33741693   5.881   4.466   0.600 -3.0670 -0.5723 -4.3594
   99MOL   C33841694   5.288   4.259   0.167 -0.3407  0.5919 -0.0924
   99MOL   C33941695   5.181   4.329   0.259  0.2513 -0.0303  0.6631
   99MOL   C34041696   5.091   4.232   0.341 -0.7050 -0.3725 -0.0940
   99MOL   C34141697   5.013   4.120   0.266 -0.0740 -0.6564  0.3783
   99MOL   C34241698   4.924   4.047   0.373 -0.0753  0.4156 -0.4372
   99MOL   C34341699   4.825   3.945   0.319  0.8687 -0.3604 -0.0433
   99MOL   C34441700   4.774   3.863   0.433  0.6232  0.0422  0.0428
   99MOL   H34541701   5.233   4.174   0.125 -0.5318  0.6434  0.0507
   99MOL   H34641702   5.330   4.317   0.085 -0.1539 -0.1047 -0.4900
   99MOL   H34741703   5.234   4.393   0.330 -1.7758 -0.3159  2.4899
   99MOL   H34841704   5.155   4.178   0.410 -1.3118  0.3032  1.0086
   99MOL   H34941705   5.017   4.284   0.402 -1.8567 -0.5882 -1.2662
   99MOL   H35041706   5.083   4.046   0.226  1.2280  1.1003 -0.7176
   99MOL   H35141707   4.966   4.166   0.179 -0.3435 -3.5364 -1.0577
   99MOL   H35241708   4.982   3.989   0.445 -1.5061 -0.4337  0.0559
   99MOL   H35341709   4.859   4.116   0.426 -1.1383 -1.6892  1.0834
   99MOL   H35441710   4.753   4.003   0.262  0.4152 -1.1810 -0.3012
   99MOL   H35541711   4.871   3.873   0.250 -1.3122  1.5823 -3.6658
   99MOL   H35641712   4.745   3.929   0.515  1.8990  1.4410 -0.6114
   99MOL   H35741713   4.851   3.798   0.474  1.0061  1.7200  2.0729
   99MOL   H35841714   4.693   3.795   0.405  0.7052 -0.5006  1.0657
   99MOL   C35941715   5.079   4.423   0.189 -0.3458  0.4950  0.3359
   99MOL   C36041716   5.137   4.558   0.136  0.0999  0.9532  0.2643
   99MOL   C36141717   5.034   4.639   0.045 -0.3696 -0.2169 -0.5112
   99MOL   C36241718   5.021   4.567   7.628 -0.1948  0.2720  0.3629
   99MOL   C36341719   4.941   4.655   7.528  0.0678  0.3941  0.1801
   99MOL   C36441720   4.796   4.689   7.562 -0.5160  0.2379 -0.0875
   99MOL   C36541721   4.721   4.778   7.461  0.0458 -0.0405  0.2412
   99MOL   H36641722   5.000   4.454   0.257 -0.9574 -1.9284  0.7876
   99MOL   H36741723   5.030   4.372   0.107 -0.6375  0.3753  0.5844
   99MOL   H36841724   5.214   4.530   0.065  0.9376 -0.0748  1.5540
   99MOL   H36941725   4.940   4.627   0.098  0.0617 -1.0801  0.0653
   99MOL   H37041726   5.056   4.741   0.016 -0.0229 -0.1373  0.0265
   99MOL   H37141727   5.123   4.552   7.594 -0.0635 -0.5025  1.0902
   99MOL   H37241728   4.972   4.472   7.646  1.3297 -0.3818  1.1338
   99MOL   H37341729   4.995   4.750   7.519  0.5305  0.4605  2.9522
   99MOL   H37441730   4.953   4.602   7.434 -1.2657  0.5258 -0.0678
   99MOL   H37541731   4.745   4.596   7.586 -0.2390 -0.0952 -0.7998
   99MOL   H37641732   4.800   4.745   7.656 -0.6279  1.7782 -0.9751
   99MOL   H37741733   4.627   4.820   7.497  1.1183  1.0996  1.7407
   99MOL   H37841734   4.776   4.869   7.437 -0.1351 -0.3749 -1.5773
   99MOL   H37941735   4.708   4.723   7.367  0.3870 -1.9246  1.2788
   99MOL   C38041736   5.197   4.634   0.254 -0.5392 -0.0834  0.3662
   99MOL   C38141737   5.339   4.678   0.243 -0.1463 -0.1830 -0.2327
   99MOL   C38241738   5.367   4.784   0.126 -0.5137 -0.0739  0.1919
   99MOL   C38341739   5.511   4.826   0.102  0.4199 -0.9760  0.0981
   99MOL   C38441740   5.541   4.908   7.689 -0.2270 -0.8957  0.0887
   99MOL   C38541741   5.489   5.052   7.689 -0.1214  0.2562 -0.9979
   99MOL   C38641742   5.566   5.145   7.593  0.6003 -0.4668 -0.4959
   99MOL   H38741743   5.135   4.723   0.262 -0.7232 -0.1232 -0.5156
   99MOL   H38841744   5.187   4.581   0.349  1.0681 -0.2319  0.4579
   99MOL   H38941745   5.401   4.592   0.219 -2.4394 -1.3508 -2.1459
   99MOL   H39041746   5.308   4.875   0.141  0.8376  0.6791  0.9267
   99MOL   H39141747   5.330   4.742   0.032  1.5334 -0.9248 -0.2433
   99MOL   H39241748   5.554   4.862   0.196 -0.8798 -1.0940  0.7583
   99MOL   H39341749   5.558   4.729   0.085 -0.5876 -1.7757  1.6753
   99MOL   H39441750   5.649   4.908   7.697 -0.1770 -1.2468 -0.5602
   99MOL   H39541751   5.507   4.852   7.601  2.1054  1.0829 -2.1400
   99MOL   H39641752   5.501   5.104   0.071 -2.0184 -1.0593 -0.0005
   99MOL   H39741753   5.384   5.054   7.661 -0.0198  1.6322 -1.2738
   99MOL   H39841754   5.541   5.115   7.491  0.3869 -3.3496  0.3369
   99MOL   H39941755   5.674   5.150   7.603  0.5366  0.5313 -0.2400
   99MOL   H40041756   5.529   5.247   7.601  2.6996  0.2092  0.8724
   99MOL   C40141757   5.382   4.727   0.386  0.3505 -0.2003  0.3118
   99MOL   C40241758   5.435   4.616   0.490 -0.3579 -0.0269 -0.5565
   99MOL   C40341759   5.459   4.673   0.631  0.4640  0.8282 -0.0628
   99MOL   C40441760   5.559   4.580   0.709 -0.1067 -0.1353  0.2752
   99MOL   C40541761   5.473   4.489   0.798  0.4016  0.1011 -0.3531
   99MOL   C40641762   5.562   4.391   0.884  0.1323  0.0907  0.9343
   99MOL   C40741763   5.502   4.253   0.880  0.1516  0.2082 -0.1427
   99MOL   H40841764   5.301   4.792   0.419 -1.2415 -1.0114 -1.8691
   99MOL   H40941765   5.460   4.803   0.381  0.0939  0.0016 -0.8229
   99MOL   H41041766   5.528   4.582   0.446 -0.5438 -0.8414 -0.3271
   99MOL   H41141767   5.367   4.686   0.688  0.8462 -1.4872  1.1344
   99MOL   H41241768   5.504   4.770   0.609 -1.8732  1.5166 -2.0419
   99MOL   H41341769   5.626   4.635   0.775 -1.3713  1.0922  0.5724
   99MOL   H41441770   5.623   4.516   0.648 -2.8525 -1.6482 -1.1473
   99MOL   H41541771   5.414   4.543   0.871  1.4066  0.5833  0.1167
   99MOL   H41641772   5.411   4.432   0.729 -1.7370  0.5333  1.1850
   99MOL   H41741773   5.667   4.390   0.854  0.0626  2.7504  0.5068
   99MOL   H41841774   5.561   4.431   0.986  0.4095  3.3089 -0.2525
   99MOL   H41941775   5.522   4.186   0.796  0.4698 -0.5888  0.5591
   99MOL   H42041776   5.394   4.242   0.896  0.3891 -1.3203  0.5785
   99MOL   H42141777   5.542   4.201   0.968 -0.5288  0.7213  0.4775
   99MOL   H42241778   5.367   4.531   0.496  0.2943 -0.6658 -2.0931
  100MOL     C141779   0.686   4.757   7.618  0.2638  0.1256 -0.3501
  100MOL     C241780   0.541   4.722   7.587 -0.8051 -0.1299 -0.2375
  100MOL     C341781   0.536   4.594   7.506 -0.5337  0.1766  0.6734
  100MOL     C441782   0.611   4.599   7.370  0.5529 -0.6134 -0.1360
  100MOL     C541783   0.631   4.459   7.313 -0.1409 -0.4823  0.0225
  100MOL     C641784   0.689   4.462   7.168 -0.1282  0.0762 -0.4580
  100MOL     C741785   0.833   4.506   7.168 -0.1310  0.3852  0.4850
  100MOL     H841786   0.689   4.841   7.689 -0.5602 -1.2781  1.3994
  100MOL     H941787   0.742   4.794   7.532 -0.3194  3.5380  0.6700
  100MOL    H1041788   0.500   4.704   7.687 -0.9160  0.8854 -0.0937
  100MOL    H1141789   0.584   4.511   7.557 -0.6940  1.8254  3.6356
  100MOL    H1241790   0.431   4.565   7.494 -0.1018 -1.8843  1.7149
  100MOL    H1341791   0.553   4.662   7.304 -0.5281 -0.7110  0.7121
  100MOL    H1441792   0.713   4.637   7.384  0.1357  0.3639  0.3127
  100MOL    H1541793   0.530   4.416   7.316  0.2729 -1.3951  1.3446
  100MOL    H1641794   0.694   4.396   7.375  1.0692  0.3479 -0.3568
  100MOL    H1741795   0.622   4.527   7.110  0.4142  1.9912  1.0197
  100MOL    H1841796   0.702   4.368   7.115  0.3080 -0.0874 -0.0613
  100MOL    H1941797   0.873   4.524   7.068 -0.0151  0.6694  0.5843
  100MOL    H2041798   0.882   4.431   7.229  2.1699  1.8687  0.4934
  100MOL    H2141799   0.851   4.602   7.215  3.5602  0.0006  0.0128
  100MOL    H2241800   0.741   4.673   7.661 -0.9516 -1.2991 -1.5621
  100MOL    C2341801   0.463   4.834   7.524 -0.0464  0.4928 -0.1869
  100MOL    C2441802   0.312   4.820   7.502  0.0011  0.3163 -0.9626
  100MOL    C2541803   0.254   4.896   7.385 -0.1238  0.4044 -0.0808
  100MOL    C2641804   0.313   4.866   7.246 -0.3095 -0.6879 -0.5900
  100MOL    C2741805   0.221   4.903   7.133  0.0666  0.1523  0.2872
  100MOL    C2841806   0.274   4.899   6.993  0.3541  0.2538 -0.1185
  100MOL    C2941807   0.383   5.004   6.977 -0.3262  0.3819 -0.1084
  100MOL    H3041808   0.476   4.933   7.568  0.5131  0.2003  0.3218
  100MOL    H3141809   0.509   4.849   7.427  0.7896  1.0522  0.2887
  100MOL    H3241810   0.287   4.717   7.477 -1.6174  0.6043 -0.5790
  100MOL    H3341811   0.268   5.002   7.406 -1.2779  0.2397  1.6357
  100MOL    H3441812   0.148   4.875   7.377 -0.4101  1.1394  1.6330
  100MOL    H3541813   0.342   4.761   7.252 -0.0911 -0.7099 -2.0298
  100MOL    H3641814   0.406   4.924   7.244 -0.7290  0.1138  1.4773
  100MOL    H3741815   0.173   5.000   7.143  0.7704  0.7439 -1.7278
  100MOL    H3841816   0.133   4.839   7.128  0.2464 -0.0464 -0.4544
  100MOL    H3941817   0.189   4.906   6.925  1.1855 -3.3762 -1.6628
  100MOL    H4041818   0.309   4.799   6.967 -0.1596  0.2190 -0.6722
  100MOL    H4141819   0.423   4.988   6.877  1.0416  1.5485  0.2368
  100MOL    H4241820   0.351   5.107   6.990  0.8740  0.8487 -0.7325
  100MOL    H4341821   0.476   4.983   7.030 -0.6763  1.0210  0.7681
  100MOL    C4441822   0.237   4.857   7.635  0.3263  0.3706 -0.2713
  100MOL    C4541823   0.098   4.802   7.638  0.2519  0.2614  0.1590
  100MOL    C4641824   0.084   4.653   7.672 -0.5592 -0.4211 -0.0470
  100MOL    C4741825   7.672   4.588   7.612  0.3672  0.2224  0.6461
  100MOL    C4841826   7.671   4.436   7.609 -0.1221  0.6857  0.2010
  100MOL    C4941827   7.539   4.376   7.561 -0.2496  0.2723  0.5671
  100MOL    C5041828   7.551   4.234   7.516  0.4716 -0.4950 -0.6793
  100MOL    H5141829   0.223   4.965   7.632 -1.7090  0.1192 -1.2204
  100MOL    H5241830   0.289   4.836   0.015 -1.9326  0.3812  1.0528
  100MOL    H5341831   0.052   4.808   7.539 -2.3019 -1.3326  1.1687
  100MOL    H5441832   0.090   4.626   0.064  0.7551 -1.7699 -0.4436
  100MOL    H5541833   0.167   4.602   7.622 -0.8925 -0.2158 -0.8228
  100MOL    H5641834   7.589   4.638   7.663  1.3436  2.4524  0.1112
  100MOL    H5741835   7.661   4.628   7.511 -1.2936 -0.3574  0.5783
  100MOL    H5841836   7.690   4.392   7.707 -1.3695  0.6872  0.4599
  100MOL    H5941837   0.033   4.410   7.535  0.6747  3.4089  0.0081
  100MOL    H6041838   7.505   4.432   7.474  1.0579 -1.6431 -1.1905
  100MOL    H6141839   7.458   4.393   7.632 -1.3152 -2.0406 -0.0540
  100MOL    H6241840   7.608   4.210   7.426 -0.8512 -0.5554 -1.5290
  100MOL    H6341841   7.451   4.196   7.491 -0.0529 -0.3981  1.2078
  100MOL    H6441842   7.586   4.175   7.600 -0.5447  1.5824  1.2457
  100MOL    C6541843   0.012   4.871   0.029 -0.2462  0.2286  0.1100
  100MOL    C6641844   7.635   4.990   7.699 -0.6119  0.3532  0.8083
  100MOL    C6741845   7.615   5.098   0.101 -0.1739  0.6611  0.2956
  100MOL    C6841846   0.031   5.161   0.142 -0.5361  0.1971 -0.0835
  100MOL    C6941847   0.007   5.299   0.207 -0.0207  0.3940 -0.3025
  100MOL    C7041848   7.711   5.289   0.357  0.2062  0.1545  0.4139
  100MOL    C7141849   7.684   5.424   0.426 -0.4943 -0.0279 -0.3013
  100MOL    H7241850   7.665   4.793   0.074  1.2771 -1.8411 -1.3179
  100MOL    H7341851   0.070   4.892   0.118  2.6726 -1.6022 -1.2650
  100MOL    H7441852   7.690   5.040   7.619 -0.9664  1.3342  1.1733
  100MOL    H7541853   7.544   5.174   0.067 -0.1545  1.2650  1.5932
  100MOL    H7641854   7.578   5.053   0.193  1.7538  2.2836  1.9285
  100MOL    H7741855   0.096   5.106   0.210  1.5294  0.1011 -2.0282
  100MOL    H7841856   0.090   5.179   0.051 -0.9017  1.0068 -0.1693
  100MOL    H7941857   0.098   5.354   0.182 -1.1727  1.9814 -1.0885
  100MOL    H8041858   7.639   5.357   0.163 -1.5964 -1.0096  0.6986
  100MOL    H8141859   0.081   5.238   0.407  0.2201 -0.2205  0.0027
  100MOL    H8241860   7.622   5.234   0.388  1.8304 -2.2918  0.9080
  100MOL    H8341861   7.590   5.474   0.401  0.0647  0.5630 -1.2474
  100MOL    H8441862   7.672   5.405   0.533 -1.2812  1.5427 -0.1007
  100MOL    H8541863   0.055   5.490   0.409 -0.9003  0.5142 -0.2262
  100MOL    C8641864   7.504   4.946   7.632 -1.0402 -0.5036 -1.4175
  100MOL    C8741865   7.462   5.037   7.517  1.4725  0.8342 -0.1217
  100MOL    C8841866   7.507   4.988   7.372  0.2220  0.1588  0.7288
  100MOL    C8941867   7.452   4.860   7.313  0.0074  0.5434  0.3131
  100MOL    C9041868   7.542   4.811   7.196  0.5356 -0.3727 -0.0769
  100MOL    C9141869   7.482   4.706   7.101 -0.1698  0.0458 -0.6032
  100MOL    C9241870   7.567   4.678   6.979  0.1795 -0.1218 -0.2460
  100MOL    H9341871   7.510   4.847   7.588 -0.0415 -0.6967 -0.8498
  100MOL    H9441872   7.418   4.941   7.698  1.8885 -0.9558  2.5285
  100MOL    H9541873   7.503   5.136   7.534 -0.6867  1.5939  0.8605
  100MOL    H9641874   7.483   5.065   7.299 -0.5037 -1.0285 -0.3275
  100MOL    H9741875   7.615   4.974   7.369  0.2712  0.7105 -1.7187
  100MOL    H9841876   7.453   4.782   7.389 -1.5831 -0.4985 -0.7241
  100MOL    H9941877   7.349   4.882   7.287  0.2568  0.7447 -0.5181
  100MOL   H10041878   7.640   4.780   7.233  0.4551  0.8653  1.2186
  100MOL   H10141879   7.572   4.887   7.124  1.5683 -0.0353  0.6907
  100MOL   H10241880   7.453   4.622   7.165  1.0305 -0.4526 -0.7059
  100MOL   H10341881   7.382   4.740   7.073  0.5374  1.8024 -1.0705
  100MOL   H10441882   7.509   4.601   6.927  0.5431  0.3943 -1.4224
  100MOL   H10541883   7.665   4.634   6.997 -0.4762 -0.8997  1.5930
  100MOL   H10641884   7.573   4.759   6.907 -1.9592 -0.5295 -0.9214
  100MOL   C10741885   7.315   5.072   7.513  0.3947  0.4938  0.6650
  100MOL   C10841886   7.253   5.161   7.627  0.5430  0.0355 -0.1511
  100MOL   C10941887   7.304   5.305   7.625  0.0953 -0.4696  0.1163
  100MOL   C11041888   7.295   5.382   0.048 -0.0791 -0.0244  1.0968
  100MOL   C11141889   7.352   5.529   0.041  0.1353  0.4334  0.0812
  100MOL   C11241890   7.387   5.593   0.176  0.4566 -0.6884 -0.1643
  100MOL   C11341891   7.501   5.690   0.180 -0.5041  0.1562 -0.4546
  100MOL   H11441892   7.266   4.976   7.497 -2.8100  1.3884  4.3162
  100MOL   H11541893   7.292   5.118   7.417 -0.3533 -0.0067  0.6074
  100MOL   H11641894   7.281   5.117   0.010  0.3771  1.2328  0.4481
  100MOL   H11741895   7.241   5.367   7.563 -1.1728  0.0664  1.8986
  100MOL   H11841896   7.407   5.323   7.594 -0.6733  1.3182 -1.4488
  100MOL   H11941897   7.193   5.390   0.085 -0.1647 -0.6933  0.9983
  100MOL   H12041898   7.352   5.323   0.119 -0.8519 -0.6920  1.1694
  100MOL   H12141899   7.273   5.586   7.706 -2.8628 -0.4923  3.6502
  100MOL   H12241900   7.443   5.537   7.695  0.2372 -1.1099 -0.0050
  100MOL   H12341901   7.301   5.651   0.210  1.9914  1.2369  0.5209
  100MOL   H12441902   7.404   5.517   0.252  0.3095 -1.7144 -1.1365
  100MOL   H12541903   7.515   5.733   0.279  1.6300  2.4394 -1.6868
  100MOL   H12641904   7.601   5.653   0.160 -0.3448 -0.3654  1.2124
  100MOL   H12741905   7.502   5.777   0.113  1.5257  0.3667 -0.1822
  100MOL   C12841906   7.097   5.156   7.614  0.3319 -0.3530 -0.2677
  100MOL   C12941907   7.039   5.015   7.663  0.5573 -0.1284 -0.5317
  100MOL   C13041908   6.925   4.972   7.571  0.5041 -0.3380 -0.0820
  100MOL   C13141909   6.968   4.937   7.430  0.4359 -0.0218  0.4710
  100MOL   C13241910   6.858   4.848   7.355 -0.2020 -0.2500  0.3432
  100MOL   C13341911   6.914   4.828   7.211 -0.1951  0.0151  0.3535
  100MOL   C13441912   6.862   4.711   7.127  0.4129  0.0902  0.0830
  100MOL   H13541913   7.043   5.245   7.646 -0.6043 -1.4666  1.2969
  100MOL   H13641914   7.071   5.181   7.511 -1.0835  0.7160  0.3337
  100MOL   H13741915   7.104   4.929   7.667 -1.4192 -1.5857  1.8487
  100MOL   H13841916   6.843   5.041   7.553 -1.5127 -1.8618  2.8739
  100MOL   H13941917   6.886   4.888   7.628  0.9982  1.2244  2.6197
  100MOL   H14041918   7.065   4.888   7.430  1.5484  1.9724 -2.8937
  100MOL   H14141919   6.979   5.030   7.374  3.1092 -1.5214 -1.6591
  100MOL   H14241920   6.766   4.907   7.348 -0.7478 -0.8498  2.2294
  100MOL   H14341921   6.841   4.759   7.414 -0.3016  0.0560  0.7779
  100MOL   H14441922   7.022   4.822   7.201 -0.0989  0.9986  0.7054
  100MOL   H14541923   6.890   4.918   7.154 -1.3292 -0.8624 -0.5913
  100MOL   H14641924   6.894   4.712   7.023 -0.2455 -0.5786 -0.1311
  100MOL   H14741925   6.754   4.713   7.119  0.5552  0.8257 -1.7485
  100MOL   H14841926   6.881   4.614   7.173  0.5115  0.1951  0.2668
  100MOL   C14941927   6.992   5.040   0.093 -0.4774  0.1355 -0.2430
  100MOL   C15041928   6.974   4.905   0.173  0.5995 -0.1333 -0.3147
  100MOL   C15141929   6.866   4.894   0.285  0.0947 -0.4302 -0.2082
  100MOL   C15241930   6.722   4.910   0.241 -1.0188  0.4581  0.3928
  100MOL   C15341931   6.620   4.855   0.336  0.3011 -0.2979  0.1990
  100MOL   C15441932   6.478   4.899   0.317 -0.2298 -0.0644  1.4835
  100MOL   C15541933   6.372   4.813   0.397 -0.0026  0.6472 -0.5213
  100MOL   H15641934   7.052   5.115   0.143 -0.5641  1.4682 -2.1123
  100MOL   H15741935   6.896   5.090   0.080 -0.7903 -0.5952 -0.8160
  100MOL   H15841936   6.947   4.824   0.105 -0.9765  1.0430 -1.1298
  100MOL   H15941937   6.881   4.792   0.320 -0.8923 -1.1537 -1.8017
  100MOL   H16041938   6.881   4.959   0.370  2.7228  0.8403 -1.6009
  100MOL   H16141939   6.716   4.863   0.143  1.9166 -0.7471  0.7612
  100MOL   H16241940   6.709   5.017   0.222  0.9524  0.1499 -3.1787
  100MOL   H16341941   6.651   4.887   0.435  0.3979 -0.2645  0.1577
  100MOL   H16441942   6.624   4.747   0.322 -3.5755 -0.1474 -2.9982
  100MOL   H16541943   6.462   4.891   0.209 -1.8120 -1.4386  1.7991
  100MOL   H16641944   6.465   5.006   0.336  0.5796  0.3975 -0.4918
  100MOL   H16741945   6.278   4.849   0.357  0.6903  0.0263 -2.8156
  100MOL   H16841946   6.370   4.823   0.506  3.1851 -1.3499 -0.2051
  100MOL   H16941947   6.379   4.706   0.374 -1.8352  0.4279 -0.1037
  100MOL   C17041948   7.111   4.867   0.235  0.1797  1.1826 -0.1092
  100MOL   C17141949   7.143   4.713   0.239 -0.3454 -0.5333  0.4040
  100MOL   C17241950   7.215   4.659   0.114 -0.3648 -0.8425 -0.1715
  100MOL   C17341951   7.126   4.639   7.707 -0.0242 -0.2347  0.4613
  100MOL   C17441952   7.200   4.575   7.588 -0.1302 -0.1237 -0.8912
  100MOL   C17541953   7.123   4.575   7.454  0.3660 -0.3044  0.0357
  100MOL   C17641954   7.203   4.498   7.339  0.1786  0.4149 -0.6735
  100MOL   H17741955   7.109   4.904   0.338  0.7716 -2.3076  1.2130
  100MOL   H17841956   7.189   4.933   0.196 -0.7515  1.5022 -1.4681
  100MOL   H17941957   7.050   4.660   0.263 -1.2937  1.4825  1.3156
  100MOL   H18041958   7.270   4.567   0.135 -4.1360 -2.9245  1.0191
  100MOL   H18141959   7.293   4.727   0.080 -1.1982  0.2868  0.1519
  100MOL   H18241960   7.076   4.729   7.671  0.5295  1.9126  4.8245
  100MOL   H18341961   7.040   4.583   0.030 -2.3200  3.6800  1.3657
  100MOL   H18441962   7.239   4.477   7.613  0.1193  0.1580 -0.1881
  100MOL   H18541963   7.296   4.623   7.570  0.7108 -1.7363 -0.7449
  100MOL   H18641964   7.096   4.675   7.423 -0.5651 -0.5709 -0.0314
  100MOL   H18741965   7.028   4.523   7.470  1.3146 -1.0840  3.7010
  100MOL   H18841966   7.156   4.526   7.244 -0.0665 -0.9708 -0.9787
  100MOL   H18941967   7.207   4.390   7.353  1.0556  0.1738 -2.6157
  100MOL   H19041968   7.308   4.527   7.342 -0.1719  1.6760 -0.0028
  100MOL   C19141969   7.230   4.687   0.369 -0.4416 -0.0882 -0.3168
  100MOL   C19241970   7.147   4.701   0.495  0.1162  0.2339  0.4101
  100MOL   C19341971   7.057   4.574   0.507  0.0856 -0.3860 -0.1608
  100MOL   C19441972   6.985   4.569   0.645 -0.1166  1.0348  0.0868
  100MOL   C19541973   6.865   4.474   0.641 -0.2571 -0.5854 -0.0922
  100MOL   C19641974   6.880   4.321   0.617 -0.5309  0.0801  0.5229
  100MOL   C19741975   6.974   4.255   0.712 -0.1674 -0.2525 -0.1444
  100MOL   H19841976   7.303   4.768   0.361  0.3419 -0.8128 -0.4740
  100MOL   H19941977   7.287   4.595   0.358 -3.3611 -1.9619 -0.3725
  100MOL   H20041978   7.076   4.783   0.486  1.1788  1.0938 -0.2022
  100MOL   H20141979   7.114   4.483   0.487  0.8451  0.4628 -1.9951
  100MOL   H20241980   6.978   4.588   0.433  1.6652 -0.7537 -1.9540
  100MOL   H20341981   6.966   4.673   0.672  2.7211  2.3928 -2.7716
  100MOL   H20441982   7.039   4.527   0.730 -1.2865 -0.7698 -0.0392
  100MOL   H20541983   6.806   4.484   0.733  1.1617  1.1980  0.6366
  100MOL   H20641984   6.796   4.517   0.569  1.4730  0.9251 -0.8673
  100MOL   H20741985   6.918   4.310   0.516 -1.8702  1.5472 -0.1710
  100MOL   H20841986   6.779   4.280   0.620 -1.0576  1.3687  1.2564
  100MOL   H20941987   6.965   4.148   0.689 -1.4092  0.1523 -1.6503
  100MOL   H21041988   6.945   4.277   0.815 -2.2557 -0.5487 -0.6420
  100MOL   H21141989   7.077   4.289   0.710 -0.4005  0.4190 -0.7748
  100MOL   C21241990   7.236   4.724   0.617  0.4527 -0.0739 -0.0950
  100MOL   C21341991   7.326   4.847   0.608 -0.0469  0.5856  1.0514
  100MOL   C21441992   7.242   4.980   0.615 -0.1604  0.2243  0.2737
  100MOL   C21541993   7.313   5.096   0.555 -0.1529 -0.0676 -0.0795
  100MOL   C21641994   7.222   5.230   0.553  0.6455  0.1133 -0.2696
  100MOL   C21741995   7.309   5.350   0.532 -0.4381  0.2870  0.5106
  100MOL   C21841996   7.225   5.470   0.493  1.0293 -0.6049  0.0650
  100MOL   H21941997   7.300   4.637   0.632 -0.7425 -0.5203  2.6787
  100MOL   H22041998   7.180   4.728   0.710 -0.7372 -0.7682 -0.7604
  100MOL   H22141999   7.385   4.854   0.516  2.0334 -2.2877  2.1048
  100MOL   H22242000   7.156   4.970   0.550 -0.0325 -0.0043  0.1396
  100MOL   H22342001   7.206   5.004   0.715  1.7461  1.9771  0.5851
  100MOL   H22442002   7.336   5.070   0.452  0.7969 -1.1762  0.3958
  100MOL   H22542003   7.404   5.123   0.609 -0.4438  3.7060 -1.3952
  100MOL   H22642004   7.142   5.211   0.482  0.0793 -0.5020  0.5231
  100MOL   H22742005   7.165   5.255   0.643  3.1084  0.8195  1.1308
  100MOL   H22842006   7.362   5.364   0.627  1.0777  1.9816 -0.5473
  100MOL   H22942007   7.390   5.341   0.459 -1.2626 -0.7470 -0.2916
  100MOL   H23042008   7.137   5.477   0.558  1.3718 -0.2770  0.4956
  100MOL   H23142009   7.191   5.464   0.390  2.1781 -2.0627 -0.2555
  100MOL   H23242010   7.276   5.566   0.496  3.1497 -1.6867 -0.6362
  100MOL   C23342011   7.423   4.844   0.727 -0.3233  0.1653 -1.2062
  100MOL   C23442012   7.544   4.754   0.696  0.6302 -0.4561  0.2297
  100MOL   C23542013   7.644   4.839   0.608  0.6446 -0.2472 -0.1176
  100MOL   C23642014   0.066   4.772   0.573  0.2002  0.4955  0.5549
  100MOL   C23742015   0.142   4.844   0.464  0.0466 -0.0060  0.1488
  100MOL   C23842016   0.280   4.785   0.441  0.6678 -0.1696 -0.0602
  100MOL   C23942017   0.367   4.865   0.341 -0.0044 -0.0353  0.1145
  100MOL   H24042018   7.374   4.790   0.808  1.6629  0.1499  0.0107
  100MOL   H24142019   7.448   4.946   0.754 -1.1679 -0.3568  1.7031
  100MOL   H24242020   7.518   4.662   0.646  1.7482  0.5549 -2.2823
  100MOL   H24342021   7.659   4.934   0.659 -0.3571  0.2497 -0.7177
  100MOL   H24442022   7.599   4.861   0.510  0.9144 -3.8440 -1.1043
  100MOL   H24542023   0.054   4.677   0.520  1.6896  0.0645  0.9510
  100MOL   H24642024   0.133   4.732   0.650  0.3760  1.2549  0.7971
  100MOL   H24742025   0.153   4.943   0.507  1.2477 -0.5352  1.0745
  100MOL   H24842026   0.082   4.857   0.374 -0.1855  1.5210  0.5061
  100MOL   H24942027   0.333   4.799   0.535  0.4215 -0.3749  0.1103
  100MOL   H25042028   0.279   4.678   0.419  1.6175 -0.7632  2.5705
  100MOL   H25142029   0.330   4.886   0.240  0.7230  0.1396 -0.1161
  100MOL   H25242030   0.395   4.958   0.391  3.1099 -0.3514 -0.9805
  100MOL   H25342031   0.461   4.813   0.324  0.8743  1.7523 -0.6261
  100MOL   C25442032   7.614   4.717   0.837  0.2492  0.1973  0.5749
  100MOL   C25542033   7.657   4.570   0.860 -1.2692 -0.0071  0.6050
  100MOL   C25642034   7.528   4.487   0.885  0.3499 -0.6615  0.1413
  100MOL   C25742035   7.541   4.339   0.932  0.6313 -0.1835 -0.1345
  100MOL   C25842036   7.410   4.272   0.961  0.3367  0.0841  0.2681
  100MOL   C25942037   7.422   4.122   0.935 -0.0759 -0.0073 -0.2661
  100MOL   C26042038   7.295   4.052   0.940  0.6393  0.0071 -0.2785
  100MOL   H26142039   7.547   4.739   0.920  0.1555 -1.4600  0.9726
  100MOL   H26242040   7.698   4.783   0.859 -0.2486  1.7908 -2.1385
  100MOL   H26342041   7.697   4.537   0.764  0.8307  0.5948  1.2513
  100MOL   H26442042   7.455   4.480   0.804  3.1004 -3.5473 -2.1934
  100MOL   H26542043   7.469   4.539   0.960  1.1815  0.9141 -0.2789
  100MOL   H26642044   7.593   4.278   0.859 -1.4320 -1.1080 -0.8885
  100MOL   H26742045   7.587   4.328   1.030 -0.1246 -0.0178  0.2455
  100MOL   H26842046   7.322   4.311   0.909 -0.0248 -2.2724 -0.9793
  100MOL   H26942047   7.379   4.291   1.064 -2.6612  0.8565 -0.7142
  100MOL   H27042048   7.463   4.099   0.837 -2.4987  3.2766 -2.1537
  100MOL   H27142049   7.487   4.072   1.007  1.0949  1.0847 -0.5476
  100MOL   H27242050   7.289   3.953   0.896  1.5494 -1.2491  2.3621
  100MOL   H27342051   7.266   4.040   1.044  2.2619 -1.7640 -0.0118
  100MOL   H27442052   7.216   4.114   0.897 -3.2475 -3.1844  1.9377
  100MOL   C27542053   0.048   4.555   0.978  0.4239  0.2440  0.7443
  100MOL   C27642054   0.195   4.551   0.932  0.5534 -0.3162 -0.8224
  100MOL   C27742055   0.244   4.412   0.874  0.4255 -0.2920 -0.4747
  100MOL   C27842056   0.384   4.409   0.817 -0.5027  0.5511 -0.0832
  100MOL   C27942057   0.395   4.465   0.674 -0.4077 -0.7329 -0.2053
  100MOL   C28042058   0.543   4.468   0.635 -0.3444 -0.4847  0.1044
  100MOL   C28142059   0.561   4.521   0.496 -0.8550 -0.0840 -0.1953
  100MOL   H28242060   0.028   4.462   1.030 -0.4588 -0.2274 -0.4089
  100MOL   H28342061   0.023   4.629   1.054 -0.1432 -0.4622  1.2479
  100MOL   H28442062   0.198   4.626   0.853  0.7452 -0.3763 -0.8718
  100MOL   H28542063   0.232   4.339   0.954 -2.2945 -0.8569 -1.3551
  100MOL   H28642064   0.173   4.394   0.793 -0.4409  0.3735  0.1327
  100MOL   H28742065   0.413   4.304   0.825  1.1091  1.1160  2.2320
  100MOL   H28842066   0.455   4.458   0.884 -0.6265 -1.6298  1.7014
  100MOL   H28942067   0.371   4.571   0.665  1.5287 -0.0639  1.9710
  100MOL   H29042068   0.340   4.401   0.605 -0.2896 -0.0505 -0.9374
  100MOL   H29142069   0.587   4.539   0.706 -2.0179  1.4060 -0.7215
  100MOL   H29242070   0.586   4.368   0.641  0.4688 -0.2585 -1.6016
  100MOL   H29342071   0.661   4.535   0.456 -1.9226 -0.3273 -3.1074
  100MOL   H29442072   0.506   4.613   0.478 -0.3249  0.3014  0.1658
  100MOL   H29542073   0.522   4.454   0.419 -1.4045  0.7978 -0.7032
  100MOL   C29642074   0.281   4.596   1.054  0.0109  0.0305  0.5860
  100MOL   C29742075   0.283   4.739   1.099  0.4025 -0.6933 -0.1381
  100MOL   C29842076   0.309   4.834   0.973 -0.1271  0.1412  0.0008
  100MOL   C29942077   0.439   4.799   0.900 -0.2810  0.0389 -0.1859
  100MOL   C30042078   0.465   4.907   0.807  0.0466 -0.4475 -0.2941
  100MOL   C30142079   0.585   4.876   0.710  0.3772  0.0158 -0.1612
  100MOL   C30242080   0.608   4.994   0.617  0.2431  0.6391  0.5098
  100MOL   H30342081   0.249   4.536   1.140  2.4149 -2.5746 -0.2606
  100MOL   H30442082   0.385   4.565   1.052  0.0748  0.2783  0.0771
  100MOL   H30542083   0.187   4.771   1.138  0.3512  0.0342 -0.8612
  100MOL   H30642084   0.220   4.830   0.911 -0.0645  0.5229 -0.1093
  100MOL   H30742085   0.319   4.933   1.016  0.4836  0.3185 -0.5367
  100MOL   H30842086   0.428   4.705   0.846 -2.2828  1.3094 -2.1142
  100MOL   H30942087   0.521   4.779   0.969  0.3068 -2.5657 -1.5678
  100MOL   H31042088   0.479   5.002   0.859  2.6603 -0.8092 -0.2978
  100MOL   H31142089   0.384   4.925   0.737  0.9667  1.3086 -0.9399
  100MOL   H31242090   0.678   4.844   0.757  1.6405  1.1984 -1.7806
  100MOL   H31342091   0.560   4.787   0.652  1.3819 -0.5946  0.3251
  100MOL   H31442092   0.654   5.077   0.670  0.7259 -0.5101  1.9372
  100MOL   H31542093   0.690   4.964   0.551 -0.2368  1.8069 -0.6309
  100MOL   H31642094   0.523   5.025   0.557  0.4682 -0.4288 -0.3823
  100MOL   C31742095   0.381   4.757   1.215 -0.2401 -0.1964 -0.7937
  100MOL   C31842096   0.383   4.894   1.288 -0.2675 -0.6803  0.8837
  100MOL   C31942097   0.255   4.930   1.355 -0.2178  0.6790 -0.1423
  100MOL   C32042098   0.228   5.086   1.366 -0.5163 -0.1673 -0.2818
  100MOL   C32142099   0.086   5.109   1.424  0.5123 -0.1727  0.2990
  100MOL   C32242100   0.038   5.256   1.452 -0.2759 -0.1777 -0.1359
  100MOL   C32342101   0.076   5.346   1.329 -0.0119  0.6798  0.0445
  100MOL   H32442102   0.486   4.740   1.190  0.1123  1.4198 -0.4920
  100MOL   H32542103   0.352   4.686   1.292  0.2831  0.2407 -0.1841
  100MOL   H32642104   0.389   4.968   1.208  0.8614 -2.7891 -1.0219
  100MOL   H32742105   0.244   4.877   1.450 -0.8209  0.9053 -0.0799
  100MOL   H32842106   0.174   4.886   1.297 -0.2261  1.5669 -0.8077
  100MOL   H32942107   0.230   5.120   1.263  0.1447  0.0495 -0.2027
  100MOL   H33042108   0.313   5.130   1.418  1.3548 -2.3157 -1.4523
  100MOL   H33142109   0.062   5.054   1.514 -0.3564  0.9167  0.7432
  100MOL   H33242110   0.028   5.063   1.344 -2.9388  1.4727  1.7418
  100MOL   H33342111   0.074   5.281   1.552 -0.3438 -0.8392  0.0498
  100MOL   H33442112   7.646   5.277   1.467  0.4216  0.9655  3.9956
  100MOL   H33542113   0.023   5.324   1.237  0.7926 -0.4210 -0.1744
  100MOL   H33642114   0.182   5.339   1.305  0.0719  2.6141 -0.2219
  100MOL   H33742115   0.059   5.452   1.348  0.3493  1.2712 -2.7529
  100MOL   C33842116   0.503   4.906   1.382  0.6615 -0.1894 -0.2396
  100MOL   C33942117   0.653   4.889   1.336  0.2497 -0.3900 -0.5820
  100MOL   C34042118   0.739   4.892   1.462  0.4545  0.7839 -0.1968
  100MOL   C34142119   0.864   4.796   1.480 -0.0391 -0.4077  0.7098
  100MOL   C34242120   0.954   4.837   1.596 -0.3520  0.1205 -0.1974
  100MOL   C34342121   1.064   4.733   1.627  0.3263 -0.0048 -0.3475
  100MOL   C34442122   1.158   4.690   1.507  0.3464 -0.2579  0.0373
  100MOL   H34542123   0.488   4.846   1.472  1.3949 -0.1286 -0.0733
  100MOL   H34642124   0.495   5.007   1.423 -0.4040 -0.6911  0.7992
  100MOL   H34742125   0.669   4.786   1.303 -2.5435 -0.1819 -2.8410
  100MOL   H34842126   0.773   4.994   1.476 -0.7649  0.9932  1.3642
  100MOL   H34942127   0.689   4.890   1.559 -0.2657  4.9446 -0.4182
  100MOL   H35042128   0.905   4.789   1.379  1.3432  2.6644  1.0150
  100MOL   H35142129   0.824   4.696   1.500  2.6735 -1.5130  0.8479
  100MOL   H35242130   0.995   4.936   1.581  1.3432 -0.4848  0.3344
  100MOL   H35342131   0.900   4.846   1.691  0.2388 -1.4915  0.3115
  100MOL   H35442132   1.126   4.767   1.710 -1.5386 -1.8252  1.8683
  100MOL   H35542133   1.009   4.640   1.646 -1.5221  1.3054  0.8512
  100MOL   H35642134   1.191   4.780   1.455 -0.6107  1.5512  2.4609
  100MOL   H35742135   1.103   4.626   1.438  0.6564 -1.4150  0.8410
  100MOL   H35842136   1.244   4.633   1.543 -0.2225 -0.0961  1.7059
  100MOL   C35942137   0.685   4.994   1.228  0.1782  0.3456  0.4126
  100MOL   C36042138   0.821   4.991   1.160 -0.5177  0.9350 -0.1955
  100MOL   C36142139   0.816   5.062   1.019  0.2387  0.6436 -0.5115
  100MOL   C36242140   0.781   5.211   1.014 -0.1957  0.2075  0.0358
  100MOL   C36342141   0.755   5.256   0.867 -0.1322 -0.1395 -0.4046
  100MOL   C36442142   0.758   5.411   0.868 -0.4565  0.9096 -0.5347
  100MOL   C36542143   0.700   5.481   0.742  0.5574 -0.6311 -0.1367
  100MOL   H36642144   0.662   5.099   1.247 -2.8505  0.0210 -1.1951
  100MOL   H36742145   0.620   4.970   1.144 -0.4330 -1.5834  1.3990
  100MOL   H36842146   0.856   4.888   1.158 -0.9863  0.7696 -0.0047
  100MOL   H36942147   0.914   5.053   0.975  0.0324  0.1702 -0.8761
  100MOL   H37042148   0.747   5.002   0.959 -1.0534  0.8219  0.7568
  100MOL   H37142149   0.685   5.222   1.064 -0.9863  0.4061 -1.4917
  100MOL   H37242150   0.846   5.289   1.055 -1.2085  0.7534  0.6216
  100MOL   H37342151   0.837   5.227   0.800  0.9882  0.4693  0.6949
  100MOL   H37442152   0.659   5.222   0.828  0.3748 -1.0780 -0.8522
  100MOL   H37542153   0.691   5.435   0.950  0.4524 -1.0904  0.8157
  100MOL   H37642154   0.863   5.433   0.882 -0.4425  0.3421  0.3000
  100MOL   H37742155   0.703   5.587   0.765 -0.1306 -0.0761 -2.4868
  100MOL   H37842156   0.759   5.473   0.651  1.7637  0.1327  0.5742
  100MOL   H37942157   0.598   5.454   0.712  0.5663 -2.1134  1.0719
  100MOL   C38042158   0.923   5.075   1.240  0.3781  0.5845 -0.1889
  100MOL   C38142159   1.070   5.075   1.191  0.0133  0.0534 -0.4304
  100MOL   C38242160   1.160   5.158   1.287 -0.1741 -0.7456  0.1866
  100MOL   C38342161   1.137   5.313   1.276 -0.2031 -0.8858 -0.1129
  100MOL   C38442162   1.234   5.387   1.374  0.2490  0.4539  0.5537
  100MOL   C38542163   1.389   5.396   1.338  0.4422 -0.4809  0.2806
  100MOL   C38642164   1.463   5.470   1.447 -0.0616 -0.0105 -0.1295
  100MOL   H38742165   0.877   5.173   1.253  0.1191  0.2724  1.4085
  100MOL   H38842166   0.934   5.027   1.338 -0.7121 -0.4498 -0.5542
  100MOL   H38942167   1.091   5.100   1.087  3.5644 -0.2790  0.1298
  100MOL   H39042168   1.268   5.139   1.292  0.4032  2.7980  2.8742
  100MOL   H39142169   1.133   5.133   1.390 -1.0639  0.5047  0.2603
  100MOL   H39242170   1.167   5.346   1.177  1.6513 -2.1377  0.0130
  100MOL   H39342171   1.031   5.328   1.300 -0.3327  0.4681 -1.4929
  100MOL   H39442172   1.199   5.490   1.381  1.1125  0.9058 -1.4482
  100MOL   H39542173   1.227   5.338   1.471 -3.5811 -2.3098 -0.9872
  100MOL   H39642174   1.417   5.449   1.248 -0.8891 -0.1697  0.0366
  100MOL   H39742175   1.439   5.300   1.322  1.8361 -0.0291  1.8003
  100MOL   H39842176   1.439   5.435   1.548  0.0132  2.2684  0.7091
  100MOL   H39942177   1.434   5.575   1.455 -2.8512 -0.6441 -1.2537
  100MOL   H40042178   1.570   5.477   1.427 -0.2804  0.4755 -1.1485
  100MOL   C40142179   1.123   4.926   1.192  0.8738  0.4800  0.1378
  100MOL   C40242180   1.272   4.902   1.164  0.8589 -0.2997 -0.0444
  100MOL   C40342181   1.289   4.757   1.115 -0.4722  0.0307  0.0870
  100MOL   C40442182   1.420   4.735   1.047 -0.2026  0.3934  0.1158
  100MOL   C40542183   1.536   4.719   1.144 -0.3006  0.2085  0.2028
  100MOL   C40642184   1.666   4.706   1.061  0.7254 -0.7770  0.3643
  100MOL   C40742185   1.791   4.668   1.140 -0.2055 -0.2312  0.6821
  100MOL   H40842186   1.064   4.876   1.116  0.6087 -1.9023  1.8454
  100MOL   H40942187   1.087   4.865   1.275 -2.4345  0.6247 -1.1231
  100MOL   H41042188   1.332   4.923   1.253 -1.0022 -1.0653  1.4334
  100MOL   H41142189   1.213   4.738   1.039 -1.8482 -0.2122  1.4754
  100MOL   H41242190   1.273   4.680   1.191 -0.6883 -1.1275 -1.1207
  100MOL   H41342191   1.445   4.813   0.974  4.2176 -0.2215  0.8379
  100MOL   H41442192   1.402   4.643   0.991  2.4068  0.5018 -1.0056
  100MOL   H41542193   1.555   4.809   1.203  0.0320 -1.0115  2.0012
  100MOL   H41642194   1.525   4.626   1.200  1.1463  0.0603  0.2620
  100MOL   H41742195   1.657   4.626   0.987  1.9756  1.0940 -1.9141
  100MOL   H41842196   1.676   4.798   1.004 -0.0388 -0.9154 -0.0038
  100MOL   H41942197   1.849   4.606   1.073 -1.8529 -2.4715  1.2772
  100MOL   H42042198   1.771   4.602   1.224  2.3411 -1.6539  0.2167
  100MOL   H42142199   1.837   4.757   1.183 -1.9150  0.4351  1.1936
  100MOL   H42242200   1.295   4.977   1.088 -1.2450 -0.0873 -0.5236
  101MOL     C142201   0.846   5.650   4.242  0.5350 -0.0748  0.7583
  101MOL     C242202   0.864   5.767   4.147 -0.5906 -0.0735  0.5612
  101MOL     C342203   0.732   5.785   4.065  0.5204  0.7113 -0.2487
  101MOL     C442204   0.699   5.668   3.978  0.2927 -0.4025 -0.3709
  101MOL     C542205   0.605   5.706   3.862 -0.8376 -0.4874  0.1692
  101MOL     C642206   0.456   5.736   3.893 -0.8432  0.6063  0.1624
  101MOL     C742207   0.382   5.803   3.780 -0.6714  0.1100 -0.0889
  101MOL     H842208   0.839   5.551   4.199 -1.3739  0.2144  0.3501
  101MOL     H942209   0.748   5.659   4.289  0.3468  2.6218 -0.0314
  101MOL    H1042210   0.873   5.853   4.213 -0.3319 -2.3432  3.5927
  101MOL    H1142211   0.644   5.806   4.125  0.5712  0.9848 -0.2712
  101MOL    H1242212   0.734   5.872   4.000  3.6185  1.3220  0.5762
  101MOL    H1342213   0.794   5.630   3.941 -0.1352 -2.4393  0.5488
  101MOL    H1442214   0.648   5.589   4.032  0.6428 -0.3911 -0.0252
  101MOL    H1542215   0.612   5.621   3.794  0.1062  1.0635 -1.7383
  101MOL    H1642216   0.642   5.792   3.807  0.1859  0.3454  2.1167
  101MOL    H1742217   0.457   5.812   3.970 -1.0821 -1.0268  1.8208
  101MOL    H1842218   0.396   5.649   3.918 -1.5551  0.4664 -1.9204
  101MOL    H1942219   0.408   5.908   3.770  1.1356 -0.2054  1.0615
  101MOL    H2042220   0.276   5.792   3.804 -0.5987  1.2832  0.8125
  101MOL    H2142221   0.403   5.760   3.682  0.6683  1.0330 -0.2160
  101MOL    H2242222   0.906   5.650   4.333 -1.7546  2.5058  2.3506
  101MOL    C2342223   0.991   5.767   4.057  0.2069 -1.0658  0.5689
  101MOL    C2442224   1.114   5.830   4.119 -0.2115  0.4363 -0.5357
  101MOL    C2542225   1.116   5.989   4.106  0.4142  0.4382 -0.0045
  101MOL    C2642226   1.230   6.066   4.179  0.2763 -0.2700 -0.0199
  101MOL    C2742227   1.199   6.211   4.224 -0.8601  0.5619  0.3051
  101MOL    C2842228   1.162   6.298   4.107  0.7196 -0.6830 -0.3145
  101MOL    C2942229   1.185   6.452   4.135 -0.1468 -0.3475 -0.1029
  101MOL    H3042230   1.012   5.666   4.020  0.3185 -0.9121  0.2179
  101MOL    H3142231   0.977   5.817   3.962  0.5957 -0.2813  0.9251
  101MOL    H3242232   1.109   5.803   4.224  1.6642 -2.0541 -1.0380
  101MOL    H3342233   1.020   6.020   4.148 -0.0827 -1.4475  0.3284
  101MOL    H3442234   1.115   6.007   3.999 -0.7922  0.0533 -0.0662
  101MOL    H3542235   1.317   6.060   4.113 -0.2994  0.8715 -0.8908
  101MOL    H3642236   1.258   6.007   4.266 -0.4947 -0.0862  0.3600
  101MOL    H3742237   1.281   6.249   4.285 -1.2373  0.3954  0.9326
  101MOL    H3842238   1.108   6.211   4.285 -1.3183 -2.2414 -0.3437
  101MOL    H3942239   1.063   6.277   4.067  1.3266 -0.8405 -1.7630
  101MOL    H4042240   1.223   6.274   4.020  1.6527 -0.9056  0.3846
  101MOL    H4142241   1.283   6.477   4.176 -0.3358 -0.7331  0.5829
  101MOL    H4242242   1.172   6.508   4.042 -0.7668  1.0821  0.8467
  101MOL    H4342243   1.113   6.479   4.212 -1.0182 -2.1273 -0.2721
  101MOL    C4442244   1.239   5.764   4.058  0.1209  0.1111  1.1292
  101MOL    C4542245   1.263   5.612   4.083  0.4984  0.2307  0.0333
  101MOL    C4642246   1.350   5.540   3.974  0.5174 -0.5515  0.4460
  101MOL    C4742247   1.276   5.511   3.843 -0.2082 -0.3683 -0.6860
  101MOL    C4842248   1.355   5.423   3.749  0.1710 -0.4646  0.2837
  101MOL    C4942249   1.338   5.453   3.602 -0.3770 -0.5772 -0.4002
  101MOL    C5042250   1.434   5.361   3.530 -0.2503  0.2590  0.4680
  101MOL    H5142251   1.322   5.824   4.096 -0.8362  3.3593 -1.6274
  101MOL    H5242252   1.235   5.784   3.951 -1.6146  1.0488  1.3659
  101MOL    H5342253   1.169   5.557   4.083 -0.5179  1.9185  1.5094
  101MOL    H5442254   1.394   5.453   4.024 -1.1040 -0.8136  1.4589
  101MOL    H5542255   1.445   5.588   3.951 -0.9419  1.8697 -0.7530
  101MOL    H5642256   1.177   5.468   3.853 -1.3574  2.1007 -0.9615
  101MOL    H5742257   1.267   5.610   3.797  4.0366  0.6209  0.3201
  101MOL    H5842258   1.330   5.318   3.760 -1.5666  0.0001  0.8843
  101MOL    H5942259   1.460   5.435   3.777  0.7769  1.0842 -2.3673
  101MOL    H6042260   1.371   5.555   3.584 -2.2616  0.0195 -0.5290
  101MOL    H6142261   1.241   5.439   3.553  0.2370  1.8462 -2.4237
  101MOL    H6242262   1.449   5.387   3.426  0.7120  0.3858  0.6362
  101MOL    H6342263   1.380   5.266   3.534  1.9799 -1.0584 -0.1157
  101MOL    H6442264   1.535   5.354   3.569 -0.0199  0.3025 -0.1240
  101MOL    C6542265   1.336   5.587   4.215  0.1867 -0.1395 -0.0298
  101MOL    C6642266   1.310   5.440   4.268 -0.1365 -0.7728 -0.3924
  101MOL    C6742267   1.181   5.443   4.357  0.6323  0.2818  0.5797
  101MOL    C6842268   1.086   5.324   4.353 -0.4512 -0.0179  0.0083
  101MOL    C6942269   0.963   5.337   4.445 -0.0748 -0.6837  0.6286
  101MOL    C7042270   0.897   5.194   4.443  0.1095 -0.4099 -0.0667
  101MOL    C7142271   0.779   5.188   4.536  0.4701 -0.3234  0.5716
  101MOL    H7242272   1.443   5.609   4.208  0.0882  0.2570 -0.2996
  101MOL    H7342273   1.292   5.661   4.281  4.4183 -0.5472  3.4812
  101MOL    H7442274   1.300   5.360   4.195  0.8550 -1.9392  0.7348
  101MOL    H7542275   1.215   5.450   4.461  0.5888 -2.6696  0.8315
  101MOL    H7642276   1.117   5.529   4.338  0.1972  0.0748  1.0944
  101MOL    H7742277   1.065   5.313   4.246  1.5807 -0.6206 -0.3466
  101MOL    H7842278   1.134   5.231   4.383  0.9372  0.5944 -0.3004
  101MOL    H7942279   0.997   5.365   4.545 -2.1702 -0.2847  1.2701
  101MOL    H8042280   0.896   5.415   4.411  0.5759 -0.9803 -1.3722
  101MOL    H8142281   0.972   5.120   4.470  0.3469 -0.5177 -0.9868
  101MOL    H8242282   0.859   5.173   4.343  1.7645  0.1126 -0.8385
  101MOL    H8342283   0.708   5.268   4.515  1.9615  1.2978  1.6192
  101MOL    H8442284   0.724   5.095   4.527 -0.2587 -0.2030  3.2803
  101MOL    H8542285   0.806   5.207   4.640  0.6551 -0.3020  0.5193
  101MOL    C8642286   1.436   5.407   4.353  0.8323 -0.5209  0.3853
  101MOL    C8742287   1.456   5.257   4.398 -0.0929 -0.2602 -0.2594
  101MOL    C8842288   1.463   5.160   4.282  0.5087  0.0932 -1.1246
  101MOL    C8942289   1.569   5.193   4.172 -0.0943  0.3210 -1.3283
  101MOL    C9042290   1.596   5.062   4.091 -0.0730 -0.2232 -0.3668
  101MOL    C9142291   1.690   5.084   3.972 -0.4090 -0.6291  0.0794
  101MOL    C9242292   1.638   5.181   3.868  0.0386 -0.2528  0.2102
  101MOL    H9342293   1.528   5.448   4.312 -0.2608 -0.7689 -2.4419
  101MOL    H9442294   1.435   5.469   4.442 -1.4778 -1.3954  1.0185
  101MOL    H9542295   1.369   5.233   4.458 -0.0968 -0.3221 -0.2896
  101MOL    H9642296   1.485   5.061   4.321  2.6975  0.8721 -0.3184
  101MOL    H9742297   1.364   5.155   4.237  0.9377 -2.3593 -1.8716
  101MOL    H9842298   1.538   5.269   4.101 -0.9843  1.1558 -0.0574
  101MOL    H9942299   1.665   5.225   4.213  0.0644  0.5939 -1.9130
  101MOL   H10042300   1.504   5.020   4.052  0.8226 -0.8777 -1.8245
  101MOL   H10142301   1.645   4.987   4.154 -1.7364  0.0725  1.3229
  101MOL   H10242302   1.788   5.115   4.008  0.3080 -0.1573 -2.1963
  101MOL   H10342303   1.708   4.994   3.913  2.2768 -1.6709  2.3412
  101MOL   H10442304   1.619   5.281   3.907 -3.7677 -0.4060 -1.0028
  101MOL   H10542305   1.538   5.139   3.852 -0.1067 -0.2166  0.9672
  101MOL   H10642306   1.691   5.188   3.773 -1.3462 -0.6273 -0.6034
  101MOL   C10742307   1.585   5.242   4.489  0.1671  0.0331  0.0150
  101MOL   C10842308   1.580   5.312   4.629 -0.8318  0.2398 -0.0924
  101MOL   C10942309   1.446   5.282   4.706  0.5991  0.3026  0.1144
  101MOL   C11042310   1.447   5.290   4.862  0.0959  0.0625  0.4684
  101MOL   C11142311   1.296   5.284   4.931 -0.0227  0.5761 -0.3086
  101MOL   C11242312   1.206   5.392   4.872  0.8051 -0.3973 -0.6159
  101MOL   C11342313   1.070   5.399   4.953 -0.4086 -0.1381  0.9143
  101MOL   H11442314   1.678   5.273   4.440 -0.1386  0.9392  0.0081
  101MOL   H11542315   1.597   5.135   4.505  2.0063  0.5428  2.3531
  101MOL   H11642316   1.571   5.418   4.604 -2.3310 -0.1944 -1.4773
  101MOL   H11742317   1.421   5.182   4.668 -1.8827  0.8136  0.3114
  101MOL   H11842318   1.364   5.345   4.671 -0.3454  0.3066  2.2556
  101MOL   H11942319   1.506   5.214   4.912 -0.1153  0.6915  1.6818
  101MOL   H12042320   1.489   5.384   4.897  1.1275 -0.2265  0.0310
  101MOL   H12142321   1.297   5.304   5.038 -0.3917 -0.5243 -0.0911
  101MOL   H12242322   1.249   5.188   4.912  0.1350  0.5910 -0.7897
  101MOL   H12342323   1.254   5.489   4.875  0.0795 -0.0279 -0.9106
  101MOL   H12442324   1.186   5.363   4.769  1.1375  2.0911 -1.3933
  101MOL   H12542325   0.995   5.453   4.895  1.5345  1.1330 -0.4495
  101MOL   H12642326   1.026   5.299   4.955 -0.2507 -0.3009 -1.8897
  101MOL   H12742327   1.071   5.449   5.050  1.5782 -0.1987  0.9432
  101MOL   C12842328   1.708   5.292   4.724 -0.0799  0.1950 -0.5682
  101MOL   C12942329   1.854   5.281   4.665 -0.4382 -0.2685  0.1784
  101MOL   C13042330   1.951   5.225   4.776  0.1730  0.7078  0.2963
  101MOL   C13142331   1.961   5.312   4.908  0.4347 -0.1897 -0.7525
  101MOL   C13242332   2.045   5.245   5.022 -0.5966  0.6177  0.2196
  101MOL   C13342333   2.070   5.330   5.148  0.3250 -0.1017 -0.0167
  101MOL   C13442334   2.132   5.243   5.262 -0.1890 -0.0026 -0.2416
  101MOL   H13542335   1.705   5.375   4.795  0.2044  0.2354 -0.6023
  101MOL   H13642336   1.693   5.207   4.790 -1.9032  0.0678 -1.1332
  101MOL   H13742337   1.854   5.210   4.582 -1.5846  1.6175 -1.4749
  101MOL   H13842338   2.054   5.214   4.742  0.7635  1.9099  1.6340
  101MOL   H13942339   1.919   5.123   4.800 -0.9203  0.4242 -2.1673
  101MOL   H14042340   1.862   5.323   4.953  1.1907  0.2527  0.8471
  101MOL   H14142341   1.997   5.408   4.870 -0.8729  1.0212  1.0216
  101MOL   H14242342   2.140   5.214   4.981  0.1227  1.4539  1.2298
  101MOL   H14342343   1.989   5.154   5.043 -0.4566  0.5655  0.3621
  101MOL   H14442344   1.977   5.378   5.179  0.8460  0.3527  0.8524
  101MOL   H14542345   2.136   5.414   5.127 -1.9227  1.8555  0.4454
  101MOL   H14642346   2.064   5.164   5.295 -0.0409 -0.5153 -1.1593
  101MOL   H14742347   2.164   5.299   5.350  0.4073  0.2710 -0.6297
  101MOL   H14842348   2.223   5.195   5.226 -0.2369  0.1159 -0.5261
  101MOL   C14942349   1.901   5.414   4.598 -0.1347 -0.0742  0.1516
  101MOL   C15042350   2.024   5.402   4.513  0.7103 -0.3642  0.2889
  101MOL   C15142351   2.104   5.530   4.510  0.0156  0.2226  0.2038
  101MOL   C15242352   2.151   5.584   4.647  0.5482  0.1528  0.4489
  101MOL   C15342353   2.237   5.709   4.632  1.0476 -0.1198  0.1391
  101MOL   C15442354   2.258   5.778   4.771 -0.0465 -0.0546 -0.0105
  101MOL   C15542355   2.307   5.926   4.764 -0.2816 -0.1930  0.0862
  101MOL   H15642356   1.822   5.458   4.536 -0.8193 -0.4352  0.7524
  101MOL   H15742357   1.914   5.484   4.680 -1.3507  0.4342 -0.0734
  101MOL   H15842358   2.084   5.321   4.554  1.2222 -0.2991 -0.3321
  101MOL   H15942359   2.189   5.505   4.445  0.1479 -1.6632  1.0563
  101MOL   H16042360   2.044   5.604   4.458 -0.2553  0.3255  0.6609
  101MOL   H16142361   2.196   5.505   4.706 -2.0335 -0.5438  1.5359
  101MOL   H16242362   2.066   5.614   4.709 -0.0708 -0.2371 -0.1983
  101MOL   H16342363   2.190   5.783   4.568  0.2348  0.2833  1.1951
  101MOL   H16442364   2.332   5.685   4.583  1.1646  0.6986 -0.0324
  101MOL   H16542365   2.319   5.713   4.835 -0.7046  0.1659  0.8421
  101MOL   H16642366   2.167   5.773   4.831 -2.3655 -0.8275 -3.4492
  101MOL   H16742367   2.231   5.987   4.715 -1.7100 -0.5660  1.7916
  101MOL   H16842368   2.395   5.927   4.700 -0.0122 -1.8792  0.4094
  101MOL   H16942369   2.339   5.968   4.859 -0.4717 -0.5207  0.2979
  101MOL   C17042370   1.995   5.344   4.366  0.3200  0.0716 -0.3232
  101MOL   C17142371   2.093   5.254   4.306 -0.4061 -0.5231  0.0094
  101MOL   C17242372   2.062   5.106   4.350  0.1196  0.7680 -0.1424
  101MOL   C17342373   1.931   5.035   4.322  0.8051 -0.4515  0.1429
  101MOL   C17442374   1.922   4.888   4.338  0.2965  0.2700  0.3919
  101MOL   C17542375   2.021   4.802   4.264 -0.1222 -0.4609  0.7912
  101MOL   C17642376   1.997   4.789   4.116  0.4561 -0.2470  0.3878
  101MOL   H17742377   1.980   5.438   4.311  0.2814  0.1167 -0.2343
  101MOL   H17842378   1.897   5.296   4.370 -1.0647  2.7671 -0.1052
  101MOL   H17942379   2.192   5.270   4.349 -0.3966 -0.8872  0.1266
  101MOL   H18042380   2.084   5.098   4.456 -0.9082 -0.4181 -0.0129
  101MOL   H18142381   2.147   5.048   4.315 -0.6569  0.0772 -0.9164
  101MOL   H18242382   1.898   5.060   4.222 -1.6824 -0.6278  0.8883
  101MOL   H18342383   1.855   5.071   4.392  0.6436  0.8514 -0.6879
  101MOL   H18442384   1.823   4.850   4.314  0.6614  0.1613 -0.9654
  101MOL   H18542385   1.927   4.865   4.444  0.1906 -1.4211  0.0429
  101MOL   H18642386   2.019   4.707   4.318 -0.4890  0.0130  1.6301
  101MOL   H18742387   2.122   4.833   4.292  0.1861  0.7882 -1.5611
  101MOL   H18842388   1.910   4.725   4.101 -0.4481  1.1247 -0.3459
  101MOL   H18942389   2.080   4.733   4.073  0.5021  0.9325 -1.0904
  101MOL   H19042390   1.985   4.886   4.069 -1.5624 -1.1508 -1.0597
  101MOL   C19142391   2.107   5.275   4.150 -0.2369  0.4529 -0.2008
  101MOL   C19242392   2.218   5.194   4.076 -0.7536  0.3199  0.3611
  101MOL   C19342393   2.183   5.185   3.925  0.2158 -0.2405 -0.0711
  101MOL   C19442394   2.145   5.317   3.860  0.4045  0.1755 -0.6135
  101MOL   C19542395   2.136   5.309   3.708 -0.6460  0.1603  0.1859
  101MOL   C19642396   2.272   5.269   3.643  0.0861  0.1954  0.1554
  101MOL   C19742397   2.262   5.266   3.490 -0.3875  0.6966  0.1822
  101MOL   H19842398   2.109   5.383   4.132  0.9024  0.8996  2.3165
  101MOL   H19942399   2.016   5.224   4.121 -0.9925  0.8413  1.3843
  101MOL   H20042400   2.215   5.095   4.123 -0.6641  0.3785  0.4895
  101MOL   H20142401   2.091   5.127   3.914 -0.5459  1.0097 -0.3239
  101MOL   H20242402   2.265   5.132   3.878  0.7821  1.0209 -0.4973
  101MOL   H20342403   2.229   5.381   3.886  0.7984 -0.9150  0.8242
  101MOL   H20442404   2.053   5.361   3.898  1.2278 -0.5845  2.3485
  101MOL   H20542405   2.052   5.246   3.678 -1.5091  1.6846 -0.6904
  101MOL   H20642406   2.112   5.407   3.666 -1.0974 -0.3657 -0.7995
  101MOL   H20742407   2.305   5.171   3.675  2.8944  0.0497 -2.8999
  101MOL   H20842408   2.342   5.343   3.682  0.9498 -0.7485  0.4188
  101MOL   H20942409   2.360   5.243   3.447 -2.2304 -1.7476 -2.8974
  101MOL   H21042410   2.240   5.365   3.451  3.5602  0.6831 -2.4150
  101MOL   H21142411   2.190   5.193   3.454  0.9378  0.4103 -1.9606
  101MOL   C21242412   2.361   5.238   4.109  0.1031 -0.1466  0.1066
  101MOL   C21342413   2.479   5.151   4.057  0.0095 -0.5425  0.2348
  101MOL   C21442414   2.553   5.228   3.938  0.0397  0.1820 -0.3119
  101MOL   C21542415   2.607   5.138   3.819  0.2072 -0.1757  0.2509
  101MOL   C21642416   2.652   5.219   3.698  0.3230 -0.3042 -0.3323
  101MOL   C21742417   2.736   5.129   3.607 -0.0144  0.3099 -0.2905
  101MOL   C21842418   2.810   5.209   3.508 -0.7110 -0.3039  0.1228
  101MOL   H21942419   2.374   5.227   4.216  0.2212  0.5667  0.1663
  101MOL   H22042420   2.376   5.344   4.088  2.4351 -0.4938 -0.1212
  101MOL   H22142421   2.444   5.060   4.009  0.7185 -2.6156  3.4572
  101MOL   H22242422   2.491   5.303   3.889 -1.0006  0.8714  1.9625
  101MOL   H22342423   2.631   5.297   3.970 -0.8063  1.0988 -0.2135
  101MOL   H22442424   2.527   5.076   3.777 -0.0924  1.3273 -1.4390
  101MOL   H22542425   2.678   5.062   3.852  0.9249 -0.0833 -1.0637
  101MOL   H22642426   2.565   5.258   3.646 -0.0080 -1.8583 -0.9649
  101MOL   H22742427   2.710   5.305   3.732 -1.6631  1.6961 -1.8343
  101MOL   H22842428   2.810   5.068   3.659  1.0935  0.7132 -1.3567
  101MOL   H22942429   2.672   5.066   3.546  0.6751 -1.8593  1.1780
  101MOL   H23042430   2.746   5.271   3.446 -0.9748  0.8720  1.5548
  101MOL   H23142431   2.858   5.140   3.438 -0.4752 -0.4888  0.4640
  101MOL   H23242432   2.889   5.273   3.548 -1.9602  0.0976  2.0146
  101MOL   C23342433   2.578   5.116   4.172  0.3036 -0.1334  0.1038
  101MOL   C23442434   2.522   5.034   4.289  0.7410  1.0805 -0.4488
  101MOL   C23542435   2.570   4.889   4.276 -0.3186  0.5212 -0.0051
  101MOL   C23642436   2.528   4.813   4.149  0.6535  0.0836 -0.2317
  101MOL   C23742437   2.537   4.662   4.143  0.2941 -0.1660 -0.2875
  101MOL   C23842438   2.493   4.597   4.013 -0.3515  0.5486 -0.3665
  101MOL   C23942439   2.584   4.618   3.894  0.0799 -0.3958  0.0404
  101MOL   H24042440   2.613   5.212   4.209  1.4877 -1.6975  3.2574
  101MOL   H24142441   2.672   5.071   4.140 -0.5602 -0.4495 -2.0828
  101MOL   H24242442   2.413   5.032   4.291  0.7052  2.8357 -0.2361
  101MOL   H24342443   2.516   4.837   4.354 -0.0245 -0.1033 -0.2177
  101MOL   H24442444   2.679   4.879   4.284 -0.5145 -1.6469  0.1039
  101MOL   H24542445   2.585   4.851   4.064 -0.3054  1.4691 -0.2696
  101MOL   H24642446   2.423   4.833   4.128  0.7074  0.5629 -0.0623
  101MOL   H24742447   2.481   4.617   4.224 -0.9736 -0.3829 -1.2735
  101MOL   H24842448   2.642   4.643   4.168  0.2136 -0.1823  0.0396
  101MOL   H24942449   2.500   4.493   4.045 -0.1283  0.6250 -0.1673
  101MOL   H25042450   2.390   4.621   3.986 -0.0320  1.8897 -0.4435
  101MOL   H25142451   2.562   4.714   3.847  3.3666  0.5742  0.3769
  101MOL   H25242452   2.690   4.624   3.917 -0.2614  3.3703  0.9376
  101MOL   H25342453   2.565   4.541   3.819  1.4053 -1.2032  0.5127
  101MOL   C25442454   2.565   5.097   4.423  0.1952  0.3930 -0.1547
  101MOL   C25542455   2.519   5.025   4.555 -0.1023  0.2049  0.5132
  101MOL   C25642456   2.365   5.013   4.571 -0.9929 -0.5121 -0.4158
  101MOL   C25742457   2.320   4.940   4.705 -0.5250 -0.4763  0.3265
  101MOL   C25842458   2.182   4.878   4.681  0.5818  0.2710 -1.3776
  101MOL   C25942459   2.159   4.752   4.774 -0.0887 -0.1569  0.0548
  101MOL   C26042460   2.161   4.754   4.926  0.1032  0.5684 -0.8169
  101MOL   H26142461   2.555   5.205   4.427 -0.4235  0.3265  0.1614
  101MOL   H26242462   2.673   5.088   4.418  0.1860  0.2867 -0.1599
  101MOL   H26342463   2.557   4.922   4.554 -0.0493  0.1949 -2.5283
  101MOL   H26442464   2.329   4.950   4.489  0.2836 -0.1450 -1.2659
  101MOL   H26542465   2.324   5.114   4.559 -0.6499 -0.4562 -1.1251
  101MOL   H26642466   2.391   4.862   4.732 -0.7978 -0.9466 -0.2869
  101MOL   H26742467   2.322   5.009   4.789 -0.2370  1.0720 -0.9198
  101MOL   H26842468   2.151   4.863   4.578  0.6216 -1.0617 -1.2015
  101MOL   H26942469   2.111   4.951   4.718 -0.3465  0.0206 -2.6588
  101MOL   H27042470   2.058   4.717   4.751 -0.5605  1.1654  0.0552
  101MOL   H27142471   2.235   4.679   4.749 -0.7204 -0.6577 -0.4142
  101MOL   H27242472   2.139   4.662   4.982  0.9220  0.3745 -0.8092
  101MOL   H27342473   2.249   4.799   4.973  0.7447 -1.8927  0.4740
  101MOL   H27442474   2.075   4.813   4.957 -0.7590 -0.6123 -0.9058
  101MOL   C27542475   2.575   5.111   4.677 -0.0255  0.9440 -0.1157
  101MOL   C27642476   2.737   5.128   4.683  0.6705  0.0438 -0.6130
  101MOL   C27742477   2.804   4.994   4.735  0.0366 -0.2707 -0.5340
  101MOL   C27842478   2.844   4.908   4.616 -0.0544  0.0159  0.0028
  101MOL   C27942479   2.955   4.958   4.529 -0.3819  0.8540  0.4729
  101MOL   C28042480   2.992   4.850   4.417  0.1385  0.1186  0.0382
  101MOL   C28142481   3.117   4.863   4.347 -0.9128  0.0726 -0.4544
  101MOL   H28242482   2.533   5.077   4.771 -0.4713  1.0018 -0.2920
  101MOL   H28342483   2.535   5.210   4.655 -0.6907  0.6361 -0.3205
  101MOL   H28442484   2.775   5.152   4.584 -0.0328  0.6182 -0.7455
  101MOL   H28542485   2.891   5.011   4.800 -1.5665  3.1294  0.8208
  101MOL   H28642486   2.738   4.933   4.796  0.3154 -0.0470 -0.0065
  101MOL   H28742487   2.757   4.879   4.557 -1.2639 -0.5189  2.0064
  101MOL   H28842488   2.865   4.808   4.652  1.1127  0.5852  0.9364
  101MOL   H28942489   3.043   4.974   4.591  0.5154  0.6629 -0.7286
  101MOL   H29042490   2.932   5.054   4.482  0.9289  0.7196 -0.4672
  101MOL   H29142491   2.997   4.749   4.457 -0.3939 -0.5483 -1.5581
  101MOL   H29242492   2.907   4.834   4.352  0.9406  1.0958 -1.2760
  101MOL   H29342493   3.116   4.953   4.286  1.7134  1.0307  0.8353
  101MOL   H29442494   3.131   4.775   4.284 -1.0141  0.0426 -0.4334
  101MOL   H29542495   3.205   4.868   4.411 -1.8085 -1.3625  0.9273
  101MOL   C29642496   2.782   5.240   4.776 -0.1793 -0.1179  0.2727
  101MOL   C29742497   2.928   5.292   4.753  0.3432 -0.0848  0.0445
  101MOL   C29842498   2.966   5.386   4.868  0.9345 -0.3449 -0.7927
  101MOL   C29942499   2.940   5.341   5.012  0.0089  0.4632  0.2698
  101MOL   C30042500   3.032   5.224   5.056 -0.5975  0.1958  0.3167
  101MOL   C30142501   3.037   5.202   5.207 -0.1343 -0.0399  0.3326
  101MOL   C30242502   3.168   5.134   5.248 -0.0272 -0.1197  0.0478
  101MOL   H30342503   2.711   5.321   4.789  2.0307  2.2189 -1.7136
  101MOL   H30442504   2.782   5.195   4.875  2.7439  0.4749  0.5868
  101MOL   H30542505   2.993   5.207   4.774 -1.2405 -1.7241 -1.5352
  101MOL   H30642506   3.072   5.409   4.859  0.3346  1.7474 -2.8597
  101MOL   H30742507   2.905   5.472   4.843 -1.1240 -1.5177  0.0676
  101MOL   H30842508   2.836   5.315   5.031  0.0629 -0.6684 -0.8948
  101MOL   H30942509   2.952   5.430   5.073  0.4433 -0.5816  1.7409
  101MOL   H31042510   3.129   5.249   5.015 -0.3213 -1.0930  0.1618
  101MOL   H31142511   2.996   5.137   5.001 -1.7788  1.4957 -1.0106
  101MOL   H31242512   3.037   5.298   5.257 -0.5329  0.3687 -0.4484
  101MOL   H31342513   2.952   5.145   5.247 -1.4121  0.5957 -1.4211
  101MOL   H31442514   3.252   5.167   5.187  1.0007  0.1088  1.5405
  101MOL   H31542515   3.190   5.160   5.352  0.7953 -1.2391  0.1656
  101MOL   H31642516   3.161   5.026   5.234 -2.6634  0.3198 -2.5634
  101MOL   C31742517   2.961   5.343   4.608  0.2223  0.0424 -0.2676
  101MOL   C31842518   3.117   5.375   4.591 -0.5133 -0.0933  0.3428
  101MOL   C31942519   3.165   5.325   4.455  0.4043  1.1671  0.3793
  101MOL   C32042520   3.290   5.237   4.462 -0.2863  0.2360 -0.6514
  101MOL   C32142521   3.329   5.175   4.323 -0.2387 -0.1334 -0.5006
  101MOL   C32242522   3.455   5.091   4.328  0.5363  0.5762  0.4513
  101MOL   C32342523   3.463   5.001   4.200 -0.1615  0.3827 -0.8532
  101MOL   H32442524   2.897   5.431   4.603 -0.8850 -0.5939  1.9120
  101MOL   H32542525   2.929   5.273   4.530 -0.6058 -0.4390  0.4882
  101MOL   H32642526   3.161   5.315   4.670 -1.4976 -0.6950  0.4316
  101MOL   H32742527   3.156   5.403   4.380 -0.1045  0.3342 -0.4296
  101MOL   H32842528   3.088   5.262   4.410  1.2874  1.4019 -1.5165
  101MOL   H32942529   3.276   5.160   4.538  1.7887  0.6207  0.1609
  101MOL   H33042530   3.372   5.290   4.510 -1.6127  1.4593  0.3258
  101MOL   H33142531   3.353   5.260   4.259 -0.2601  0.3821  0.1674
  101MOL   H33242532   3.245   5.123   4.279 -0.0769  0.0442 -1.0231
  101MOL   H33342533   3.462   5.022   4.413  1.0896 -0.2711 -0.2735
  101MOL   H33442534   3.538   5.161   4.334  0.1268  1.1211 -0.1846
  101MOL   H33542535   3.423   5.055   4.114  0.4941 -0.7350 -1.8592
  101MOL   H33642536   3.404   4.911   4.220  1.2264 -0.0856  1.2678
  101MOL   H33742537   3.566   4.966   4.196  0.1895  1.0677  1.2464
  101MOL   C33842538   3.147   5.525   4.608 -0.8295 -0.1104 -0.1624
  101MOL   C33942539   3.300   5.551   4.604  0.4292  0.5157 -0.4294
  101MOL   C34042540   3.371   5.493   4.736 -0.0563  0.4135  0.9559
  101MOL   C34142541   3.345   5.559   4.870  0.6565 -0.4083 -0.2802
  101MOL   C34242542   3.396   5.465   4.973  0.1609  0.7997 -0.3129
  101MOL   C34342543   3.380   5.502   5.124 -0.2576 -0.7775 -0.0533
  101MOL   C34442544   3.447   5.402   5.213  0.4880 -0.0302 -0.5341
  101MOL   H34542545   3.099   5.575   4.693 -1.6793  2.3176 -2.0090
  101MOL   H34642546   3.103   5.579   4.524 -1.6875 -0.9562 -0.2641
  101MOL   H34742547   3.350   5.497   4.524 -0.7937  0.4808 -1.1793
  101MOL   H34842548   3.342   5.388   4.742  1.7309 -0.0738  1.6427
  101MOL   H34942549   3.473   5.471   4.704  0.2918  0.9414  1.6830
  101MOL   H35042550   3.238   5.569   4.887  0.9631  0.5154  1.1909
  101MOL   H35142551   3.396   5.655   4.880 -2.9155  1.3394  2.2537
  101MOL   H35242552   3.334   5.376   4.969  0.3445  0.5341  1.9756
  101MOL   H35342553   3.499   5.437   4.948  0.2034  0.6244  0.0591
  101MOL   H35442554   3.419   5.604   5.130 -1.1533 -0.2895 -1.9092
  101MOL   H35542555   3.273   5.502   5.144 -0.2392  0.2235  0.0668
  101MOL   H35642556   3.550   5.376   5.187  0.2383 -0.7803 -0.7592
  101MOL   H35742557   3.400   5.304   5.205  0.7291 -0.1190 -0.8916
  101MOL   H35842558   3.455   5.445   5.313 -0.1662 -1.3329  0.0750
  101MOL   C35942559   3.330   5.705   4.593 -0.3701 -0.8653 -0.7479
  101MOL   C36042560   3.470   5.720   4.517  0.0952 -0.5359  0.4984
  101MOL   C36142561   3.438   5.711   4.362 -0.3463 -0.8063  0.9020
  101MOL   C36242562   3.557   5.699   4.268  0.4562  0.5812 -0.2336
  101MOL   C36342563   3.650   5.571   4.298  0.0939 -0.5467 -0.2180
  101MOL   C36442564   3.590   5.440   4.244 -0.6273 -0.3454  0.6017
  101MOL   C36542565   3.684   5.325   4.196  0.2902 -0.3332 -0.0049
  101MOL   H36642566   3.336   5.757   4.689  2.2135 -0.6752 -0.9785
  101MOL   H36742567   3.246   5.748   4.539 -0.0309  1.2620  0.3750
  101MOL   H36842568   3.527   5.633   4.548 -0.3086 -0.4892  1.3944
  101MOL   H36942569   3.376   5.622   4.346 -1.5265 -0.2618  2.4124
  101MOL   H37042570   3.378   5.792   4.322  0.4834  0.9350  3.0986
  101MOL   H37142571   3.519   5.694   4.166  1.7043 -0.6178 -0.6589
  101MOL   H37242572   3.619   5.788   4.277  0.6950  0.4597 -0.6345
  101MOL   H37342573   3.746   5.587   4.249 -0.1407 -0.1008 -0.5325
  101MOL   H37442574   3.681   5.557   4.402 -0.1640 -0.4700 -0.1297
  101MOL   H37542575   3.537   5.408   4.334 -0.0875  1.1323  1.4674
  101MOL   H37642576   3.528   5.462   4.157  0.6757 -0.4338 -0.3632
  101MOL   H37742577   3.741   5.272   4.272  0.0216  2.0589  1.9085
  101MOL   H37842578   3.634   5.253   4.131  0.6580 -0.6634  0.0761
  101MOL   H37942579   3.752   5.379   4.130  0.9111  1.8711  2.3492
  101MOL   C38042580   3.547   5.849   4.568  0.0413  0.1426  0.8850
  101MOL   C38142581   3.694   5.858   4.552 -0.0899 -0.3962  0.5349
  101MOL   C38242582   3.729   6.008   4.557  0.1598 -0.1087  0.1370
  101MOL   C38342583   3.879   6.045   4.540  0.6408 -0.3166 -0.2683
  101MOL   C38442584   3.901   6.202   4.530 -0.1566 -0.6863 -0.0553
  101MOL   C38542585   3.848   6.292   4.643 -0.1949 -0.2975  0.4178
  101MOL   C38642586   3.917   6.268   4.772 -0.2897  1.2128  0.4309
  101MOL   H38742587   3.504   5.926   4.503  3.3665  0.9348 -0.4831
  101MOL   H38842588   3.529   5.879   4.671  0.2704  1.4735  0.5455
  101MOL   H38942589   3.721   5.830   4.450  1.5402 -1.0778  1.1232
  101MOL   H39042590   3.684   6.057   4.643 -0.1451  3.5865 -2.0020
  101MOL   H39142591   3.667   6.054   4.480  1.8530  0.4199 -0.9569
  101MOL   H39242592   3.939   6.010   4.624  0.1290 -2.1627 -0.6509
  101MOL   H39342593   3.912   6.007   4.443  0.6166 -1.5515  0.1996
  101MOL   H39442594   4.009   6.205   4.516  0.1672  3.7405  2.4977
  101MOL   H39542595   3.848   6.241   4.443  0.6590  1.9397  0.5767
  101MOL   H39642596   3.743   6.271   4.666 -0.0974  1.4731  2.6705
  101MOL   H39742597   3.854   6.396   4.610 -0.4351 -0.8388 -1.3643
  101MOL   H39842598   4.020   6.238   4.753 -1.2204 -1.7360 -0.2509
  101MOL   H39942599   3.877   6.188   4.835  0.3033 -0.9553 -1.8820
  101MOL   H40042600   3.924   6.358   4.833 -0.9195 -0.1330  2.5470
  101MOL   C40142601   3.780   5.777   4.654  0.5756 -0.0664 -0.4760
  101MOL   C40242602   3.766   5.779   4.809  0.2913 -0.1311 -0.4148
  101MOL   C40342603   3.805   5.643   4.879  0.7846  0.2871 -0.1841
  101MOL   C40442604   3.826   5.658   5.032 -0.2193 -0.3333 -0.8174
  101MOL   C40542605   3.848   5.523   5.098 -0.1039  0.5597  0.2079
  101MOL   C40642606   3.850   5.522   5.248  0.1661  0.3175  0.8599
  101MOL   C40742607   3.858   5.371   5.304 -0.3461 -0.5109 -0.1435
  101MOL   H40842608   3.881   5.751   4.624  0.2211  0.2707 -1.9795
  101MOL   H40942609   3.746   5.678   4.623  1.1763 -0.2608 -0.5117
  101MOL   H41042610   3.666   5.809   4.840  0.0941 -2.8814  1.9599
  101MOL   H41142611   3.903   5.622   4.838 -0.0785 -2.2943 -1.0547
  101MOL   H41242612   3.733   5.564   4.856 -0.6301  1.6018 -0.3972
  101MOL   H41342613   3.743   5.707   5.083  1.9799  0.7280  1.9113
  101MOL   H41442614   3.914   5.716   5.063  0.1471 -0.6610 -1.2439
  101MOL   H41542615   3.777   5.456   5.051  1.8321 -2.0534  0.8869
  101MOL   H41642616   3.946   5.493   5.063 -0.0037 -0.2269  1.1596
  101MOL   H41742617   3.919   5.596   5.289  0.8278  0.3303 -0.2364
  101MOL   H41842618   3.755   5.564   5.278  1.1609  4.2964 -1.2713
  101MOL   H41942619   3.763   5.338   5.344 -0.2943  1.4951  1.7321
  101MOL   H42042620   3.927   5.377   5.388  1.1509  0.4240 -1.3992
  101MOL   H42142621   3.893   5.301   5.228 -0.9070 -1.1227  0.1583
  101MOL   H42242622   3.835   5.849   4.857 -0.3115  0.1498  0.0514
  102MOL     C142623   6.338   5.306   3.869 -0.0047 -0.1061 -0.1801
  102MOL     C242624   6.249   5.375   3.972 -0.0955 -0.2997  0.7397
  102MOL     C342625   6.315   5.480   4.060 -0.6917 -0.0131 -0.6646
  102MOL     C442626   6.398   5.581   3.977 -0.6328  1.0888  0.0405
  102MOL     C542627   6.406   5.714   4.036  0.4528 -0.1293  0.1360
  102MOL     C642628   6.495   5.814   3.957  0.2853 -0.0378 -0.0844
  102MOL     C742629   6.411   5.879   3.848 -0.0380  0.4680 -0.0349
  102MOL     H842630   6.273   5.240   3.811  0.5377 -1.0653  0.3038
  102MOL     H942631   6.408   5.233   3.909  0.6683  0.9527  0.5932
  102MOL    H1042632   6.184   5.427   3.901  0.9380  0.4370  0.3241
  102MOL    H1142633   6.233   5.531   4.111  0.2055 -0.6327  1.4621
  102MOL    H1242634   6.380   5.444   4.139 -0.5167 -0.4291 -0.9951
  102MOL    H1342635   6.497   5.540   3.956  0.6333  3.1613  1.7430
  102MOL    H1442636   6.369   5.592   3.872  1.0666 -1.1606 -0.7049
  102MOL    H1542637   6.464   5.714   4.129  1.2749  0.7791 -0.3627
  102MOL    H1642638   6.308   5.761   4.046 -0.2774 -1.6830  0.4653
  102MOL    H1742639   6.588   5.775   3.916 -0.0557 -2.5693  1.4324
  102MOL    H1842640   6.521   5.885   4.035  2.5016 -2.1672  1.1640
  102MOL    H1942641   6.385   5.806   3.771 -0.3162 -2.3110  2.5566
  102MOL    H2042642   6.462   5.962   3.800  1.6308 -0.9897 -0.8182
  102MOL    H2142643   6.321   5.923   3.892 -1.1830 -2.2969  0.5209
  102MOL    H2242644   6.388   5.383   3.810  0.4627 -0.4144 -0.1859
  102MOL    C2342645   6.146   5.279   4.046  0.1524 -0.7955 -0.0846
  102MOL    C2442646   6.215   5.190   4.158  0.5565 -0.0656  1.0116
  102MOL    C2542647   6.177   5.040   4.148  0.1089 -0.5135 -0.9036
  102MOL    C2642648   6.231   4.977   4.016 -0.6663 -0.4806  0.6272
  102MOL    C2742649   6.250   4.823   4.007 -0.1093 -0.2251  0.1588
  102MOL    C2842650   6.115   4.743   4.041 -0.3326  0.6853 -0.0678
  102MOL    C2942651   6.008   4.756   3.925  0.0286  0.1096 -0.6372
  102MOL    H3042652   6.067   5.337   4.094  0.8039  0.5279 -0.5656
  102MOL    H3142653   6.092   5.211   3.980 -0.8067 -1.1535  1.0374
  102MOL    H3242654   6.321   5.189   4.132 -0.1789 -0.1821 -2.1886
  102MOL    H3342655   6.068   5.038   4.148 -0.0681  0.2249  5.0276
  102MOL    H3442656   6.220   4.979   4.227 -0.2600 -1.2300 -1.2390
  102MOL    H3542657   6.329   5.021   3.995 -1.8283  1.7394 -0.3721
  102MOL    H3642658   6.168   5.013   3.935 -0.8084  1.1333  1.4325
  102MOL    H3742659   6.315   4.790   4.088  0.3283  0.0836 -0.0657
  102MOL    H3842660   6.289   4.789   3.911  0.3997  2.3928 -0.5868
  102MOL    H3942661   6.063   4.774   4.131  0.2329 -1.0206  0.8549
  102MOL    H4042662   6.134   4.637   4.056  5.4577  1.3326 -1.4927
  102MOL    H4142663   5.962   4.854   3.924 -1.5281 -0.6111 -1.5518
  102MOL    H4242664   6.044   4.732   3.825  0.9846  0.4829 -0.3926
  102MOL    H4342665   5.925   4.688   3.943 -0.7978  1.2251 -0.2138
  102MOL    C4442666   6.202   5.247   4.295 -0.4594 -0.2206 -0.0417
  102MOL    C4542667   6.316   5.191   4.389 -0.6087 -0.7425  0.2394
  102MOL    C4642668   6.463   5.235   4.356  0.3403 -0.0045  0.1296
  102MOL    C4742669   6.575   5.129   4.374 -0.9265 -0.1200 -0.2561
  102MOL    C4842670   6.547   4.996   4.301  0.2126  0.8130  0.4969
  102MOL    C4942671   6.660   4.891   4.310 -0.0794  0.2721  0.3288
  102MOL    C5042672   6.625   4.774   4.216  0.6047  0.3094  0.3267
  102MOL    H5142673   6.099   5.227   4.324 -1.0249  0.2091 -1.6697
  102MOL    H5242674   6.209   5.355   4.304 -0.6738  0.0087 -2.3061
  102MOL    H5342675   6.296   5.084   4.381 -3.3334 -0.5482  3.2501
  102MOL    H5442676   6.483   5.312   4.431 -2.0931  1.1401 -0.3164
  102MOL    H5542677   6.469   5.294   4.265 -1.7160  0.8968  0.5309
  102MOL    H5642678   6.675   5.158   4.342 -1.3800  1.0252 -0.6400
  102MOL    H5742679   6.592   5.110   4.480 -1.2747 -0.6601 -0.2938
  102MOL    H5842680   6.554   5.041   4.202 -2.5947  1.4703  0.5460
  102MOL    H5942681   6.445   4.957   4.305  1.3979 -2.2816  2.1269
  102MOL    H6042682   6.668   4.852   4.412 -1.4704 -1.1672 -0.0986
  102MOL    H6142683   6.752   4.939   4.279 -0.0568 -0.1372 -0.2468
  102MOL    H6242684   6.611   4.813   4.115  2.8374  1.2995  0.3677
  102MOL    H6342685   6.528   4.733   4.246 -0.4153  1.1084 -1.8081
  102MOL    H6442686   6.696   4.692   4.213 -1.1831 -1.3057  0.9967
  102MOL    C6542687   6.277   5.222   4.536  0.1487 -0.5223 -0.4516
  102MOL    C6642688   6.170   5.119   4.588  0.6056  0.3198 -0.2010
  102MOL    C6742689   6.061   5.170   4.687  0.9026  0.2971 -1.1291
  102MOL    C6842690   5.963   5.273   4.623  0.1389  0.1364 -0.3732
  102MOL    C6942691   5.859   5.332   4.720  0.3515 -0.3923 -0.4288
  102MOL    C7042692   5.920   5.450   4.795 -0.0517 -0.1487  0.5057
  102MOL    C7142693   5.911   5.567   4.705  0.1679  0.1430 -0.2182
  102MOL    H7242694   6.365   5.207   4.598  0.5388  0.8864 -0.6410
  102MOL    H7342695   6.251   5.325   4.560  0.6441 -1.0816  2.7133
  102MOL    H7442696   6.126   5.082   4.495  0.7212 -0.2430 -0.0338
  102MOL    H7542697   6.005   5.084   4.724  0.1040  1.4728  0.4202
  102MOL    H7642698   6.120   5.202   4.773 -0.8474 -0.7166  0.4566
  102MOL    H7742699   6.034   5.337   4.571  0.1659 -0.9215 -1.6838
  102MOL    H7842700   5.907   5.231   4.539 -2.1560  2.2056  0.0735
  102MOL    H7942701   5.763   5.357   4.674 -0.2087 -0.2776  0.7724
  102MOL    H8042702   5.828   5.258   4.794  0.3590 -1.3032 -1.3252
  102MOL    H8142703   6.026   5.444   4.820  0.3605 -0.1278 -1.1616
  102MOL    H8242704   5.863   5.468   4.886 -2.6658  3.6679 -1.7128
  102MOL    H8342705   5.994   5.577   4.635  1.4874 -0.3608  1.2355
  102MOL    H8442706   5.822   5.563   4.642 -0.0755 -1.2235  0.1931
  102MOL    H8542707   5.899   5.654   4.769 -4.3947 -0.7502  0.2844
  102MOL    C8642708   6.252   4.997   4.650  0.1385  0.3159 -0.0647
  102MOL    C8742709   6.187   4.853   4.670  0.9740 -0.2734  0.4969
  102MOL    C8842710   6.191   4.782   4.531 -0.0518 -0.0647  0.1392
  102MOL    C8942711   6.098   4.660   4.516  0.3544 -0.3248  0.5123
  102MOL    C9042712   6.110   4.594   4.381  0.6608  0.3501  0.1557
  102MOL    C9142713   6.150   4.449   4.385 -0.1385 -0.0035 -0.2417
  102MOL    C9242714   6.188   4.400   4.243 -0.3065 -0.3032  0.5140
  102MOL    H9342715   6.339   4.976   4.587 -0.6502 -0.9128 -0.7699
  102MOL    H9442716   6.291   5.041   4.742 -1.9147  0.1765  0.8891
  102MOL    H9542717   6.082   4.857   4.699  0.4457  0.3703 -1.4024
  102MOL    H9642718   6.157   4.859   4.461 -1.5359 -0.7237  0.1085
  102MOL    H9742719   6.293   4.749   4.512 -0.6195 -1.5640 -0.3420
  102MOL    H9842720   6.118   4.587   4.594 -0.4548  0.9553  1.9439
  102MOL    H9942721   5.995   4.691   4.531 -0.1992 -0.5079 -2.5867
  102MOL   H10042722   6.182   4.658   4.330  1.1754 -0.8874 -0.6780
  102MOL   H10142723   6.013   4.609   4.333 -0.0330  0.3501  1.5502
  102MOL   H10242724   6.243   4.433   4.439 -0.4162  2.3207  0.9796
  102MOL   H10342725   6.063   4.392   4.417  1.3313 -1.5092  1.1393
  102MOL   H10442726   6.283   4.445   4.212 -0.4865 -1.0601 -1.2482
  102MOL   H10542727   6.117   4.427   4.165  1.8476 -0.7584 -1.6814
  102MOL   H10642728   6.203   4.293   4.232  0.9803  0.1685 -3.5397
  102MOL   C10742729   6.253   4.765   4.778  0.3585  0.3443  0.3598
  102MOL   C10842730   6.248   4.819   4.933 -0.8110  0.1669 -0.0025
  102MOL   C10942731   6.103   4.843   4.992  0.0403 -0.1624  0.1392
  102MOL   C11042732   6.019   4.712   5.034  0.1198  1.0411 -0.6624
  102MOL   C11142733   5.875   4.742   5.068  0.0084 -0.2329 -0.6447
  102MOL   C11242734   5.799   4.612   5.117 -0.4257  0.4800 -0.1517
  102MOL   C11342735   5.839   4.579   5.260 -0.2564  0.2182 -0.3705
  102MOL   H11442736   6.352   4.746   4.738 -1.0165 -0.1980 -2.9630
  102MOL   H11542737   6.212   4.664   4.779  0.4916  0.2880 -0.0851
  102MOL   H11642738   6.296   4.917   4.925 -0.5877  0.1561  1.1820
  102MOL   H11742739   6.051   4.909   4.922 -0.5342 -3.4224 -2.6830
  102MOL   H11842740   6.117   4.904   5.081  0.8270  1.3694 -1.0120
  102MOL   H11942741   6.027   4.626   4.967 -0.6311  0.2106  0.2825
  102MOL   H12042742   6.067   4.690   5.129 -0.9397  1.5181 -0.0154
  102MOL   H12142743   5.826   4.788   4.982 -4.7203  0.4457  2.2302
  102MOL   H12242744   5.874   4.818   5.147  0.8850  0.7733 -1.5889
  102MOL   H12342745   5.691   4.629   5.112 -0.2133  1.8211 -0.4883
  102MOL   H12442746   5.808   4.531   5.045 -0.9119 -1.1525  1.5708
  102MOL   H12542747   5.946   4.568   5.280 -0.4509  0.2665  0.7115
  102MOL   H12642748   5.818   4.657   5.333 -0.8679  0.7331 -1.0804
  102MOL   H12742749   5.798   4.483   5.289  0.8789 -0.0205  0.4783
  102MOL   C12842750   6.336   4.746   5.032  0.6533 -0.0916  0.2996
  102MOL   C12942751   6.484   4.730   4.999  0.1863  0.5485 -0.2575
  102MOL   C13042752   6.516   4.581   5.038  0.1631  0.4449 -0.6339
  102MOL   C13142753   6.500   4.543   5.193 -0.1494 -0.1539  0.7469
  102MOL   C13242754   6.508   4.389   5.212  0.3756  0.4477  0.3241
  102MOL   C13342755   6.641   4.335   5.153 -0.3889  0.9858  0.3831
  102MOL   C13442756   6.678   4.201   5.216 -0.8268  0.1510  0.8870
  102MOL   H13542757   6.316   4.776   5.135 -0.0166 -0.7171  0.3578
  102MOL   H13642758   6.288   4.648   5.029  0.1223  0.1945 -0.8211
  102MOL   H13742759   6.500   4.747   4.892  3.2642 -2.9339 -0.4389
  102MOL   H13842760   6.609   4.545   4.995  1.1378 -0.9310  2.4711
  102MOL   H13942761   6.454   4.511   4.983 -0.7086 -0.7396  1.7727
  102MOL   H14042762   6.398   4.566   5.226  0.1004  2.0940  0.0058
  102MOL   H14142763   6.560   4.600   5.264  0.3810  2.8422 -1.9853
  102MOL   H14242764   6.427   4.341   5.156  0.3583  1.0209 -0.1408
  102MOL   H14342765   6.505   4.379   5.321  0.9851 -0.7033  0.2361
  102MOL   H14442766   6.727   4.399   5.175 -0.3407  0.7850  0.7842
  102MOL   H14542767   6.628   4.299   5.051  2.1117  1.9097 -0.2882
  102MOL   H14642768   6.617   4.114   5.192  1.9639 -1.3617 -1.0897
  102MOL   H14742769   6.692   4.199   5.324  3.6104 -1.0849  0.3780
  102MOL   H14842770   6.777   4.175   5.179 -1.4038  0.2723 -0.8285
  102MOL   C14942771   6.572   4.831   5.068 -0.0389 -0.1674  0.1872
  102MOL   C15042772   6.572   4.983   5.014  0.0972 -0.4770 -1.2109
  102MOL   C15142773   6.612   4.992   4.870 -0.0323 -0.7188 -0.1651
  102MOL   C15242774   6.745   4.927   4.833 -0.2002  0.8302  1.0193
  102MOL   C15342775   6.779   4.934   4.683 -0.2393  0.3469 -0.4527
  102MOL   C15442776   6.911   4.867   4.640  0.5404 -0.6810  0.1034
  102MOL   C15542777   7.030   4.960   4.639 -0.4874 -0.0281 -0.3029
  102MOL   H15642778   6.543   4.828   5.172 -0.3735  2.3213  0.1934
  102MOL   H15742779   6.679   4.814   5.079  0.4061  1.9538 -0.4922
  102MOL   H15842780   6.467   5.013   5.013  0.3366  0.3876 -0.6676
  102MOL   H15942781   6.527   4.943   4.824 -0.1925  0.7805 -1.5163
  102MOL   H16042782   6.603   5.098   4.845  1.9797 -0.6878 -0.8664
  102MOL   H16142783   6.734   4.820   4.850  0.1980  0.9865  2.2381
  102MOL   H16242784   6.822   4.969   4.896  2.6284 -0.2578 -1.5988
  102MOL   H16342785   6.752   5.026   4.632 -3.1486  0.5240  1.3187
  102MOL   H16442786   6.712   4.858   4.642 -0.0275  0.4962 -1.0707
  102MOL   H16542787   6.902   4.822   4.541 -1.4021 -1.6691  0.7048
  102MOL   H16642788   6.925   4.778   4.703 -1.8040 -1.0638  0.1220
  102MOL   H16742789   7.019   5.040   4.565 -1.3053  1.1421  1.0399
  102MOL   H16842790   7.125   4.912   4.621 -0.9547 -1.3609  0.7084
  102MOL   H16942791   7.035   5.017   4.732 -0.4622 -1.4349  0.5638
  102MOL   C17042792   6.654   5.078   5.108  0.6287 -0.6789 -0.0127
  102MOL   C17142793   6.629   5.229   5.084  0.1895  0.5137 -0.5156
  102MOL   C17242794   6.484   5.274   5.130 -0.2141 -0.2461  0.5566
  102MOL   C17342795   6.436   5.415   5.102 -0.5510  0.0733 -0.1816
  102MOL   C17442796   6.393   5.451   4.955  0.4619 -0.1629 -0.7442
  102MOL   C17542797   6.329   5.592   4.952 -0.0884 -0.3152 -0.2786
  102MOL   C17642798   6.301   5.642   4.809  0.6060 -0.4142  0.8761
  102MOL   H17742799   6.758   5.048   5.103  0.8995 -0.4941  3.3266
  102MOL   H17842800   6.628   5.055   5.212 -0.8755  1.9768  0.2522
  102MOL   H17942801   6.643   5.266   4.983  1.3888 -0.8266 -0.8541
  102MOL   H18042802   6.486   5.266   5.238  0.5318 -0.5947  0.5204
  102MOL   H18142803   6.404   5.214   5.087 -0.4988 -0.8351  1.9044
  102MOL   H18242804   6.513   5.493   5.111 -2.3062  2.0100 -1.4498
  102MOL   H18342805   6.353   5.436   5.169 -1.1923 -2.7274 -0.0251
  102MOL   H18442806   6.324   5.380   4.908 -2.4406  1.2351  1.2428
  102MOL   H18542807   6.482   5.443   4.893 -0.1518 -1.2036 -1.4980
  102MOL   H18642808   6.389   5.668   5.003 -0.1481 -1.8050  2.0851
  102MOL   H18742809   6.235   5.586   5.008  0.3258 -0.7633  0.3800
  102MOL   H18842810   6.232   5.567   4.772  0.1718  0.8698 -0.9700
  102MOL   H18942811   6.390   5.639   4.746 -1.6199  2.2342 -2.5640
  102MOL   H19042812   6.245   5.735   4.807  0.6235 -0.4272 -0.1790
  102MOL   C19142813   6.742   5.317   5.159  0.4439  0.1234 -0.1501
  102MOL   C19242814   6.877   5.313   5.094 -0.1820 -0.6813 -0.5432
  102MOL   C19342815   6.888   5.408   4.972 -0.6349  0.5426  0.2553
  102MOL   C19442816   6.893   5.317   4.845 -0.1343  0.1359 -0.1201
  102MOL   C19542817   6.850   5.390   4.721  0.0658 -0.2356 -0.4879
  102MOL   C19642818   6.895   5.323   4.591 -0.2083  0.1026  0.6368
  102MOL   C19742819   6.824   5.384   4.468 -0.0679 -0.2746 -0.1606
  102MOL   H19842820   6.747   5.286   5.263  0.0123 -1.8071 -0.6891
  102MOL   H19942821   6.708   5.421   5.158 -3.1229 -0.9633 -1.3253
  102MOL   H20042822   6.903   5.211   5.066  0.4864 -0.7063  0.1433
  102MOL   H20142823   6.973   5.476   4.983 -1.0235  1.2091 -0.7317
  102MOL   H20242824   6.796   5.465   4.978  0.4514  2.4558 -0.5156
  102MOL   H20342825   6.828   5.231   4.860  0.2502 -0.1646 -0.1854
  102MOL   H20442826   6.994   5.276   4.845 -2.0655 -4.8878 -0.3580
  102MOL   H20542827   6.742   5.388   4.712 -0.0561  0.9024  0.5416
  102MOL   H20642828   6.885   5.493   4.720  1.0119 -0.5256  1.0858
  102MOL   H20742829   6.862   5.219   4.602 -1.1261  0.4324  1.0561
  102MOL   H20842830   7.003   5.317   4.580  0.0320  0.5706  2.5493
  102MOL   H20942831   6.830   5.335   4.370  0.2644  3.1141 -1.9024
  102MOL   H21042832   6.860   5.482   4.437  1.6869 -0.9910 -0.4393
  102MOL   H21142833   6.717   5.370   4.488 -0.3718 -0.6508 -1.8874
  102MOL   C21242834   6.987   5.350   5.204  0.5695 -0.3683  1.0724
  102MOL   C21342835   7.135   5.365   5.167  0.4014  0.3841 -0.1136
  102MOL   C21442836   7.227   5.422   5.278  0.0562  0.6925  0.2636
  102MOL   C21542837   7.169   5.545   5.362 -0.5176  0.8757  0.3276
  102MOL   C21642838   7.285   5.617   5.435  1.0778  0.0784 -0.2699
  102MOL   C21742839   7.325   5.546   5.570 -0.2629  0.0449 -0.0133
  102MOL   C21842840   7.411   5.631   5.660 -0.3410  0.3162  0.4463
  102MOL   H21942841   6.977   5.274   5.281 -0.4666  0.0708  1.3824
  102MOL   H22042842   6.956   5.441   5.256 -2.5764 -0.2848 -0.8525
  102MOL   H22142843   7.158   5.432   5.085  0.9085 -0.3288 -0.5560
  102MOL   H22242844   7.252   5.349   5.354 -2.4957 -0.1880  0.3023
  102MOL   H22342845   7.326   5.445   5.239  0.2659 -0.2169  0.2647
  102MOL   H22442846   7.099   5.504   5.435 -0.0711 -1.1735 -0.3534
  102MOL   H22542847   7.115   5.618   5.302 -0.0779  1.9591  1.2128
  102MOL   H22642848   7.366   5.635   5.364 -0.4641  0.9773 -1.8535
  102MOL   H22742849   7.244   5.717   5.448  2.4421  0.7216 -0.7227
  102MOL   H22842850   7.239   5.532   5.636  0.4077 -0.0082  0.8652
  102MOL   H22942851   7.365   5.445   5.557 -1.1224 -0.1348 -1.3501
  102MOL   H23042852   7.515   5.636   5.627 -0.6193 -1.0110 -0.7083
  102MOL   H23142853   7.410   5.598   5.764 -0.4351  2.2019  1.0623
  102MOL   H23242854   7.384   5.736   5.667  3.0179  1.1837  1.3606
  102MOL   C23342855   7.188   5.220   5.130 -0.5415 -0.6120 -0.9459
  102MOL   C23442856   7.306   5.234   5.030  0.4938 -0.0294  1.1002
  102MOL   C23542857   7.383   5.102   5.017 -0.3063 -0.5195 -0.4646
  102MOL   C23642858   7.529   5.121   5.053  0.2856  0.0364  0.4887
  102MOL   C23742859   7.618   4.992   5.016 -0.4199 -0.6589  0.1336
  102MOL   C23842860   0.063   5.002   5.038 -0.1819 -0.0860  1.4232
  102MOL   C23942861   0.123   4.867   5.000 -0.3401 -0.4432  0.1383
  102MOL   H24042862   7.105   5.162   5.091 -2.0173  1.4298 -0.8737
  102MOL   H24142863   7.219   5.169   5.222  0.7231  0.7122 -0.6156
  102MOL   H24242864   7.370   5.315   5.064 -0.6287  1.2758  0.1460
  102MOL   H24342865   7.368   5.061   4.917 -0.1755  0.0836 -0.7367
  102MOL   H24442866   7.342   5.025   5.082  2.3080 -1.2492  0.3796
  102MOL   H24542867   7.532   5.155   5.157  0.5573 -1.6765  1.0709
  102MOL   H24642868   7.575   5.208   5.006 -0.1781 -0.5821 -1.1150
  102MOL   H24742869   7.596   4.980   4.910 -0.4030  0.9518 -0.0653
  102MOL   H24842870   7.582   4.902   5.066  0.5754 -0.0945  1.9015
  102MOL   H24942871   0.116   5.073   4.974  0.8012 -3.5577 -1.7978
  102MOL   H25042872   0.073   5.020   5.145  1.8243  0.4500  1.1728
  102MOL   H25142873   0.126   4.841   4.894 -0.9248 -2.3486  0.5712
  102MOL   H25242874   0.229   4.863   5.025 -0.1475 -1.9245 -0.8487
  102MOL   H25342875   0.080   4.780   5.048  1.1574 -0.1366  2.0764
  102MOL   C25442876   7.252   5.267   4.894  0.1227  0.6034 -0.4767
  102MOL   C25542877   7.361   5.302   4.788 -0.3100 -0.2316  0.1283
  102MOL   C25642878   7.379   5.452   4.787  0.5181 -0.2241  0.8466
  102MOL   C25742879   7.438   5.520   4.912 -0.4601  0.4148 -0.7014
  102MOL   C25842880   7.479   5.662   4.900 -0.5130 -0.0995 -0.4075
  102MOL   C25942881   7.554   5.711   5.021 -0.3759  0.5365 -0.4879
  102MOL   C26042882   7.465   5.761   5.136  0.4625  0.4574  0.4964
  102MOL   H26142883   7.191   5.357   4.888 -1.1484 -0.2197  0.0174
  102MOL   H26242884   7.196   5.179   4.863  1.4898  0.0294 -1.3848
  102MOL   H26342885   7.453   5.255   4.821  0.5687  0.1214 -1.7433
  102MOL   H26442886   7.288   5.508   4.763  1.1926  1.3695  1.9317
  102MOL   H26542887   7.446   5.471   4.703  0.5289 -1.3249  0.6090
  102MOL   H26642888   7.359   5.517   4.987 -1.0246 -2.4657 -1.3551
  102MOL   H26742889   7.530   5.470   4.941  2.0019  2.5046 -4.3582
  102MOL   H26842890   7.388   5.722   4.895  0.3757  1.3569  0.5918
  102MOL   H26942891   7.532   5.673   4.805 -0.3072  0.0683 -0.2754
  102MOL   H27042892   7.622   5.636   5.061 -1.1761  0.9831  1.7798
  102MOL   H27142893   7.617   5.790   4.981  0.8545  0.7801  1.8961
  102MOL   H27242894   7.364   5.722   5.129  0.8023 -0.5043  0.9008
  102MOL   H27342895   7.511   5.732   5.230  1.0423  0.1325  0.1122
  102MOL   H27442896   7.449   5.869   5.141 -2.2755  0.1899 -1.1986
  102MOL   C27542897   7.331   5.238   4.647  0.4162  0.1221 -0.3872
  102MOL   C27642898   7.463   5.206   4.570  0.1455  0.4093 -0.1776
  102MOL   C27742899   7.446   5.222   4.412  1.3053  0.4203 -0.0796
  102MOL   C27842900   7.354   5.109   4.363 -0.3066 -0.6182  0.6821
  102MOL   C27942901   7.331   5.102   4.211 -0.3449 -0.5842 -0.1435
  102MOL   C28042902   7.243   5.221   4.155  0.2584  0.5063 -0.2775
  102MOL   C28142903   7.197   5.201   4.014  0.2870  0.7589  0.1439
  102MOL   H28242904   7.256   5.301   4.600 -1.7491 -2.5897 -0.6903
  102MOL   H28342905   7.278   5.143   4.657  0.4659  0.2451  1.2307
  102MOL   H28442906   7.539   5.279   4.600 -1.3132  1.6590  0.5417
  102MOL   H28542907   7.403   5.318   4.383  1.5765  0.6650  0.3136
  102MOL   H28642908   7.543   5.212   4.364  0.4836 -1.1370 -1.4650
  102MOL   H28742909   7.258   5.111   4.413 -0.9099 -0.4187 -0.4655
  102MOL   H28842910   7.399   5.016   4.397  1.7221  1.1855  3.1557
  102MOL   H28942911   7.295   5.002   4.187 -2.8525 -0.4265  2.6895
  102MOL   H29042912   7.427   5.092   4.159 -0.8840 -3.4845 -0.6680
  102MOL   H29142913   7.164   5.234   4.228 -0.5624  1.6843 -1.3574
  102MOL   H29242914   7.302   5.313   4.154 -1.5047  1.6604 -1.9015
  102MOL   H29342915   7.279   5.179   3.945  0.3451  1.3798  0.0084
  102MOL   H29442916   7.146   5.294   3.992 -0.9027  0.4468  1.5027
  102MOL   H29542917   7.132   5.114   4.022  1.2955  0.0992  1.4826
  102MOL   C29642918   7.525   5.075   4.611 -0.6454 -0.1096 -0.3655
  102MOL   C29742919   7.678   5.050   4.584  0.1758  0.1552 -0.0301
  102MOL   C29842920   0.060   5.175   4.593 -0.5155 -0.4067  0.0410
  102MOL   C29942921   0.066   5.220   4.744 -0.3391 -0.1736  0.0479
  102MOL   C30042922   0.119   5.362   4.771  0.3025  0.2160 -0.0884
  102MOL   C30142923   0.116   5.401   4.914 -0.3836 -0.0316 -0.1661
  102MOL   C30242924   0.177   5.536   4.944  0.2659  0.2736 -0.1142
  102MOL   H30342925   7.519   5.078   4.720  1.1937 -1.0690 -0.2242
  102MOL   H30442926   7.468   4.984   4.593 -1.4068  0.2418  0.2510
  102MOL   H30542927   7.711   4.972   4.653  2.7616 -1.7269 -3.2009
  102MOL   H30642928   0.161   5.156   4.556 -0.0024  0.9753  0.7076
  102MOL   H30742929   0.026   5.259   4.534 -0.1132  0.3425  0.8526
  102MOL   H30842930   0.127   5.144   4.793  3.0000  1.4230 -1.4088
  102MOL   H30942931   7.678   5.208   4.781 -1.0449  1.8233 -1.1667
  102MOL   H31042932   0.075   5.424   4.693  0.2289 -1.3285 -1.3213
  102MOL   H31142933   0.221   5.366   4.734  0.4333 -0.4649  0.1852
  102MOL   H31242934   0.020   5.378   4.960  0.4392  0.9749  2.1063
  102MOL   H31342935   0.176   5.333   4.975 -0.7530 -0.0697  0.1611
  102MOL   H31442936   0.155   5.575   5.043  0.0144  0.9418 -0.4316
  102MOL   H31542937   0.285   5.520   4.941  0.1581 -0.2381 -3.2738
  102MOL   H31642938   0.144   5.608   4.869 -1.2974  0.2908  0.5798
  102MOL   C31742939   7.693   4.975   4.447 -0.2997  0.1140 -0.4512
  102MOL   C31842940   0.103   4.885   4.429 -0.3929 -0.1515 -0.4693
  102MOL   C31942941   0.084   4.749   4.515 -0.1437  1.0448  0.0603
  102MOL   C32042942   0.210   4.694   4.573 -0.1741 -0.3795  0.2494
  102MOL   C32142943   0.186   4.576   4.664 -0.0295  0.3014  0.3060
  102MOL   C32242944   0.310   4.547   4.752  0.3660 -0.5039  0.3069
  102MOL   C32342945   0.282   4.447   4.860  0.1769 -0.5453  0.1122
  102MOL   H32442946   7.679   5.049   4.369  0.7247  1.0446  0.2280
  102MOL   H32542947   7.613   4.904   4.428  0.3256 -0.0622 -2.5026
  102MOL   H32642948   0.189   4.932   4.477  0.3427 -0.2652 -1.6733
  102MOL   H32742949   0.042   4.678   4.444  1.9753 -0.4803  0.3031
  102MOL   H32842950   0.012   4.766   4.595 -0.5692  0.2496 -0.1570
  102MOL   H32942951   0.243   4.771   4.643  3.1600  0.9977 -2.7307
  102MOL   H33042952   0.294   4.670   4.509 -0.3825 -0.1373 -0.1131
  102MOL   H33142953   0.161   4.487   4.607 -0.3862 -0.9586  2.3678
  102MOL   H33242954   0.099   4.600   4.725  0.1325 -1.1043  1.1058
  102MOL   H33342955   0.353   4.639   4.794 -0.3819  0.9100 -1.9490
  102MOL   H33442956   0.387   4.509   4.685 -1.1205 -0.5643 -1.4055
  102MOL   H33542957   0.245   4.359   4.808 -1.7679  0.0759  0.3910
  102MOL   H33642958   0.201   4.483   4.924 -0.8374 -2.1694 -0.2276
  102MOL   H33742959   0.372   4.419   4.914 -0.5314 -0.5900  1.2792
  102MOL   C33842960   0.125   4.868   4.276  0.0564 -0.0227  0.3366
  102MOL   C33942961   0.228   4.978   4.217  0.5386 -0.6539 -0.4268
  102MOL   C34042962   0.201   5.013   4.068 -0.0552  0.4545  0.3632
  102MOL   C34142963   0.054   5.009   4.028  0.1254  1.0667  0.1214
  102MOL   C34242964   0.025   5.051   3.888 -0.0381 -0.0060  0.4910
  102MOL   C34342965   7.585   5.058   3.852  0.2274 -0.2766 -0.1037
  102MOL   C34442966   7.511   4.925   3.862 -0.0501  0.3255 -0.1261
  102MOL   H34542967   0.025   4.860   4.233  0.2036  0.4968 -0.1007
  102MOL   H34642968   0.169   4.771   4.252 -1.7540 -0.5457 -1.0105
  102MOL   H34742969   0.205   5.064   4.281  1.1405 -0.3112 -0.6708
  102MOL   H34842970   0.245   5.112   4.057 -0.5538  0.6494  0.1402
  102MOL   H34942971   0.254   4.944   4.002 -1.4003  2.5112 -2.9538
  102MOL   H35042972   7.706   5.071   4.094 -1.8835  1.1814 -1.7786
  102MOL   H35142973   0.016   4.907   4.030  4.6077 -0.6870  1.4461
  102MOL   H35242974   0.063   5.149   3.861 -1.7664  0.1811 -1.4133
  102MOL   H35342975   0.069   4.979   3.819 -0.4791 -1.0924  1.3155
  102MOL   H35442976   7.528   5.124   3.917  2.1514  1.5916 -0.2470
  102MOL   H35542977   7.565   5.101   3.754 -0.6088  0.6436  0.4615
  102MOL   H35642978   7.458   4.901   3.955  2.7244 -1.1182  1.1478
  102MOL   H35742979   7.576   4.842   3.836 -0.8748 -0.7828  1.2488
  102MOL   H35842980   7.441   4.921   3.778 -0.0874 -0.5902 -0.0629
  102MOL   C35942981   0.374   4.947   4.260 -0.1340 -0.0964  0.5406
  102MOL   C36042982   0.473   5.062   4.224  0.0121 -0.0387  0.0376
  102MOL   C36142983   0.453   5.189   4.312 -0.4455 -0.5539 -0.5159
  102MOL   C36242984   0.535   5.303   4.249  0.1227  0.5718 -0.3938
  102MOL   C36342985   0.491   5.438   4.294  0.2905 -0.1673 -0.0361
  102MOL   C36442986   0.367   5.506   4.226 -0.7058 -0.3974 -0.1676
  102MOL   C36542987   0.303   5.611   4.320  0.0355 -0.3015  0.0478
  102MOL   H36642988   0.404   4.859   4.205  2.6726  0.9427  0.3093
  102MOL   H36742989   0.379   4.933   4.368  1.4277 -0.0346  0.4823
  102MOL   H36842990   0.473   5.091   4.119 -1.6633 -2.2855 -0.6295
  102MOL   H36942991   0.347   5.210   4.325 -0.4280 -0.5051 -0.4459
  102MOL   H37042992   0.497   5.163   4.409 -1.3168  0.7567  0.2532
  102MOL   H37142993   0.641   5.297   4.273 -0.1339 -2.7500  0.1099
  102MOL   H37242994   0.522   5.315   4.141 -1.0127 -1.3038 -0.4914
  102MOL   H37342995   0.472   5.438   4.401  0.9941 -2.2725  0.0992
  102MOL   H37442996   0.569   5.513   4.281  1.0349 -0.6239  1.6409
  102MOL   H37542997   0.405   5.557   4.137 -0.8222  0.5480  0.3161
  102MOL   H37642998   0.299   5.422   4.211 -2.5404  0.6813  1.8838
  102MOL   H37742999   0.363   5.699   4.345 -1.0705  0.2071  0.9996
  102MOL   H37843000   0.210   5.647   4.274 -0.2974 -2.7319 -1.2490
  102MOL   H37943001   0.269   5.562   4.411  1.2827  2.7242  2.2093
  102MOL   C38043002   0.611   5.008   4.243 -0.5582 -0.0825  0.4743
  102MOL   C38143003   0.670   4.897   4.145 -0.2319  0.1672 -0.2039
  102MOL   C38243004   0.636   4.928   3.995  0.8047  0.6084  0.3332
  102MOL   C38343005   0.680   4.828   3.886 -0.2332  0.8108  0.9018
  102MOL   C38443006   0.600   4.697   3.886 -0.1515  0.1764  0.2210
  102MOL   C38543007   0.657   4.581   3.795  0.1013  0.0942  0.0973
  102MOL   C38643008   0.604   4.608   3.656 -0.1925 -0.2894  1.0992
  102MOL   H38743009   0.681   5.089   4.225  0.5962 -0.9301  1.1254
  102MOL   H38843010   0.619   4.981   4.348 -0.4051  0.0951  0.5091
  102MOL   H38943011   0.620   4.803   4.166  0.7335 -1.0253 -3.1356
  102MOL   H39043012   0.673   5.026   3.962 -0.2712  0.6575 -0.7298
  102MOL   H39143013   0.528   4.940   3.989  0.8042  1.5860  2.0675
  102MOL   H39243014   0.671   4.863   3.784  0.5470 -1.0204  0.1818
  102MOL   H39343015   0.788   4.823   3.898 -0.1524 -0.6890 -0.3019
  102MOL   H39443016   0.620   4.658   3.986  3.2069 -3.1526 -1.6070
  102MOL   H39543017   0.495   4.725   3.878  0.4744  2.3273 -0.6624
  102MOL   H39643018   0.610   4.489   3.832  0.6123  0.1226  0.8233
  102MOL   H39743019   0.766   4.575   3.789  0.0749 -0.1765 -0.1617
  102MOL   H39843020   0.655   4.535   3.594 -1.9982 -1.9183  1.4772
  102MOL   H39943021   0.622   4.707   3.614 -0.0047 -0.1292  1.5597
  102MOL   H40043022   0.499   4.582   3.638  0.2442 -1.8071  0.7287
  102MOL   C40143023   0.815   4.870   4.162  0.1576 -0.8178 -0.6984
  102MOL   C40243024   0.837   4.809   4.301  0.5228  0.0095 -0.1499
  102MOL   C40343025   0.961   4.719   4.317 -0.2922 -0.0042  0.2732
  102MOL   C40443026   1.092   4.804   4.301 -0.5952 -0.0709  0.0393
  102MOL   C40543027   1.218   4.716   4.285  0.2535 -0.1466 -0.1875
  102MOL   C40643028   1.341   4.799   4.253 -0.1136 -0.1387  0.8057
  102MOL   C40743029   1.466   4.720   4.242 -0.0841  0.4999 -0.3461
  102MOL   H40843030   0.873   4.961   4.144 -1.0582 -0.0808 -0.9784
  102MOL   H40943031   0.840   4.794   4.088  2.1669 -0.0779 -0.8205
  102MOL   H41043032   0.757   4.741   4.330  2.1450 -2.1785 -0.7008
  102MOL   H41143033   0.965   4.635   4.248  1.7441  0.2227  0.0962
  102MOL   H41243034   0.969   4.676   4.417  0.9401  0.3172  0.3097
  102MOL   H41343035   1.098   4.885   4.374 -0.3660 -0.3338  0.3119
  102MOL   H41443036   1.086   4.855   4.205 -3.7230 -1.3415 -0.4885
  102MOL   H41543037   1.237   4.670   4.381 -1.8052  1.0654  0.8309
  102MOL   H41643038   1.215   4.639   4.208 -0.5005 -1.8551  1.5270
  102MOL   H41743039   1.327   4.848   4.156 -0.3714 -0.9713  0.4204
  102MOL   H41843040   1.346   4.887   4.317  0.1729 -0.9004  1.8258
  102MOL   H41943041   1.477   4.664   4.335 -0.5816  1.5957  0.3892
  102MOL   H42043042   1.549   4.788   4.225  0.6474 -0.4151 -0.4715
  102MOL   H42143043   1.456   4.647   4.162 -1.0455 -0.4076  0.5925
  102MOL   H42243044   0.845   4.879   4.384  1.2586  0.4064 -0.5494
  103MOL     C143045   0.459   5.392   2.729 -0.0012 -0.7361  0.3632
  103MOL     C243046   0.440   5.520   2.650  0.5827 -0.5207 -0.7396
  103MOL     C343047   0.302   5.577   2.678  0.2612  0.2029  0.5674
  103MOL     C443048   0.278   5.616   2.824 -0.0085  0.4945  0.0858
  103MOL     C543049   0.148   5.700   2.849  0.1149 -0.1729 -0.3561
  103MOL     C643050   0.118   5.716   2.998 -0.3703 -0.9048  0.0109
  103MOL     C743051   0.214   5.803   3.086 -0.8085  1.1349 -0.5635
  103MOL     H843052   0.547   5.341   2.690 -0.4051  1.5037 -3.7916
  103MOL     H943053   0.374   5.324   2.728 -0.1603 -0.5354  0.1486
  103MOL    H1043054   0.504   5.602   2.683  2.3442 -1.9225 -0.5529
  103MOL    H1143055   0.288   5.670   2.623  0.7678 -1.2209 -2.0358
  103MOL    H1243056   0.226   5.504   2.650 -0.6798  2.1326 -2.1318
  103MOL    H1343057   0.278   5.528   2.888  1.1672  0.1982 -0.3103
  103MOL    H1443058   0.362   5.667   2.872  0.6143 -1.4561  1.0948
  103MOL    H1543059   0.065   5.642   2.808  0.1745 -0.8307  0.4409
  103MOL    H1643060   0.164   5.796   2.800  1.0344  0.8434  1.8834
  103MOL    H1743061   0.097   5.620   3.044 -1.6670 -1.1756 -1.1031
  103MOL    H1843062   0.018   5.759   3.002  0.5433  1.5839 -2.2237
  103MOL    H1943063   0.214   5.908   3.058 -2.1866  1.1956 -0.3958
  103MOL    H2043064   0.313   5.764   3.064 -1.7735 -1.6058 -0.2999
  103MOL    H2143065   0.198   5.782   3.192 -0.0750  0.2550 -0.6150
  103MOL    H2243066   0.463   5.421   2.834  1.7952 -1.2217  0.4389
  103MOL    C2343067   0.473   5.508   2.500 -0.1155  0.3886 -0.6690
  103MOL    C2443068   0.618   5.518   2.459 -0.1558 -0.3868  0.5754
  103MOL    C2543069   0.672   5.667   2.478 -0.6414 -0.5680  0.1435
  103MOL    C2643070   0.824   5.672   2.507  0.3066  0.0761  0.6240
  103MOL    C2743071   0.869   5.824   2.498  0.3187 -0.6406  0.4059
  103MOL    C2843072   0.997   5.847   2.577 -0.1095 -0.2903  0.1177
  103MOL    C2943073   1.054   5.988   2.575 -0.8194  0.4336 -0.0920
  103MOL    H3043074   0.440   5.408   2.474  1.4614 -0.5543  0.8629
  103MOL    H3143075   0.420   5.577   2.434 -2.1330  0.4234  0.9258
  103MOL    H3243076   0.683   5.451   2.515 -0.8666 -0.3111  1.5079
  103MOL    H3343077   0.629   5.714   2.566 -0.1494 -0.3636  0.2724
  103MOL    H3443078   0.636   5.724   2.392  0.1155 -3.2526 -2.0336
  103MOL    H3543079   0.882   5.615   2.435  2.5744 -0.2125  2.6153
  103MOL    H3643080   0.841   5.635   2.609 -2.1930  0.9604  1.3859
  103MOL    H3743081   0.792   5.891   2.537  0.2652 -0.0934 -0.6370
  103MOL    H3843082   0.886   5.848   2.393  0.1351 -1.3220  0.2223
  103MOL    H3943083   1.073   5.774   2.549  0.1232  1.3383 -3.7650
  103MOL    H4043084   0.981   5.818   2.681  1.1882 -1.7602 -0.0670
  103MOL    H4143085   0.981   6.062   2.607 -5.1340 -3.6431  0.0853
  103MOL    H4243086   1.127   5.997   2.655  0.2841  0.5938 -1.1015
  103MOL    H4343087   1.098   6.009   2.477  0.6170  0.5263  0.5552
  103MOL    C4443088   0.649   5.480   2.310  0.1054 -0.1250 -0.3610
  103MOL    C4543089   0.628   5.329   2.278 -0.4912 -0.4895  0.3089
  103MOL    C4643090   0.621   5.318   2.127  0.5548 -0.3058 -0.3370
  103MOL    C4743091   0.550   5.188   2.080 -0.0027 -0.0876  0.3980
  103MOL    C4843092   0.546   5.183   1.923 -0.1772 -0.2933  0.2272
  103MOL    C4943093   0.505   5.045   1.863 -0.0926  0.6269  0.5962
  103MOL    C5043094   0.629   4.952   1.857  0.0373  0.1089  0.0086
  103MOL    H5143095   0.750   5.507   2.278 -0.2144  2.5518  0.7129
  103MOL    H5243096   0.585   5.538   2.244 -0.9174 -0.8833 -0.0446
  103MOL    H5343097   0.527   5.295   2.301 -0.9920  0.8371  0.0787
  103MOL    H5443098   0.722   5.324   2.086  0.8941 -1.3944  0.3312
  103MOL    H5543099   0.568   5.406   2.090 -0.3293  0.4230  2.5677
  103MOL    H5643100   0.597   5.096   2.115 -0.1326  0.0007  0.8126
  103MOL    H5743101   0.451   5.166   2.120 -1.2317  0.0420 -2.4718
  103MOL    H5843102   0.642   5.220   1.887 -0.8368  1.3755  0.1641
  103MOL    H5943103   0.472   5.259   1.897  1.5641  2.2328  2.4358
  103MOL    H6043104   0.471   5.062   1.761  0.7796  1.5509  0.4462
  103MOL    H6143105   0.419   5.011   1.921 -0.8868  1.4870 -0.0600
  103MOL    H6243106   0.601   4.849   1.836  0.6646  0.2942 -1.7371
  103MOL    H6343107   0.665   4.952   1.960 -0.5795  0.9546  0.2267
  103MOL    H6443108   0.698   4.990   1.782  0.0122 -1.0862 -0.6350
  103MOL    C6543109   0.735   5.234   2.326  0.0293  0.4797 -0.5718
  103MOL    C6643110   0.727   5.188   2.484  0.5825  0.2514  0.8772
  103MOL    C6743111   0.856   5.229   2.569 -0.4791 -0.2773  0.0511
  103MOL    C6843112   0.995   5.163   2.534 -0.0902 -0.0109  0.5310
  103MOL    C6943113   1.103   5.191   2.643  0.0178  0.2628 -0.5080
  103MOL    C7043114   1.243   5.123   2.619 -0.0817 -0.0800 -0.1185
  103MOL    C7143115   1.239   4.968   2.644  0.1007  0.1492 -0.3692
  103MOL    H7243116   0.738   5.143   2.267  0.9543 -1.4646  2.3684
  103MOL    H7343117   0.829   5.289   2.317  0.4471  0.0345  0.8858
  103MOL    H7443118   0.646   5.233   2.541  0.7242  0.0653  1.2276
  103MOL    H7543119   0.876   5.334   2.548  2.9423 -0.9824 -0.5565
  103MOL    H7643120   0.829   5.236   2.674  1.3649 -1.9434  0.6511
  103MOL    H7743121   0.984   5.055   2.543 -0.9961 -0.1590 -1.8888
  103MOL    H7843122   1.027   5.184   2.431 -0.5372 -1.0741  0.1688
  103MOL    H7943123   1.119   5.299   2.643  0.1743  0.2564  1.6319
  103MOL    H8043124   1.061   5.160   2.738 -2.0741  1.2325 -1.0932
  103MOL    H8143125   1.318   5.175   2.678 -1.1654  1.4573 -0.0793
  103MOL    H8243126   1.279   5.150   2.520 -1.2946  1.2532 -0.2091
  103MOL    H8343127   1.340   4.935   2.618  0.7494  1.2212  0.7760
  103MOL    H8443128   1.214   4.946   2.747  0.8410  1.0793  0.0112
  103MOL    H8543129   1.165   4.918   2.581 -2.2239  2.1536  0.7045
  103MOL    C8643130   0.703   5.032   2.497 -0.4298  0.2148  0.6825
  103MOL    C8743131   0.561   4.978   2.462  0.3340  0.0905  0.1312
  103MOL    C8843132   0.557   4.830   2.412 -0.0590  0.1538 -0.0031
  103MOL    C8943133   0.579   4.805   2.258 -0.0374  0.2137 -0.7075
  103MOL    C9043134   0.633   4.673   2.216 -0.1484 -0.1277  0.2255
  103MOL    C9143135   0.686   4.662   2.074  0.4203  0.8106 -0.0191
  103MOL    C9243136   0.721   4.515   2.043 -0.3733  0.1906 -0.1894
  103MOL    H9343137   0.777   4.981   2.436  2.5744  1.3594  3.2428
  103MOL    H9443138   0.735   4.994   2.594 -0.6357  0.0456  0.6857
  103MOL    H9543139   0.523   5.034   2.376 -1.0409  0.3063  0.8768
  103MOL    H9643140   0.629   4.777   2.475 -2.7795 -0.8564  2.3647
  103MOL    H9743141   0.464   4.777   2.435  1.2554 -1.6695  1.2600
  103MOL    H9843142   0.480   4.824   2.215 -0.2493 -1.3542 -0.9366
  103MOL    H9943143   0.644   4.885   2.224 -1.8624  1.6630 -0.8722
  103MOL   H10043144   0.547   4.606   2.221 -0.2364  0.0025  0.4596
  103MOL   H10143145   0.691   4.614   2.288  0.7261  0.3255 -0.0952
  103MOL   H10243146   0.619   4.696   1.995 -0.1343 -0.7723 -0.2520
  103MOL   H10343147   0.774   4.725   2.064  1.2518 -0.1604  1.0255
  103MOL   H10443148   0.762   4.498   1.943  0.1531 -1.6427  0.3149
  103MOL   H10543149   0.627   4.461   2.046 -0.7787  0.8824 -0.2518
  103MOL   H10643150   0.793   4.469   2.110 -0.5446  0.2911  0.0597
  103MOL   C10743151   0.470   5.002   2.587 -0.1772  0.3937  0.4090
  103MOL   C10843152   0.312   4.982   2.580 -0.3517 -0.1378 -0.1980
  103MOL   C10943153   0.262   4.940   2.716 -0.7738 -0.0083  0.9023
  103MOL   C11043154   0.277   5.034   2.834  0.5120  0.7524  0.7040
  103MOL   C11143155   0.202   4.992   2.967 -0.5712 -0.3336 -0.2988
  103MOL   C11243156   0.221   5.087   3.081 -0.2723 -0.1672 -0.0342
  103MOL   C11343157   0.366   5.084   3.145 -0.2406  0.4178 -0.0720
  103MOL   H11443158   0.495   5.102   2.623  0.8853  0.2840 -0.0085
  103MOL   H11543159   0.509   4.927   2.655 -0.5254 -1.7045 -1.6385
  103MOL   H11643160   0.294   4.895   2.518 -2.7642  0.2409 -0.0497
  103MOL   H11743161   0.318   4.852   2.747 -1.0675 -0.1131  1.1302
  103MOL   H11843162   0.162   4.910   2.688 -0.5893  1.5335 -1.5694
  103MOL   H11943163   0.383   5.041   2.862  0.3849  2.0305  0.9046
  103MOL   H12043164   0.259   5.140   2.817 -1.3296 -0.0514 -2.9136
  103MOL   H12143165   0.243   4.897   3.000  0.2641  0.0169 -0.3206
  103MOL   H12243166   0.098   4.981   2.935 -0.2410 -0.3398 -1.3889
  103MOL   H12343167   0.207   5.190   3.048  0.2183  0.5157  1.8262
  103MOL   H12443168   0.145   5.062   3.154 -0.5566  1.1500  0.1336
  103MOL   H12543169   0.443   5.097   3.069  1.4682 -1.0684  1.3597
  103MOL   H12643170   0.387   5.157   3.222 -0.3695  1.1549 -0.7283
  103MOL   H12743171   0.379   4.981   3.179  0.0624  0.1960 -0.8276
  103MOL   C12843172   0.246   5.109   2.513  0.2113  0.4720  0.7264
  103MOL   C12943173   0.124   5.080   2.424  0.6973 -0.3030  0.2169
  103MOL   C13043174   0.161   5.095   2.272  0.0522  0.0399 -0.4554
  103MOL   C13143175   0.063   5.025   2.170 -0.3365  0.2324  0.0189
  103MOL   C13243176   0.114   5.031   2.025 -0.4564 -0.4610 -0.6160
  103MOL   C13343177   0.008   4.970   1.930 -0.2342  0.3503 -0.8853
  103MOL   C13443178   0.066   4.975   1.794 -0.3560 -0.7526  0.7077
  103MOL   H13543179   0.216   5.178   2.591  1.4539 -0.7850  2.3668
  103MOL   H13643180   0.321   5.167   2.460  1.0036  0.1441  1.4792
  103MOL   H13743181   0.099   4.975   2.438  0.0798 -0.0208  1.3107
  103MOL   H13843182   0.258   5.047   2.269  0.7208  1.3747 -0.3966
  103MOL   H13943183   0.167   5.201   2.246  0.1989 -0.1602 -1.2162
  103MOL   H14043184   7.683   5.081   2.173  0.3385  1.2908  3.3528
  103MOL   H14143185   0.034   4.923   2.197 -0.7196 -0.3985 -2.6468
  103MOL   H14243186   0.207   4.976   2.009 -0.2247 -0.4532  0.6840
  103MOL   H14343187   0.128   5.133   1.989 -2.0607 -0.1608 -0.4296
  103MOL   H14443188   7.637   5.037   1.920 -1.7432 -1.5518 -1.2719
  103MOL   H14543189   7.688   4.872   1.965 -1.6327  1.2857  0.3982
  103MOL   H14643190   0.154   4.915   1.774 -1.4964 -1.7418 -1.4429
  103MOL   H14743191   0.087   5.079   1.769 -0.5688 -1.0694 -0.8130
  103MOL   H14843192   7.703   4.937   1.727  0.8909 -0.6043 -0.8160
  103MOL   C14943193   7.709   5.149   2.472 -0.0565 -0.0134  0.5450
  103MOL   C15043194   7.713   5.305   2.476  0.6918  0.3098  0.1988
  103MOL   C15143195   7.626   5.351   2.604  0.6658  0.1252 -0.5414
  103MOL   C15243196   7.686   5.305   2.741 -0.4531 -0.0033  0.6139
  103MOL   C15343197   7.578   5.338   2.850  0.2803 -0.3186 -1.8461
  103MOL   C15443198   7.629   5.296   2.990  0.4123  0.3880  0.2650
  103MOL   C15543199   7.542   5.333   3.110 -0.0963  0.4252 -0.2145
  103MOL   H15643200   7.623   5.127   2.409  0.5554  1.2690 -0.7831
  103MOL   H15743201   7.689   5.103   2.568  1.6409 -0.3992  0.7172
  103MOL   H15843202   0.103   5.335   2.497  1.0937 -1.0344  0.1688
  103MOL   H15943203   7.618   5.459   2.610 -0.3762  0.0339 -0.1454
  103MOL   H16043204   7.530   5.299   2.599  0.4298  0.3621  1.1955
  103MOL   H16143205   0.063   5.360   2.765  1.2811 -2.5225  0.0235
  103MOL   H16243206   7.707   5.199   2.754  1.5397  0.1517 -1.1236
  103MOL   H16343207   7.484   5.286   2.831 -0.2776 -0.8090  1.8033
  103MOL   H16443208   7.558   5.445   2.852  0.6544 -0.2303  2.5910
  103MOL   H16543209   0.014   5.335   3.015  0.8649 -1.6603  1.7944
  103MOL   H16643210   7.645   5.188   2.992  1.6804  0.5012 -1.9610
  103MOL   H16743211   7.551   5.438   3.138  0.2820 -0.1829  2.0747
  103MOL   H16843212   7.591   5.273   3.186 -0.4100  2.2313  1.4628
  103MOL   H16943213   7.435   5.310   3.104 -0.2888  1.2359  0.0478
  103MOL   C17043214   7.659   5.359   2.351  0.2145  0.1043 -0.4051
  103MOL   C17143215   7.687   5.502   2.304  0.3726 -0.0254 -0.5881
  103MOL   C17243216   7.648   5.616   2.400 -0.0012 -0.1172 -0.3058
  103MOL   C17343217   7.641   5.760   2.332 -0.0181 -0.2634  0.6712
  103MOL   C17443218   7.536   5.853   2.396 -0.5885 -0.0159  0.1244
  103MOL   C17543219   7.524   5.994   2.315 -0.3928 -0.0186 -0.9056
  103MOL   C17643220   7.426   6.095   2.375 -0.3506  0.4237  0.4910
  103MOL   H17743221   7.550   5.361   2.361  0.1966 -0.5799 -0.4293
  103MOL   H17843222   7.673   5.295   2.264  2.0369  1.2057 -0.9302
  103MOL   H17943223   7.633   5.516   2.211 -1.6607 -2.0296  0.2332
  103MOL   H18043224   0.004   5.617   2.485  1.4647 -2.3195 -1.4300
  103MOL   H18143225   7.551   5.599   2.446 -1.1453  0.7392 -2.3336
  103MOL   H18243226   7.611   5.741   2.229  0.1698  2.0656  0.1648
  103MOL   H18343227   0.020   5.816   2.322  1.8317 -3.5452 -1.1603
  103MOL   H18443228   7.540   5.866   2.504  0.1892  0.4757  0.0373
  103MOL   H18543229   7.439   5.805   2.385 -0.3530 -0.9356  1.8382
  103MOL   H18643230   7.505   5.970   2.210 -2.4799 -0.2953 -0.4896
  103MOL   H18743231   7.626   6.033   2.316 -0.9205  1.3577 -0.2100
  103MOL   H18843232   7.437   6.182   2.311 -1.1193  0.9502  1.0524
  103MOL   H18943233   7.439   6.120   2.481 -0.6969  0.3663  0.5508
  103MOL   H19043234   7.325   6.055   2.367  0.3140 -1.1618 -0.0693
  103MOL   C19143235   0.120   5.515   2.267 -0.9859 -0.6482 -0.2805
  103MOL   C19243236   0.146   5.581   2.128  0.2179 -0.7176  0.2310
  103MOL   C19343237   0.279   5.660   2.129 -0.0114 -0.8193 -0.9184
  103MOL   C19443238   0.267   5.802   2.202  0.8463  0.1422 -0.7803
  103MOL   C19543239   0.388   5.884   2.180  0.3362  0.1866  0.1802
  103MOL   C19643240   0.371   6.011   2.257  0.3223 -0.9886 -0.1521
  103MOL   C19743241   0.493   6.111   2.242 -0.2530 -0.1636  0.0081
  103MOL   H19843242   0.172   5.422   2.284 -0.0175 -0.0168  0.2239
  103MOL   H19943243   0.162   5.568   2.352 -1.2341 -0.4812 -0.2609
  103MOL   H20043244   0.063   5.644   2.095 -1.0164 -0.9757  2.7234
  103MOL   H20143245   0.309   5.685   2.027 -2.0202  1.8040 -0.9320
  103MOL   H20243246   0.356   5.596   2.172  1.8135  0.0984 -2.7028
  103MOL   H20343247   0.251   5.783   2.308  2.3166 -2.8295 -1.0260
  103MOL   H20443248   0.179   5.851   2.161 -3.6593 -3.9116  3.3211
  103MOL   H20543249   0.476   5.823   2.203  0.2932 -0.1234 -0.4809
  103MOL   H20643250   0.386   5.905   2.074  0.6501 -1.2961 -0.1339
  103MOL   H20743251   0.367   5.995   2.365  0.6067 -0.7059 -0.0971
  103MOL   H20843252   0.280   6.067   2.235  0.2693  1.6213  5.6033
  103MOL   H20943253   0.480   6.210   2.286  1.5144 -0.3292  0.9298
  103MOL   H21043254   0.507   6.125   2.135  0.7001 -0.3795  0.1042
  103MOL   H21143255   0.585   6.065   2.276 -0.8313 -1.5451 -0.2545
  103MOL   C21243256   0.157   5.477   2.014 -0.2684  0.0745  0.1862
  103MOL   C21343257   0.125   5.547   1.882 -0.4430  0.1495  0.2159
  103MOL   C21443258   0.199   5.490   1.757 -0.1843 -0.0591 -0.0674
  103MOL   C21543259   0.349   5.519   1.763 -0.3624 -0.6283 -0.0096
  103MOL   C21643260   0.434   5.449   1.656  0.3046  0.3270  0.1225
  103MOL   C21743261   0.586   5.479   1.679 -0.3828  0.2743 -0.4266
  103MOL   C21843262   0.672   5.418   1.568  0.4276  0.8325  0.1512
  103MOL   H21943263   0.089   5.393   2.031 -0.7166 -0.4841 -3.8595
  103MOL   H22043264   0.256   5.431   2.020 -0.0919  0.3044 -0.9173
  103MOL   H22143265   0.163   5.648   1.894  0.8294 -0.3672  0.6649
  103MOL   H22243266   0.185   5.382   1.766  1.8759 -0.3721 -0.3785
  103MOL   H22343267   0.149   5.527   1.667  1.6860 -0.0107 -1.1038
  103MOL   H22443268   0.400   5.494   1.857 -0.4797 -0.6582  0.0460
  103MOL   H22543269   0.369   5.626   1.762 -0.9083 -0.5362 -2.2103
  103MOL   H22643270   0.422   5.340   1.651  1.2812  0.2380 -0.3258
  103MOL   H22743271   0.395   5.481   1.560 -2.6017  0.6911  1.3791
  103MOL   H22843272   0.610   5.584   1.664  0.7358 -0.0466 -0.9757
  103MOL   H22943273   0.616   5.451   1.780  1.0623 -1.0837 -1.2024
  103MOL   H23043274   0.634   5.452   1.471 -1.4187 -1.4511  0.0188
  103MOL   H23143275   0.669   5.309   1.572  0.0991  0.8643  0.8574
  103MOL   H23243276   0.775   5.448   1.588  0.7628  1.6304 -2.4995
  103MOL   C23343277   7.689   5.548   1.864 -0.0905  0.3058  0.0437
  103MOL   C23443278   7.647   5.659   1.764  0.3387  0.5751 -0.0038
  103MOL   C23543279   7.519   5.633   1.694 -1.0902 -0.2721  0.1287
  103MOL   C23643280   7.547   5.543   1.569 -1.2958 -0.3358 -0.7235
  103MOL   C23743281   7.414   5.501   1.503  0.2878  0.0175  0.0924
  103MOL   C23843282   7.333   5.612   1.427  0.0566 -0.5126  0.0003
  103MOL   C23943283   7.426   5.701   1.344  1.0083 -0.5105  0.0978
  103MOL   H24043284   7.631   5.558   1.955  0.9949 -1.6511  0.9750
  103MOL   H24143285   7.667   5.447   1.830  2.0480  0.5441 -2.2145
  103MOL   H24243286   0.001   5.672   1.679 -0.3885  0.4553 -0.6094
  103MOL   H24343287   7.468   5.722   1.656 -1.3929 -0.8416 -0.8302
  103MOL   H24443288   7.448   5.591   1.766 -3.4423 -0.2600 -2.0961
  103MOL   H24543289   7.604   5.455   1.601 -1.0842  0.5174  1.3125
  103MOL   H24643290   7.606   5.598   1.496  0.2774 -1.4384 -0.3237
  103MOL   H24743291   7.340   5.458   1.570  0.0359 -2.5488 -1.7712
  103MOL   H24843292   7.429   5.415   1.437  0.5381 -0.1953  0.4237
  103MOL   H24943293   7.256   5.562   1.368  0.1944  0.4458 -1.0219
  103MOL   H25043294   7.279   5.670   1.501  1.7634  2.0274 -0.6647
  103MOL   H25143295   7.364   5.775   1.295 -1.2066 -0.3776  3.0059
  103MOL   H25243296   7.492   5.755   1.412  0.6228  0.0893 -0.0085
  103MOL   H25343297   7.486   5.651   1.268  2.6928 -0.7092  1.5181
  103MOL   C25443298   7.634   5.797   1.837 -0.1003  0.7384 -0.4323
  103MOL   C25543299   0.014   5.916   1.794 -0.4259  0.3800 -0.0795
  103MOL   C25643300   0.015   6.021   1.914  1.1484  0.0186  0.3923
  103MOL   C25743301   0.122   6.138   1.901  0.3409  0.2958  0.6056
  103MOL   C25843302   0.126   6.240   2.020 -0.0764 -0.4390  0.1898
  103MOL   C25943303   0.248   6.333   2.010 -0.0491 -0.5331 -0.0148
  103MOL   C26043304   0.249   6.427   1.890 -0.0452 -0.6423  0.5964
  103MOL   H26143305   7.657   5.774   1.942 -0.2348 -2.5743 -1.0744
  103MOL   H26243306   7.531   5.831   1.847 -1.1732 -2.4592  0.0426
  103MOL   H26343307   0.117   5.882   1.782 -0.9582 -1.8107  1.3458
  103MOL   H26443308   0.015   5.967   2.008 -0.2745  1.5552  1.3077
  103MOL   H26543309   7.627   6.063   1.910  1.4288  0.5496 -2.6096
  103MOL   H26643310   0.222   6.094   1.893 -0.2013 -0.7135 -0.9025
  103MOL   H26743311   0.099   6.190   1.807  0.6218 -1.2344 -0.3212
  103MOL   H26843312   0.128   6.188   2.116  0.2994  1.2416  1.1065
  103MOL   H26943313   0.037   6.302   2.026 -0.1902 -0.7108  1.3620
  103MOL   H27043314   0.249   6.395   2.099  0.6376  2.3627 -1.9574
  103MOL   H27143315   0.337   6.270   2.003  1.5472  1.4720  1.3688
  103MOL   H27243316   0.268   6.365   1.802 -1.3921 -1.1166  0.6261
  103MOL   H27343317   0.156   6.481   1.871  1.6424  2.2068  0.2441
  103MOL   H27443318   0.339   6.487   1.897 -1.3378  1.4039 -0.0913
  103MOL   C27543319   7.692   5.982   1.656  0.2255 -0.7186  0.1937
  103MOL   C27643320   0.100   6.010   1.566 -0.2178 -0.6190  0.6141
  103MOL   C27743321   0.089   6.140   1.471 -0.3223  0.3675  0.0020
  103MOL   C27843322   7.708   6.118   1.350  0.0972  0.7963  0.6855
  103MOL   C27943323   7.687   6.253   1.278 -0.0697  0.4891  0.2287
  103MOL   C28043324   7.573   6.262   1.163 -0.3557 -0.4032 -0.4784
  103MOL   C28143325   7.585   6.394   1.077 -0.8618  0.5335  0.0331
  103MOL   H28243326   7.627   6.068   1.674  0.6094 -0.6150  1.1386
  103MOL   H28343327   7.625   5.916   1.602  0.0583  0.1601 -0.6831
  103MOL   H28443328   0.182   6.036   1.633  0.6634  0.8557 -0.9715
  103MOL   H28543329   0.050   6.218   1.535 -0.3531  0.0429  0.3805
  103MOL   H28643330   0.184   6.187   1.444  0.0363 -0.5455 -0.3586
  103MOL   H28743331   7.613   6.085   1.392 -0.5201  1.5555 -0.0792
  103MOL   H28843332   0.031   6.035   1.290 -0.0505 -0.7611  2.7278
  103MOL   H28943333   0.074   6.272   1.238  0.9880 -1.9092  1.6592
  103MOL   H29043334   7.665   6.340   1.340  0.1400  0.7272 -0.0239
  103MOL   H29143335   7.572   6.176   1.096  0.4240  0.4956 -1.6602
  103MOL   H29243336   7.477   6.267   1.215  0.3072 -2.1209  0.9584
  103MOL   H29343337   7.688   6.398   1.042 -0.8316  0.8113  0.1453
  103MOL   H29443338   7.579   6.488   1.132 -1.3412  0.2902  0.4005
  103MOL   H29543339   7.524   6.394   0.987 -2.8299  0.4370  1.3375
  103MOL   C29643340   0.145   5.880   1.493 -0.6206 -0.1183 -0.5123
  103MOL   C29743341   0.280   5.872   1.419  0.0241 -0.3661  0.2996
  103MOL   C29843342   0.274   5.738   1.337  0.0238  0.6977 -0.2237
  103MOL   C29943343   0.366   5.726   1.222  0.4566  0.3728  0.2283
  103MOL   C30043344   0.357   5.586   1.135  0.0689 -0.0249 -0.1329
  103MOL   C30143345   0.434   5.477   1.201  0.2419  0.0068  0.3963
  103MOL   C30243346   0.417   5.338   1.138 -0.3327 -0.0333  0.0858
  103MOL   H30343347   0.148   5.794   1.559 -2.9610 -1.0788 -1.5975
  103MOL   H30443348   0.057   5.852   1.435 -0.2897 -1.3850 -0.4104
  103MOL   H30543349   0.282   5.951   1.345 -1.3194  0.1217  0.7591
  103MOL   H30643350   0.288   5.654   1.404  0.3284 -1.8278 -3.3261
  103MOL   H30743351   0.171   5.736   1.301 -0.1811  1.2650  0.3183
  103MOL   H30843352   0.470   5.750   1.243  0.6266  1.3723 -1.6264
  103MOL   H30943353   0.339   5.809   1.157 -2.6543  1.1177  2.3379
  103MOL   H31043354   0.408   5.606   1.040 -1.0220  0.0351 -0.7141
  103MOL   H31143355   0.252   5.570   1.111 -0.5432  3.3612  0.0422
  103MOL   H31243356   0.539   5.508   1.201  0.4094 -0.3687 -2.8562
  103MOL   H31343357   0.400   5.464   1.304 -0.0082 -0.1443  0.2931
  103MOL   H31443358   0.469   5.270   1.205 -1.2186  1.2118  2.0945
  103MOL   H31543359   0.310   5.319   1.123 -0.1679 -0.1391 -1.0426
  103MOL   H31643360   0.471   5.333   1.043  1.3732  0.7317  1.0036
  103MOL   C31743361   0.401   5.865   1.514 -0.2211  0.0853  0.3784
  103MOL   C31843362   0.471   6.001   1.537  0.3402  0.7227 -0.1104
  103MOL   C31943363   0.514   6.019   1.685 -0.3519  0.0745  0.5615
  103MOL   C32043364   0.615   5.919   1.739 -0.0065 -0.0720  0.8893
  103MOL   C32143365   0.670   5.959   1.877 -0.7103  0.0977 -0.3815
  103MOL   C32243366   0.767   5.865   1.944  0.1160 -0.3409 -0.0098
  103MOL   C32343367   0.723   5.720   1.979  0.1439 -0.7183 -0.0969
  103MOL   H32443368   0.478   5.796   1.477 -0.0871  1.1518 -1.4297
  103MOL   H32543369   0.365   5.822   1.607 -1.0600 -0.2937 -0.1144
  103MOL   H32643370   0.397   6.079   1.522  2.4883  2.8810  0.2452
  103MOL   H32743371   0.421   6.037   1.740 -1.2800 -0.3624 -0.8551
  103MOL   H32843372   0.565   6.116   1.689  1.1517 -0.6018 -1.6048
  103MOL   H32943373   0.694   5.898   1.667 -0.9423 -1.2413  0.1694
  103MOL   H33043374   0.559   5.825   1.743  2.4330 -1.6395 -0.5852
  103MOL   H33143375   0.584   5.972   1.942 -0.2780 -1.0744  0.4497
  103MOL   H33243376   0.719   6.056   1.874 -1.4575  0.4486 -1.2787
  103MOL   H33343377   0.797   5.910   2.038 -1.9098  1.8975 -0.4092
  103MOL   H33443378   0.862   5.855   1.891  0.1195 -0.3640  0.0005
  103MOL   H33543379   0.705   5.669   1.884 -0.8196  3.3170 -2.1563
  103MOL   H33643380   0.636   5.732   2.044  0.7086 -2.9500  1.1290
  103MOL   H33743381   0.789   5.656   2.038 -1.1905 -2.4036 -0.3759
  103MOL   C33843382   0.592   6.035   1.441  0.0560 -0.2054 -0.6909
  103MOL   C33943383   0.623   6.190   1.409  0.6981  0.3570 -0.4629
  103MOL   C34043384   0.538   6.257   1.307 -0.5093  0.8697 -0.5435
  103MOL   C34143385   0.541   6.414   1.304  0.2286 -0.4927 -0.3974
  103MOL   C34243386   0.421   6.477   1.231 -0.3417 -0.0068  0.3950
  103MOL   C34343387   0.305   6.496   1.327 -0.1591 -0.3035 -0.5856
  103MOL   C34443388   0.185   6.562   1.262  0.1501  0.2649 -0.7423
  103MOL   H34543389   0.574   5.995   1.341  0.0290  1.5983 -1.4443
  103MOL   H34643390   0.679   5.974   1.463  1.0041  1.8772  1.5999
  103MOL   H34743391   0.593   6.245   1.499  1.3761  0.4710 -0.3041
  103MOL   H34843392   0.553   6.225   1.204  0.1103  2.9316 -1.1128
  103MOL   H34943393   0.433   6.236   1.324 -0.6624  1.1811 -1.0785
  103MOL   H35043394   0.630   6.438   1.246  0.4861  1.2323  0.7052
  103MOL   H35143395   0.561   6.456   1.402  1.4788 -0.5545 -0.6222
  103MOL   H35243396   0.453   6.572   1.188 -1.3194 -1.6569 -4.2739
  103MOL   H35343397   0.398   6.418   1.142 -1.9420 -0.4701  1.0906
  103MOL   H35443398   0.271   6.399   1.362 -2.5102  0.8383  0.4266
  103MOL   H35543399   0.323   6.554   1.418 -1.5878 -0.4023 -0.2251
  103MOL   H35643400   0.198   6.670   1.253  0.4305  0.1667 -1.5352
  103MOL   H35743401   0.098   6.556   1.327  0.6335  0.9494 -0.0252
  103MOL   H35843402   0.142   6.522   1.170  1.5052  0.3355 -1.4229
  103MOL   C35943403   0.775   6.224   1.391 -0.4774 -0.2222  0.3152
  103MOL   C36043404   0.861   6.193   1.517  0.5166 -0.8014 -0.1029
  103MOL   C36143405   0.953   6.078   1.501 -0.3745  0.5783  0.3235
  103MOL   C36243406   1.003   6.011   1.629  0.3266 -0.0812  0.2875
  103MOL   C36343407   1.109   5.908   1.604  0.3450 -0.0525  0.0648
  103MOL   C36443408   1.166   5.834   1.726  0.2302  0.1655 -0.5190
  103MOL   C36543409   1.234   5.709   1.685  1.1169 -0.2469  0.2893
  103MOL   H36643410   0.782   6.327   1.355  2.8539 -0.6141 -0.3774
  103MOL   H36743411   0.819   6.170   1.307  0.9315  0.4692  0.5881
  103MOL   H36843412   0.794   6.164   1.598  1.8641 -1.5533  0.7763
  103MOL   H36943413   0.912   6.004   1.432  0.0997  2.0032 -1.5412
  103MOL   H37043414   1.046   6.110   1.455 -1.0867  0.7833 -1.0030
  103MOL   H37143415   1.040   6.084   1.701 -0.2581  0.6402 -0.1390
  103MOL   H37243416   0.914   5.960   1.667  0.7130 -0.6133  0.4865
  103MOL   H37343417   1.070   5.834   1.534  0.3525  2.6218 -2.8879
  103MOL   H37443418   1.192   5.959   1.556 -0.1923  1.2579  0.5136
  103MOL   H37543419   1.219   5.914   1.778 -1.0811 -0.2291  1.4792
  103MOL   H37643420   1.083   5.810   1.794  0.4419 -0.2189 -0.3936
  103MOL   H37743421   1.323   5.720   1.623  1.7115 -2.4883  0.7067
  103MOL   H37843422   1.256   5.666   1.783 -0.1992  1.0173  1.1748
  103MOL   H37943423   1.166   5.638   1.638  0.5037  1.5184 -1.5741
  103MOL   C38043424   0.935   6.321   1.562 -0.5591  0.3227  0.4066
  103MOL   C38143425   0.851   6.434   1.612  0.4021  0.3349 -1.1285
  103MOL   C38243426   0.831   6.427   1.764  0.5902 -0.3100 -0.5402
  103MOL   C38343427   0.687   6.489   1.811  0.2541  0.2761  0.3769
  103MOL   C38443428   0.643   6.463   1.957  0.4913  0.3440 -0.4565
  103MOL   C38543429   0.741   6.535   2.057 -0.0910 -0.5680  0.1722
  103MOL   C38643430   0.692   6.523   2.197  0.1199  0.4259 -0.9322
  103MOL   H38743431   0.998   6.291   1.646  0.7214 -1.9364 -1.3260
  103MOL   H38843432   1.008   6.359   1.490 -1.3477 -0.8490 -1.0285
  103MOL   H38943433   0.755   6.431   1.561  0.7683 -0.1307 -1.7902
  103MOL   H39043434   0.905   6.469   1.831  0.6159 -0.9298 -0.1727
  103MOL   H39143435   0.826   6.320   1.782 -1.1234 -0.2827 -0.7716
  103MOL   H39243436   0.693   6.596   1.796 -0.2639  0.4424  1.3257
  103MOL   H39343437   0.615   6.447   1.741  1.3861 -1.6231  0.3092
  103MOL   H39443438   0.545   6.509   1.962  0.6395  0.7857 -1.4690
  103MOL   H39543439   0.638   6.356   1.979  1.0924  0.7160  1.6257
  103MOL   H39643440   0.766   6.640   2.040 -0.1774 -0.5183  0.3543
  103MOL   H39743441   0.838   6.488   2.043  1.1442  1.9198  0.0470
  103MOL   H39843442   0.678   6.423   2.238  2.4903  1.0912  1.6715
  103MOL   H39943443   0.602   6.582   2.213 -0.6528 -1.3036  1.3996
  103MOL   H40043444   0.763   6.572   2.264  0.3469 -1.4058  0.2002
  103MOL   C40143445   0.901   6.567   1.569 -0.2867  0.1255  0.5360
  103MOL   C40243446   0.896   6.595   1.410 -0.2840  0.4918 -0.1826
  103MOL   C40343447   0.925   6.746   1.373  0.3817 -0.0058 -0.2661
  103MOL   C40443448   1.071   6.772   1.320 -0.1920  0.0388  0.3575
  103MOL   C40543449   1.107   6.919   1.263  0.0165  0.0025  0.5772
  103MOL   C40643450   1.250   6.915   1.195 -0.1817  0.2604 -0.1476
  103MOL   C40743451   1.377   6.898   1.275 -0.1716 -0.4627 -0.1701
  103MOL   H40843452   1.006   6.566   1.597 -1.3951 -4.0999  5.2098
  103MOL   H40943453   0.854   6.644   1.629 -0.9577 -0.4630  0.7677
  103MOL   H41043454   0.805   6.559   1.362  0.3611 -1.8444  0.2867
  103MOL   H41143455   0.911   6.811   1.460 -0.0645  0.1448 -0.4458
  103MOL   H41243456   0.860   6.774   1.290 -0.3016 -1.8573 -0.3791
  103MOL   H41343457   1.077   6.700   1.238  0.9684 -0.4109  0.8210
  103MOL   H41443458   1.143   6.735   1.393  1.1738  1.5789 -0.1772
  103MOL   H41543459   1.035   6.964   1.194 -0.4112 -0.3983  0.7563
  103MOL   H41643460   1.120   6.995   1.340  0.8153  0.1244  0.3298
  103MOL   H41743461   1.253   6.827   1.131  2.3909  0.6765 -0.6564
  103MOL   H41843462   1.264   6.999   1.127  3.0116 -0.1679 -0.1012
  103MOL   H41943463   1.362   6.808   1.335 -1.6826  0.7189  1.2905
  103MOL   H42043464   1.392   6.990   1.331 -2.4131 -0.0634 -0.1988
  103MOL   H42143465   1.468   6.889   1.216 -0.5558  0.0318 -0.8500
  103MOL   H42243466   0.979   6.535   1.373  1.6796  2.4320  0.9595
  104MOL     C143467   0.838   4.071   6.531 -0.1108  0.1489 -0.6814
  104MOL     C243468   0.878   3.927   6.566  0.0533  0.1254  0.1258
  104MOL     C343469   0.983   3.933   6.677 -0.3851  0.8424 -0.5752
  104MOL     C443470   0.999   3.803   6.761 -0.3893  0.4380 -0.1651
  104MOL     C543471   1.145   3.763   6.768 -1.0550  0.2075  0.0516
  104MOL     C643472   1.184   3.633   6.838  0.0796 -0.0929  0.8504
  104MOL     C743473   1.171   3.649   6.994  0.3304 -0.0011  0.2826
  104MOL     H843474   0.821   4.130   6.621  0.2957  1.0016 -1.1528
  104MOL     H943475   0.754   4.092   6.465  0.3588  0.2253 -1.2613
  104MOL    H1043476   0.782   3.891   6.604  0.6684 -3.0178 -1.1606
  104MOL    H1143477   1.078   3.964   6.634  0.1866  0.2512  0.2405
  104MOL    H1243478   0.955   4.007   6.752  1.6719  0.2946  0.7682
  104MOL    H1343479   0.963   3.819   6.863  2.8444 -0.7829  1.2034
  104MOL    H1443480   0.949   3.717   6.717  0.8340 -0.5163  0.3036
  104MOL    H1543481   1.208   3.842   6.809 -1.2387 -0.3432  1.4192
  104MOL    H1643482   1.175   3.762   6.663  1.7571  0.1990  0.7971
  104MOL    H1743483   1.283   3.601   6.808  0.4443  0.8863  1.0177
  104MOL    H1843484   1.107   3.561   6.809  0.0146 -0.0047  0.8039
  104MOL    H1943485   1.220   3.741   7.025  0.8938  0.2234 -1.1959
  104MOL    H2043486   1.214   3.564   7.047  0.6159 -0.5983 -0.8853
  104MOL    H2143487   1.065   3.672   7.004 -0.6214 -3.0319 -1.9737
  104MOL    H2243488   0.927   4.120   6.491  0.5212  0.5000  1.0987
  104MOL    C2343489   0.923   3.858   6.446 -0.7070  0.0839  0.4560
  104MOL    C2443490   0.806   3.817   6.348  0.5664 -0.3244  0.0651
  104MOL    C2543491   0.713   3.702   6.392  0.2965 -0.1451  0.4809
  104MOL    C2643492   0.779   3.567   6.406 -0.1363  0.2884 -0.4073
  104MOL    C2743493   0.681   3.458   6.433  0.1014 -0.4649  0.6800
  104MOL    C2843494   0.758   3.327   6.469  0.0695  0.1986  0.3867
  104MOL    C2943495   0.658   3.221   6.502  0.1805  0.5649 -0.6959
  104MOL    H3043496   0.998   3.912   6.389  1.9014 -0.0326  3.6520
  104MOL    H3143497   0.972   3.765   6.472 -1.3438 -0.5015 -0.3850
  104MOL    H3243498   0.749   3.909   6.350  1.4100  0.1841  1.4940
  104MOL    H3343499   0.648   3.687   6.306  1.0482 -0.3380 -0.0620
  104MOL    H3443500   0.658   3.719   6.484  1.6360 -0.1997  1.3186
  104MOL    H3543501   0.846   3.570   6.492 -1.2389 -1.4659  0.5499
  104MOL    H3643502   0.841   3.540   6.320 -0.1409 -1.6813  0.1901
  104MOL    H3743503   0.617   3.448   6.345  0.1140 -0.4113  0.6646
  104MOL    H3843504   0.619   3.489   6.518 -2.3369 -0.4638 -1.0277
  104MOL    H3943505   0.823   3.349   6.554  0.8984 -0.0466 -0.1845
  104MOL    H4043506   0.826   3.285   6.396  0.1715 -2.4662  1.9085
  104MOL    H4143507   0.705   3.125   6.525  0.0520  0.3042 -1.5176
  104MOL    H4243508   0.605   3.251   6.593  0.9460 -2.7245  0.9244
  104MOL    H4343509   0.585   3.202   6.423  0.8566  0.4436 -1.2918
  104MOL    C4443510   0.864   3.790   6.209  0.8991  0.3127 -0.6486
  104MOL    C4543511   0.901   3.919   6.125  0.7397 -0.4973 -0.0326
  104MOL    C4643512   0.998   3.875   6.025 -0.4408 -0.8756  0.0997
  104MOL    C4743513   1.140   3.874   6.070  0.2568  0.0465  0.1223
  104MOL    C4843514   1.235   3.858   5.945 -0.4117 -0.2225 -0.4011
  104MOL    C4943515   1.236   3.725   5.869 -0.3621  0.2893 -0.3269
  104MOL    C5043516   1.334   3.732   5.745 -0.3200  0.0694 -0.1202
  104MOL    H5143517   0.798   3.731   6.144  0.0667 -0.7844  1.1596
  104MOL    H5243518   0.952   3.726   6.207  0.9317  0.3602 -0.7489
  104MOL    H5343519   0.946   3.993   6.191 -0.4621  0.7417 -0.5574
  104MOL    H5443520   0.992   3.947   5.944  2.6330  0.9299  1.4175
  104MOL    H5543521   0.969   3.784   5.973  0.6206 -0.5487 -1.0933
  104MOL    H5643522   1.159   3.972   6.115 -1.4155  1.0855 -1.3599
  104MOL    H5743523   1.174   3.802   6.145  0.6006  1.1110  1.0047
  104MOL    H5843524   1.337   3.856   5.982 -1.0887 -0.0269  1.5258
  104MOL    H5943525   1.227   3.931   5.864  1.4803 -0.3724 -0.7522
  104MOL    H6043526   1.135   3.690   5.846  0.0082  0.6624 -2.6639
  104MOL    H6143527   1.279   3.654   5.939  1.2907  0.2594 -1.3683
  104MOL    H6243528   1.355   3.632   5.708  1.0861  0.0548  0.6920
  104MOL    H6343529   1.429   3.778   5.770 -0.0184 -0.6086 -0.0235
  104MOL    H6443530   1.306   3.791   5.658  1.4327  0.5645 -0.3558
  104MOL    C6543531   0.769   3.981   6.069 -0.2425  0.1848  0.7502
  104MOL    C6643532   0.776   4.126   6.012  0.5754 -0.9185  0.1968
  104MOL    C6743533   0.849   4.232   6.103  0.0655  0.2578  0.0102
  104MOL    C6843534   1.000   4.232   6.061  0.3544  0.7313  0.1538
  104MOL    C6943535   1.081   4.341   6.129 -0.0361 -0.6042 -0.4265
  104MOL    C7043536   1.106   4.322   6.280  0.2072 -0.2785 -0.4059
  104MOL    C7143537   1.215   4.416   6.339  0.8651 -0.3636 -0.5283
  104MOL    H7243538   0.734   3.917   5.987  0.3966 -0.5472  1.0422
  104MOL    H7343539   0.697   3.964   6.150 -0.6321  2.9662  1.0278
  104MOL    H7443540   0.828   4.126   5.916 -2.3105 -2.7428 -1.4549
  104MOL    H7543541   0.796   4.325   6.087  1.7667  0.7805 -3.0212
  104MOL    H7643542   0.840   4.204   6.208 -1.2345 -0.3619 -0.2575
  104MOL    H7743543   1.054   4.141   6.085 -1.5924 -0.2046  1.0553
  104MOL    H7843544   1.012   4.246   5.953 -1.3281 -1.2209 -0.3200
  104MOL    H7943545   1.168   4.348   6.064  1.0595  0.1994  1.0750
  104MOL    H8043546   1.039   4.441   6.117 -0.3935 -0.6049  0.7416
  104MOL    H8143547   1.137   4.220   6.303 -1.2981 -0.7524 -0.4113
  104MOL    H8243548   1.008   4.330   6.327 -0.0542  0.5734 -1.0701
  104MOL    H8343549   1.187   4.457   6.437 -0.6582 -0.7579 -0.7945
  104MOL    H8443550   1.317   4.382   6.355  1.5017  2.8406  2.9506
  104MOL    H8543551   1.228   4.497   6.267  1.8063  0.6067  0.7034
  104MOL    C8643552   0.629   4.166   5.975  0.2225 -0.7634  0.1302
  104MOL    C8743553   0.615   4.276   5.867  0.0943  0.1204 -1.0155
  104MOL    C8843554   0.619   4.210   5.727 -0.0090 -0.1592  0.3647
  104MOL    C8943555   0.746   4.230   5.647 -0.1897  0.2485  0.2426
  104MOL    C9043556   0.738   4.186   5.505  0.6602 -0.4609 -0.1348
  104MOL    C9143557   0.860   4.228   5.428  0.1228 -0.3619 -0.0732
  104MOL    C9243558   0.843   4.156   5.291 -0.2268 -0.1370  0.3947
  104MOL    H9343559   0.565   4.081   5.953 -0.9675  0.0588  0.3832
  104MOL    H9443560   0.588   4.209   6.066 -2.6536 -0.8040 -1.0987
  104MOL    H9543561   0.709   4.331   5.872 -0.5290  1.1019  0.1829
  104MOL    H9643562   0.611   4.102   5.740  0.6792 -0.1402  0.9892
  104MOL    H9743563   0.526   4.236   5.677  0.7486 -0.8056 -1.4490
  104MOL    H9843564   0.762   4.338   5.646 -2.0982  0.5644  1.3392
  104MOL    H9943565   0.839   4.191   5.688  0.3476 -0.2189 -1.3806
  104MOL   H10043566   0.646   4.225   5.460  1.0542  2.8294  1.8288
  104MOL   H10143567   0.728   4.077   5.510 -2.1643 -0.2280  0.1764
  104MOL   H10243568   0.857   4.336   5.412 -0.4047 -0.3640  0.0253
  104MOL   H10343569   0.950   4.200   5.484  0.9021  2.1263 -0.0439
  104MOL   H10443570   0.777   4.213   5.224  3.1726  1.8602 -1.4312
  104MOL   H10543571   0.822   4.050   5.292  0.7678 -0.3387  1.1185
  104MOL   H10643572   0.937   4.152   5.236 -0.7051  0.3850 -0.4773
  104MOL   C10743573   0.513   4.386   5.898  0.5670 -0.2443  0.2743
  104MOL   C10843574   0.551   4.515   5.827 -0.2644 -0.5350  0.0176
  104MOL   C10943575   0.421   4.586   5.777  0.5053  0.0709  0.9183
  104MOL   C11043576   0.361   4.509   5.654  0.1659  0.1976 -0.2200
  104MOL   C11143577   0.247   4.581   5.574 -0.0801  0.7087 -0.7724
  104MOL   C11243578   0.116   4.591   5.653  0.5768  0.2644  0.0403
  104MOL   C11343579   0.053   4.450   5.663 -0.6311  0.3160 -0.2590
  104MOL   H11443580   0.519   4.407   6.004  1.1667 -0.1483  0.2216
  104MOL   H11543581   0.419   4.336   5.873  1.0967 -0.8134 -0.6361
  104MOL   H11643582   0.611   4.484   5.742 -0.5369  0.4672 -0.5496
  104MOL   H11743583   0.425   4.694   5.760  3.0912 -0.1951 -0.4530
  104MOL   H11843584   0.340   4.575   5.849  0.3246  1.7375  0.9896
  104MOL   H11943585   0.438   4.504   5.577  0.5406  0.5577  0.1316
  104MOL   H12043586   0.334   4.406   5.675  1.5829  0.2384  1.9334
  104MOL   H12143587   0.221   4.527   5.483 -0.6016  0.8779 -0.7262
  104MOL   H12243588   0.280   4.682   5.552  0.1423  0.9050  0.4017
  104MOL   H12343589   0.136   4.630   5.753 -0.0859 -0.2181  0.3589
  104MOL   H12443590   0.052   4.654   5.591 -1.4574  0.5970  2.3726
  104MOL   H12543591   0.022   4.420   5.563 -2.0193 -0.6659  0.4548
  104MOL   H12643592   0.110   4.366   5.703  1.9106  0.5890 -3.1746
  104MOL   H12743593   7.679   4.466   5.727 -0.3759 -0.4536  0.2937
  104MOL   C12843594   0.642   4.605   5.910 -0.3560  1.0180 -0.2607
  104MOL   C12943595   0.722   4.720   5.836 -0.1976 -0.6244 -0.1597
  104MOL   C13043596   0.868   4.674   5.793 -0.4464 -0.2551  0.3336
  104MOL   C13143597   0.956   4.602   5.903 -0.2005  0.2505  0.7744
  104MOL   C13243598   1.101   4.621   5.874 -1.2679  0.1255 -0.0991
  104MOL   C13343599   1.144   4.568   5.738  0.2001 -0.5237  0.0679
  104MOL   C13443600   1.286   4.603   5.707  0.6123  0.1213  0.2198
  104MOL   H13543601   0.582   4.630   5.998  0.3461 -1.0142  0.8256
  104MOL   H13643602   0.726   4.549   5.951  0.0837  1.6922 -0.2291
  104MOL   H13743603   0.664   4.734   5.744 -0.3221 -1.2258 -0.1729
  104MOL   H13843604   0.921   4.764   5.762  1.3848 -0.4332  2.7994
  104MOL   H13943605   0.854   4.608   5.708  0.0430 -0.0486  0.0857
  104MOL   H14043606   0.939   4.495   5.900  2.7931 -0.2898  1.7282
  104MOL   H14143607   0.938   4.638   6.004  0.9737  1.6145  0.5268
  104MOL   H14243608   1.159   4.561   5.944  1.2399  1.0929 -1.2669
  104MOL   H14343609   1.125   4.726   5.889 -0.9787  0.1127 -0.4453
  104MOL   H14443610   1.081   4.618   5.664 -0.9091  3.3979  3.5039
  104MOL   H14543611   1.134   4.460   5.728 -0.1146 -0.5548  0.7472
  104MOL   H14643612   1.355   4.537   5.761  0.9719 -0.6426 -1.1461
  104MOL   H14743613   1.300   4.711   5.717  2.0364 -0.0288 -0.0332
  104MOL   H14843614   1.303   4.583   5.601  0.9479  3.0465 -0.3204
  104MOL   C14943615   0.723   4.866   5.896 -0.8063 -0.0232  0.0450
  104MOL   C15043616   0.589   4.937   5.890 -0.2308  0.1643 -0.1199
  104MOL   C15143617   0.585   5.006   5.751  0.0434 -0.7059 -0.0682
  104MOL   C15243618   0.446   5.049   5.701 -0.2110 -0.3362 -0.4296
  104MOL   C15343619   0.398   4.970   5.576  0.2628  0.2705  0.1154
  104MOL   C15443620   0.253   5.012   5.531  0.6179 -0.2025  0.7151
  104MOL   C15543621   0.208   4.967   5.386 -0.0003  0.4826  1.0659
  104MOL   H15643622   0.758   4.854   5.999  2.1156  0.2151 -0.8804
  104MOL   H15743623   0.805   4.927   5.857 -0.8096  0.8151  1.3089
  104MOL   H15843624   0.510   4.862   5.895  0.5523 -0.6746 -0.2728
  104MOL   H15943625   0.654   5.087   5.729  0.2551 -1.2369 -1.4497
  104MOL   H16043626   0.612   4.933   5.675  0.7888 -1.0048  0.4822
  104MOL   H16143627   0.453   5.151   5.662  1.3630  0.0707  0.8734
  104MOL   H16243628   0.369   5.033   5.777 -0.7281 -1.7787 -1.2501
  104MOL   H16343629   0.389   4.862   5.583 -2.3773  0.4650  0.4927
  104MOL   H16443630   0.464   4.985   5.491 -0.6878  0.6921 -0.5551
  104MOL   H16543631   0.236   5.119   5.536 -2.4356 -0.6457  0.4043
  104MOL   H16643632   0.176   4.965   5.592  1.6282 -3.7404 -0.5841
  104MOL   H16743633   0.121   5.026   5.358 -0.3024  0.4304  1.8694
  104MOL   H16843634   0.184   4.862   5.403 -2.2942  0.9017  0.4937
  104MOL   H16943635   0.288   4.969   5.311 -0.4279 -0.2543  0.5840
  104MOL   C17043636   0.572   5.044   5.999  0.2362 -0.6153  0.2065
  104MOL   C17143637   0.530   4.996   6.142 -0.0214  0.2372  0.5002
  104MOL   C17243638   0.402   4.911   6.146  0.6126 -0.2702 -0.2110
  104MOL   C17343639   0.269   4.983   6.102 -0.3351  0.5434 -0.6993
  104MOL   C17443640   0.170   4.877   6.051  0.2211 -1.0375  0.2669
  104MOL   C17543641   0.036   4.947   6.018 -0.1822 -0.2684 -0.2237
  104MOL   C17643642   7.649   4.843   5.979  0.0217 -0.2828 -0.3770
  104MOL   H17743643   0.518   5.133   5.965  1.9521 -0.0371 -1.0409
  104MOL   H17843644   0.669   5.091   6.010  0.1605  0.1045 -1.9382
  104MOL   H17943645   0.493   5.088   6.187 -0.6897  0.0242  0.3948
  104MOL   H18043646   0.383   4.875   6.248 -0.3531  1.6884  0.3131
  104MOL   H18143647   0.418   4.824   6.082  2.8833 -0.3466  0.4118
  104MOL   H18243648   0.300   5.049   6.021 -0.4401 -1.0967 -2.0958
  104MOL   H18343649   0.215   5.036   6.181  0.4297 -1.7045  1.4178
  104MOL   H18443650   0.158   4.804   6.132  1.9005  1.2602  2.6515
  104MOL   H18543651   0.203   4.832   5.958 -0.2628  1.9729 -1.3962
  104MOL   H18643652   0.038   5.023   5.939  0.5389 -2.4565 -2.3582
  104MOL   H18743653   7.704   4.994   6.105 -2.9976 -0.0641 -1.7558
  104MOL   H18843654   7.587   4.822   6.066 -1.2069  3.5102 -0.2790
  104MOL   H18943655   7.685   4.741   5.964  2.6653  0.3200  1.3571
  104MOL   H19043656   7.583   4.874   5.899 -0.3355  1.5572  0.6089
  104MOL   C19143657   0.649   4.935   6.226 -0.2748  0.0243  0.7021
  104MOL   C19243658   0.778   5.010   6.224  0.1818  0.8932  0.2076
  104MOL   C19343659   0.772   5.157   6.282 -0.3074 -0.4988 -0.2265
  104MOL   C19443660   0.894   5.248   6.241  0.1802 -0.0881 -0.2567
  104MOL   C19543661   0.900   5.390   6.300 -0.4399 -0.2972 -0.2631
  104MOL   C19643662   1.021   5.473   6.246  0.6930  0.4621 -0.6971
  104MOL   C19743663   0.998   5.620   6.281 -0.5972 -0.5008 -0.3109
  104MOL   H19843664   0.664   4.831   6.196 -1.0909 -0.4996  2.0670
  104MOL   H19943665   0.623   4.919   6.331  0.8529  0.8636  1.1156
  104MOL   H20043666   0.823   5.019   6.125 -1.6349 -0.5586 -0.8053
  104MOL   H20143667   0.783   5.154   6.391  1.8828 -1.0128 -0.4381
  104MOL   H20243668   0.676   5.201   6.256  1.0359  0.9021 -2.9519
  104MOL   H20343669   0.884   5.252   6.132  0.4944 -2.4979 -0.4025
  104MOL   H20443670   0.988   5.198   6.266 -1.8283 -3.9622 -0.0810
  104MOL   H20543671   0.812   5.452   6.288 -0.5247 -0.6637 -1.7183
  104MOL   H20643672   0.925   5.382   6.406  2.2090 -1.0337 -0.9056
  104MOL   H20743673   1.001   5.454   6.141 -0.0598  0.4199 -0.5489
  104MOL   H20843674   1.114   5.431   6.284  0.6905  0.2510 -0.9290
  104MOL   H20943675   0.917   5.663   6.223 -0.6803 -1.6980 -1.0956
  104MOL   H21043676   1.092   5.672   6.260  0.3396 -1.1232  2.1462
  104MOL   H21143677   0.980   5.636   6.387  2.6699  0.2442  0.1915
  104MOL   C21243678   0.889   4.933   6.303 -0.3753 -0.1211 -0.5365
  104MOL   C21343679   0.943   4.805   6.239  1.0009 -0.0245  0.5465
  104MOL   C21443680   1.082   4.825   6.177 -0.0170 -0.0034  0.1291
  104MOL   C21543681   1.083   4.934   6.070  0.1173 -0.4593  0.2084
  104MOL   C21643682   1.223   4.961   6.002 -0.4682 -0.2770 -0.0751
  104MOL   C21743683   1.223   5.069   5.902 -0.2949 -0.1504 -0.2512
  104MOL   C21843684   1.140   5.041   5.783  0.3059  0.0576 -0.3977
  104MOL   H21943685   0.871   4.913   6.408 -1.4852  0.3129 -0.6396
  104MOL   H22043686   0.971   5.003   6.319 -2.9242  2.1094  3.7863
  104MOL   H22143687   0.878   4.768   6.159  1.2684  1.8990 -0.5744
  104MOL   H22243688   1.160   4.847   6.251 -0.1338  2.7507 -0.5110
  104MOL   H22343689   1.106   4.726   6.138 -1.4907 -0.3733  0.1101
  104MOL   H22443690   1.056   5.028   6.119 -1.7064 -2.0199  2.2751
  104MOL   H22543691   1.015   4.898   5.992 -0.3666  0.3461  0.2459
  104MOL   H22643692   1.290   4.989   6.084  0.1407  0.7735 -0.9221
  104MOL   H22743693   1.261   4.865   5.969 -1.0397 -1.2330  1.9356
  104MOL   H22843694   1.184   5.162   5.943  0.0973  0.1396 -0.5258
  104MOL   H22943695   1.328   5.081   5.875 -1.0433  3.4739 -1.9095
  104MOL   H23043696   1.171   5.101   5.697  0.5760  0.1876 -0.2092
  104MOL   H23143697   1.031   5.051   5.783 -0.2227 -4.3317 -1.5670
  104MOL   H23243698   1.151   4.940   5.742  0.8584 -0.6096  1.3614
  104MOL   C23343699   0.959   4.690   6.344  0.1552  0.4168 -0.0315
  104MOL   C23443700   0.829   4.626   6.390 -0.3265 -0.4250 -0.0673
  104MOL   C23543701   0.770   4.540   6.281 -0.1209 -0.0132  0.1416
  104MOL   C23643702   0.638   4.464   6.293 -0.1404  0.4680  0.3390
  104MOL   C23743703   0.520   4.560   6.320  0.4158  0.0434 -0.0009
  104MOL   C23843704   0.387   4.489   6.298 -0.9577  0.2196  0.0166
  104MOL   C23943705   0.275   4.585   6.270  0.3229  0.3002 -0.1827
  104MOL   H24043706   1.017   4.728   6.428  2.7678  0.2000 -1.7145
  104MOL   H24143707   1.013   4.605   6.303 -0.6473 -0.1539  0.0666
  104MOL   H24243708   0.748   4.697   6.409  0.8469  0.6663  0.9477
  104MOL   H24343709   0.855   4.475   6.261  2.4626  2.3806  2.9600
  104MOL   H24443710   0.759   4.596   6.188 -1.7564 -0.0469  0.2920
  104MOL   H24543711   0.643   4.390   6.373 -3.1318 -0.6635 -0.4471
  104MOL   H24643712   0.618   4.409   6.201 -1.0749  0.6260  0.4381
  104MOL   H24743713   0.525   4.643   6.249 -2.4466 -1.2662 -1.8494
  104MOL   H24843714   0.527   4.614   6.414 -1.5638 -0.1680  0.2771
  104MOL   H24943715   0.394   4.412   6.222 -0.3159 -1.8959  2.1579
  104MOL   H25043716   0.360   4.426   6.383  1.0951  0.7332  1.0797
  104MOL   H25143717   0.255   4.644   6.359  1.1852  0.3020  0.0157
  104MOL   H25243718   0.306   4.643   6.182  1.0889 -2.2971 -1.6983
  104MOL   H25343719   0.182   4.538   6.239  1.1952 -1.8021  0.3336
  104MOL   C25443720   0.834   4.545   6.525 -0.4282  0.5523  0.0041
  104MOL   C25543721   0.857   4.637   6.646 -0.5909  0.3079 -0.2128
  104MOL   C25643722   1.002   4.611   6.709 -0.2998 -0.2075  0.0662
  104MOL   C25743723   1.044   4.729   6.796 -0.8437 -0.3864 -0.1929
  104MOL   C25843724   1.148   4.705   6.906  0.1387  0.0447  0.8476
  104MOL   C25943725   1.155   4.819   7.010  0.1686 -0.1657 -0.2760
  104MOL   C26043726   1.197   4.952   6.945  0.2174 -0.1170 -0.3731
  104MOL   H26143727   0.923   4.484   6.507 -1.0035 -0.2812 -0.0646
  104MOL   H26243728   0.746   4.483   6.537  0.1097 -0.3287 -0.4998
  104MOL   H26343729   0.863   4.740   6.613 -1.9941  0.4712  0.0241
  104MOL   H26443730   1.081   4.612   6.634 -1.6204 -0.1676 -1.3546
  104MOL   H26543731   1.011   4.512   6.754 -1.8824 -0.1254  0.5864
  104MOL   H26643732   1.043   4.816   6.730  0.6134  1.0971  1.7104
  104MOL   H26743733   0.959   4.740   6.863 -0.4019 -1.0037  0.4798
  104MOL   H26843734   1.251   4.681   6.879 -0.0191 -0.4727  0.6861
  104MOL   H26943735   1.118   4.618   6.966  0.9180  0.0341  1.2266
  104MOL   H27043736   1.070   4.833   7.076 -0.3454 -1.8925 -0.5635
  104MOL   H27143737   1.228   4.797   7.087  0.1148  4.0807  1.1232
  104MOL   H27243738   1.294   4.931   6.901  1.2955  1.0640  1.3800
  104MOL   H27343739   1.134   4.990   6.864 -1.0581  0.2501  0.7745
  104MOL   H27443740   1.220   5.035   7.012 -0.7365  0.8410 -1.1983
  104MOL   C27543741   0.743   4.619   6.748  0.1145  0.0082 -0.0363
  104MOL   C27643742   0.601   4.666   6.706  0.5193 -0.3132  0.0133
  104MOL   C27743743   0.591   4.816   6.679  0.0331 -0.9203  0.8852
  104MOL   C27843744   0.473   4.872   6.593  0.0908  0.8485 -0.0652
  104MOL   C27943745   0.482   5.027   6.589  0.1831  0.3173  0.3114
  104MOL   C28043746   0.364   5.087   6.509  0.0122 -0.7151  0.2414
  104MOL   C28143747   0.372   5.241   6.503  0.2752 -0.1317  0.2037
  104MOL   H28243748   0.758   4.694   6.826  1.8760  0.3611 -0.6857
  104MOL   H28343749   0.742   4.518   6.788 -0.5886  1.2118  3.1634
  104MOL   H28443750   0.580   4.611   6.614  0.0686 -2.1206  1.1632
  104MOL   H28543751   0.587   4.868   6.775  0.8008 -2.3307  1.7013
  104MOL   H28643752   0.678   4.855   6.627 -1.8166  0.5677 -1.2310
  104MOL   H28743753   0.384   4.836   6.646 -0.1666  1.3403 -0.1633
  104MOL   H28843754   0.479   4.837   6.490  2.4616 -0.2388  0.4119
  104MOL   H28943755   0.571   5.056   6.533  0.5934 -0.4310  0.5735
  104MOL   H29043756   0.486   5.079   6.685 -1.1917 -0.5571  0.8543
  104MOL   H29143757   0.372   5.046   6.409 -3.5204  0.9327 -0.7679
  104MOL   H29243758   0.268   5.065   6.555 -1.4699  0.0227 -2.4059
  104MOL   H29343759   0.286   5.293   6.460  0.7084 -1.3675 -2.2254
  104MOL   H29443760   0.459   5.268   6.444  1.2057 -0.8858  1.1973
  104MOL   H29543761   0.396   5.295   6.595  0.4988 -0.2232  0.1999
  104MOL   C29643762   0.498   4.624   6.811 -0.2702  0.3891 -0.0475
  104MOL   C29743763   0.433   4.483   6.801 -0.8604  0.4296  0.2638
  104MOL   C29843764   0.312   4.485   6.898 -0.3715  0.0782  0.0043
  104MOL   C29943765   0.337   4.483   7.052 -0.2476  0.0286 -0.1291
  104MOL   C30043766   0.212   4.482   7.139  0.8115  0.8029  0.8837
  104MOL   C30143767   0.096   4.373   7.104 -0.0507 -0.1259  0.1397
  104MOL   C30243768   0.001   4.349   7.222  0.1187  0.5278  0.5313
  104MOL   H30343769   0.546   4.641   6.907 -2.2233  1.5592  0.7568
  104MOL   H30443770   0.413   4.692   6.804  0.2797  1.1820  0.9157
  104MOL   H30543771   0.388   4.474   6.702  0.5585 -0.1475 -0.3366
  104MOL   H30643772   0.249   4.569   6.868 -1.9380 -0.1341  2.5496
  104MOL   H30743773   0.250   4.403   6.865  0.5652 -0.6814  0.1094
  104MOL   H30843774   0.403   4.563   7.084 -1.8548  0.8283  1.2386
  104MOL   H30943775   0.391   4.390   7.070  0.5679  0.7647  1.3248
  104MOL   H31043776   0.178   4.584   7.158 -1.5786 -0.4348  3.5659
  104MOL   H31143777   0.258   4.462   7.235 -0.4270 -0.3064  1.2721
  104MOL   H31243778   0.041   4.412   7.019 -0.9120 -3.6808 -0.9994
  104MOL   H31343779   0.142   4.282   7.066 -0.2859  0.0960 -0.6914
  104MOL   H31443780   7.665   4.443   7.248  2.1380  1.1944  2.0255
  104MOL   H31543781   7.628   4.286   7.200  0.6956 -0.2364  0.4612
  104MOL   H31643782   0.056   4.297   7.300 -2.0813 -1.4756  0.8237
  104MOL   C31743783   0.531   4.371   6.827  0.0741 -0.0078 -0.3786
  104MOL   C31843784   0.471   4.227   6.836 -0.8331 -0.2751  0.9867
  104MOL   C31943785   0.397   4.183   6.710 -0.4027  0.3492  0.5574
  104MOL   C32043786   0.483   4.166   6.581  0.5640 -0.0937 -0.3321
  104MOL   C32143787   0.393   4.133   6.464  0.6069 -0.1493  0.1170
  104MOL   C32243788   0.465   4.112   6.320 -0.7951 -0.0368 -0.9692
  104MOL   C32343789   0.392   4.004   6.246 -0.2422 -0.0975 -0.3095
  104MOL   H32443790   0.591   4.388   6.916 -2.0715  0.6875  0.9618
  104MOL   H32543791   0.602   4.370   6.744  2.2107  1.1534  1.3889
  104MOL   H32643792   0.392   4.226   6.911 -0.3455  1.7866  1.5558
  104MOL   H32743793   0.309   4.244   6.692 -0.5442 -0.6126 -2.1852
  104MOL   H32843794   0.355   4.084   6.724 -0.5486  0.3957  0.4394
  104MOL   H32943795   0.544   4.076   6.584 -1.0961 -1.1968  1.1907
  104MOL   H33043796   0.542   4.255   6.562 -1.0661  0.7698 -1.4533
  104MOL   H33143797   0.332   4.223   6.452  2.0100  0.5648 -1.9501
  104MOL   H33243798   0.329   4.048   6.489  0.2226 -0.0981 -0.6619
  104MOL   H33343799   0.565   4.070   6.328 -0.9288 -0.8406 -3.2666
  104MOL   H33443800   0.486   4.205   6.267  1.1650 -0.2155 -0.5336
  104MOL   H33543801   0.285   4.019   6.243 -0.0457  1.2647 -0.7230
  104MOL   H33643802   0.403   3.906   6.293  0.4019  0.9313  1.7506
  104MOL   H33743803   0.436   3.986   6.148  0.6197  2.2625 -0.3746
  104MOL   C33843804   0.574   4.125   6.882  0.0142 -0.0473  0.1969
  104MOL   C33943805   0.588   4.088   7.030  0.4473  0.2325  0.9375
  104MOL   C34043806   0.724   4.021   7.044 -0.2511  0.1538  0.6185
  104MOL   C34143807   0.797   4.010   7.183  0.6001 -0.6833 -0.3302
  104MOL   C34243808   0.930   3.943   7.167  0.3031 -0.0891  0.5937
  104MOL   C34343809   1.015   3.966   7.302 -0.2483  0.4099  0.4786
  104MOL   C34443810   1.164   3.914   7.288 -0.1884 -0.2929 -0.1490
  104MOL   H34543811   0.669   4.147   6.834  0.3643  1.6682  1.6113
  104MOL   H34643812   0.553   4.031   6.831 -0.8008  1.1367 -1.7230
  104MOL   H34743813   0.593   4.186   7.077 -0.9370  1.7976 -2.0265
  104MOL   H34843814   0.717   3.926   6.991  0.4814  1.8008 -2.6050
  104MOL   H34943815   0.792   4.085   6.988  0.4662  0.8284  2.2458
  104MOL   H35043816   0.741   3.944   7.249  0.8370 -0.6751 -0.1194
  104MOL   H35143817   0.802   4.102   7.241 -0.8709 -1.7485  1.5540
  104MOL   H35243818   0.916   3.837   7.150  2.4949 -0.1381 -1.0875
  104MOL   H35343819   0.977   3.998   7.086  1.1385 -1.5428  0.0782
  104MOL   H35443820   1.021   4.072   7.329  1.0454  0.4355  0.1335
  104MOL   H35543821   0.966   3.914   7.384  0.5928  0.9125  1.3156
  104MOL   H35643822   1.223   3.931   7.378 -0.0289 -1.5643 -0.0006
  104MOL   H35743823   1.225   3.969   7.216 -0.5443  2.2925  1.4580
  104MOL   H35843824   1.184   3.809   7.265 -3.5071 -0.6453 -1.7548
  104MOL   C35943825   0.468   3.996   7.078 -0.4488  0.5738 -0.3363
  104MOL   C36043826   0.440   4.008   7.235  0.2590  0.0446  0.1179
  104MOL   C36143827   0.374   4.147   7.272 -0.4348 -0.1450 -0.0788
  104MOL   C36243828   0.377   4.203   7.419 -0.4748 -0.5288 -0.4749
  104MOL   C36343829   0.320   4.117   7.536  0.0592  0.5359  0.1893
  104MOL   C36443830   0.170   4.065   7.531 -0.2797  0.1414 -0.4755
  104MOL   C36543831   0.127   3.971   7.643 -0.0742 -0.2617  0.1771
  104MOL   H36643832   0.492   3.897   7.041  0.1290  1.1814 -1.6210
  104MOL   H36743833   0.379   4.026   7.022 -0.7280  1.4433  0.5588
  104MOL   H36843834   0.529   4.005   7.298 -0.6211  2.6530  1.5708
  104MOL   H36943835   0.420   4.232   7.223 -0.0136  1.0494  2.3272
  104MOL   H37043836   0.272   4.149   7.232 -0.7867  1.1014  0.8591
  104MOL   H37143837   0.479   4.223   7.453 -0.5961 -1.0974  0.2248
  104MOL   H37243838   0.328   4.300   7.431 -0.0972 -0.4226  0.2656
  104MOL   H37343839   0.392   4.038   7.559 -2.1877 -1.8594 -0.8760
  104MOL   H37443840   0.317   4.181   7.625 -2.2690 -0.8127  1.0927
  104MOL   H37543841   0.112   4.157   7.540 -1.0362 -0.4166  0.3955
  104MOL   H37643842   0.139   4.027   7.434  1.1975  1.7038 -1.5978
  104MOL   H37743843   0.024   3.935   7.636  0.1513 -1.0858  0.9791
  104MOL   H37843844   0.184   3.881   7.621  0.4288  0.0337  0.2604
  104MOL   H37943845   0.159   4.008   0.026  0.9779 -3.9781  1.3421
  104MOL   C38043846   0.339   3.901   7.278  0.1383 -0.3945  0.2550
  104MOL   C38143847   0.376   3.753   7.258 -0.0064 -0.7583 -0.2352
  104MOL   C38243848   0.515   3.715   7.309 -0.5465  0.7172  0.5642
  104MOL   C38343849   0.573   3.591   7.238 -0.2259 -0.1061  0.1843
  104MOL   C38443850   0.599   3.609   7.086 -0.0817 -0.0978 -0.0393
  104MOL   C38543851   0.650   3.483   7.016  0.1295  0.2305  0.0181
  104MOL   C38643852   0.706   3.513   6.880  0.8811 -0.2877 -1.4539
  104MOL   H38743853   0.314   3.925   7.382 -1.2925 -2.3627  0.4024
  104MOL   H38843854   0.253   3.910   7.211 -0.6909 -1.9009  1.0829
  104MOL   H38943855   0.370   3.732   7.151  1.4421 -1.1159 -0.2511
  104MOL   H39043856   0.494   3.694   7.414 -1.0447  1.6782  0.6602
  104MOL   H39143857   0.585   3.798   7.303 -1.3279  1.5129  2.1451
  104MOL   H39243858   0.671   3.577   7.283  0.2616  0.2482 -0.7699
  104MOL   H39343859   0.512   3.502   7.255 -3.7111  1.8859 -1.3242
  104MOL   H39443860   0.514   3.641   7.025  1.5928 -2.0498 -3.5219
  104MOL   H39543861   0.676   3.683   7.065 -0.2344  0.1328  0.2155
  104MOL   H39643862   0.561   3.424   6.995  0.9224 -0.5674 -1.1670
  104MOL   H39743863   0.709   3.431   7.091 -0.7525  1.0371  1.3004
  104MOL   H39843864   0.797   3.574   6.885  0.9657 -0.5945  1.6871
  104MOL   H39943865   0.638   3.570   6.817 -2.0155 -2.0360 -0.0212
  104MOL   H40043866   0.740   3.421   6.834 -2.2884 -3.1151  1.5585
  104MOL   C40143867   0.264   3.664   7.314  0.0282  0.4314 -0.5616
  104MOL   C40243868   0.152   3.647   7.214 -0.4069 -0.0868 -0.4663
  104MOL   C40343869   0.067   3.534   7.259 -0.0925  0.3708  0.3108
  104MOL   C40443870   7.676   3.486   7.150 -0.5048  0.3498 -0.7510
  104MOL   C40543871   7.586   3.368   7.191 -0.9275 -0.0177 -0.2391
  104MOL   C40643872   7.507   3.297   7.078  0.8202 -0.2950 -0.3200
  104MOL   C40743873   7.434   3.173   7.139  0.0795  0.1124  0.6644
  104MOL   H40843874   0.231   3.707   7.408  2.4862 -1.8220  1.4283
  104MOL   H40943875   0.309   3.569   7.342 -3.6428 -0.3395  3.1545
  104MOL   H41043876   0.194   3.631   7.114  3.4601 -1.0520  1.2364
  104MOL   H41143877   0.016   3.557   7.352  1.5859 -0.9080  1.5670
  104MOL   H41243878   0.123   3.443   7.281  0.6579  0.6811 -0.2940
  104MOL   H41343879   0.028   3.459   7.067 -2.0735 -0.6479 -1.6825
  104MOL   H41443880   7.630   3.580   7.121  0.9150  1.3977  0.2703
  104MOL   H41543881   7.654   3.296   7.237 -0.0728  0.7694 -0.2424
  104MOL   H41643882   7.517   3.406   7.266 -1.8000 -0.7689 -0.6475
  104MOL   H41743883   7.430   3.365   7.041  1.9217  0.7535 -0.7297
  104MOL   H41843884   7.572   3.267   6.997  0.1509 -0.4655 -0.7928
  104MOL   H41943885   7.377   3.192   7.230 -2.2254  0.0650 -0.7438
  104MOL   H42043886   7.506   3.090   7.145  0.3717  0.0406 -3.0081
  104MOL   H42143887   7.361   3.145   7.064 -0.0911 -1.0470  1.2477
  104MOL   H42243888   0.094   3.739   7.203  0.3155  0.2209 -1.8804
  105MOL     C143889   7.105   0.202   4.119 -0.0077  0.4019  0.3523
  105MOL     C243890   7.145   0.354   4.127 -0.6791 -0.0985 -0.6275
  105MOL     C343891   7.252   0.378   4.235 -0.4504 -0.2799 -0.8885
  105MOL     C443892   7.215   0.357   4.382 -0.3900  0.1005  0.0741
  105MOL     C543893   7.331   0.360   4.474  0.2047  0.7299  0.6107
  105MOL     C643894   7.383   0.501   4.503  0.1091 -0.0832 -0.4596
  105MOL     C743895   7.293   0.601   4.574 -0.1680  0.5448 -0.4148
  105MOL     H843896   7.187   0.130   4.120 -0.0064  0.3896 -0.6979
  105MOL     H943897   7.054   0.192   4.023 -0.5301  2.1477  0.4241
  105MOL    H1043898   7.187   0.377   4.029 -0.4460 -0.9538 -0.7291
  105MOL    H1143899   7.339   0.316   4.216 -0.1309  0.4525 -1.8711
  105MOL    H1243900   7.287   0.481   4.232  0.4596 -0.4545  1.9080
  105MOL    H1343901   7.127   0.412   4.415  1.3272  1.9184  1.7638
  105MOL    H1443902   7.173   0.257   4.392 -0.1497 -0.0203 -0.1184
  105MOL    H1543903   7.410   0.312   4.416 -0.7188  0.6684 -0.6226
  105MOL    H1643904   7.314   0.301   4.564  0.4802  0.3824  0.4378
  105MOL    H1743905   7.414   0.546   4.408  1.7493 -3.2733 -1.5167
  105MOL    H1843906   7.480   0.495   4.553  0.0965 -1.8272 -0.6190
  105MOL    H1943907   7.268   0.585   4.679  1.3573 -0.3532 -0.1765
  105MOL    H2043908   7.192   0.590   4.536  0.4382  0.9923 -2.1964
  105MOL    H2143909   7.331   0.703   4.560  3.3283 -0.7277 -0.6735
  105MOL    H2243910   7.025   0.187   4.192  1.1163 -0.1617  1.4957
  105MOL    C2343911   7.009   0.433   4.141  0.2850 -0.4937 -0.4072
  105MOL    C2443912   7.029   0.588   4.145 -0.2129  0.4900  0.2677
  105MOL    C2543913   6.926   0.654   4.230  0.4609 -0.1297  0.0553
  105MOL    C2643914   6.773   0.646   4.198 -0.1629 -0.1623 -0.0297
  105MOL    C2743915   6.683   0.713   4.302 -0.1595 -0.5611  0.3487
  105MOL    C2843916   6.547   0.750   4.245 -0.6720  0.8047  0.3938
  105MOL    C2943917   6.441   0.815   4.329 -0.0891  0.2177 -0.4888
  105MOL    H3043918   6.928   0.413   4.071 -0.7197 -1.4184  0.9637
  105MOL    H3143919   6.963   0.393   4.232 -0.1118  1.9902  0.5364
  105MOL    H3243920   7.128   0.614   4.184  1.1277 -4.4697  0.5323
  105MOL    H3343921   6.948   0.761   4.237 -1.0534  0.1566  0.6894
  105MOL    H3443922   6.933   0.620   4.334 -2.8503 -0.9352  0.0737
  105MOL    H3543923   6.744   0.542   4.213 -0.1485 -0.0973  0.4566
  105MOL    H3643924   6.754   0.684   4.098  0.6727  1.8638  0.5523
  105MOL    H3743925   6.727   0.807   4.336  0.4832 -0.8396  0.2940
  105MOL    H3843926   6.668   0.650   4.390  1.3396 -1.7520 -0.2294
  105MOL    H3943927   6.517   0.648   4.220  1.1595  0.7179 -1.6085
  105MOL    H4043928   6.571   0.804   4.153  0.2742 -1.4019 -0.6938
  105MOL    H4143929   6.445   0.914   4.376 -1.9214 -0.5283  1.3326
  105MOL    H4243930   6.343   0.812   4.282 -0.3554  0.0423  0.0775
  105MOL    H4343931   6.433   0.746   4.413  1.2311 -0.8647 -1.2501
  105MOL    C4443932   7.032   0.644   4.004 -0.3612 -0.2774  0.3542
  105MOL    C4543933   7.053   0.793   3.972  0.4676 -0.1851  0.8535
  105MOL    C4643934   7.189   0.839   4.023 -0.3684 -0.5438 -0.3893
  105MOL    C4743935   7.201   0.889   4.162 -0.7603 -0.3003 -0.0362
  105MOL    C4843936   7.341   0.944   4.196 -0.2259  0.1667 -0.9439
  105MOL    C4943937   7.379   0.936   4.347  0.0952  0.7243  0.0138
  105MOL    C5043938   7.287   1.020   4.433 -0.3869  0.5961  0.2310
  105MOL    H5143939   6.935   0.620   3.961  0.4120 -0.1606 -1.4869
  105MOL    H5243940   7.101   0.596   3.935 -0.4091  0.8816 -0.5179
  105MOL    H5343941   6.978   0.849   4.027  1.0254 -0.7525  2.1928
  105MOL    H5443942   7.213   0.918   3.951 -1.6495  0.1001 -0.1167
  105MOL    H5543943   7.271   0.767   4.015 -0.7305 -1.0168  0.1500
  105MOL    H5643944   7.120   0.959   4.183  0.7304  0.9787  1.7226
  105MOL    H5743945   7.185   0.806   4.231 -0.3768 -0.8308 -0.5845
  105MOL    H5843946   7.348   1.044   4.154  3.6683  0.7504  0.8274
  105MOL    H5943947   7.415   0.892   4.137 -0.4542  0.0861 -1.1590
  105MOL    H6043948   7.486   0.950   4.362  0.0822  1.2446 -0.3494
  105MOL    H6143949   7.358   0.830   4.363 -1.0162  0.6654 -1.6558
  105MOL    H6243950   7.183   0.995   4.412  0.1929 -0.3798 -1.5301
  105MOL    H6343951   7.302   1.127   4.415  0.8235  0.0640 -2.1683
  105MOL    H6443952   7.301   0.998   4.539  0.5940  0.3274  0.0500
  105MOL    C6543953   7.034   0.822   3.824 -0.1986  0.5315  0.2962
  105MOL    C6643954   7.020   0.970   3.787  0.2649 -0.4351  0.4323
  105MOL    C6743955   6.881   1.031   3.829  0.6214  0.5292  0.4030
  105MOL    C6843956   6.758   0.983   3.756 -0.3434  0.1998 -0.0869
  105MOL    C6943957   6.632   1.064   3.799 -0.3881  0.3884 -0.3583
  105MOL    C7043958   6.504   1.013   3.721 -0.7068 -0.3723 -0.4545
  105MOL    C7143959   6.376   1.062   3.779 -0.4538  0.4813  0.0198
  105MOL    H7243960   7.119   0.776   3.775 -0.9797 -1.0135  0.3728
  105MOL    H7343961   6.951   0.768   3.779  1.2647 -1.7092  0.2244
  105MOL    H7443962   7.090   1.039   3.834 -0.0107 -1.1907  1.9691
  105MOL    H7543963   6.875   0.999   3.933 -1.4689 -0.3805  0.0135
  105MOL    H7643964   6.879   1.140   3.825  0.2841  0.5179  0.2807
  105MOL    H7743965   6.777   0.990   3.649  0.6227  0.1450  0.0770
  105MOL    H7843966   6.743   0.877   3.772 -1.4554 -0.0095 -2.2567
  105MOL    H7943967   6.624   1.049   3.907  1.9512  1.1113 -0.0713
  105MOL    H8043968   6.653   1.168   3.777  0.7753  0.7233  2.2653
  105MOL    H8143969   6.481   0.906   3.725 -0.7797 -0.3338  0.0898
  105MOL    H8243970   6.513   1.045   3.617 -0.4338 -0.9364 -0.6091
  105MOL    H8343971   6.362   1.169   3.793 -1.4929  0.3256  0.1994
  105MOL    H8443972   6.289   1.015   3.732 -0.6271 -0.0905  0.8986
  105MOL    H8543973   6.377   1.031   3.883  1.4171  3.7534  1.0202
  105MOL    C8643974   7.052   1.007   3.634 -0.9012  0.6724  0.2806
  105MOL    C8743975   7.199   0.975   3.592 -0.5111  0.0647 -0.2201
  105MOL    C8843976   7.227   0.877   3.470  0.4456  0.4276 -0.1721
  105MOL    C8943977   7.181   0.919   3.328  0.8555  0.2084 -0.2785
  105MOL    C9043978   7.159   0.807   3.226  0.5912 -0.0840 -0.5463
  105MOL    C9143979   7.115   0.858   3.089  0.7577  0.5909  0.8902
  105MOL    C9243980   7.069   0.745   2.988 -0.7054 -0.0036  0.0394
  105MOL    H9343981   6.987   0.955   3.564 -0.0595 -1.6661  1.2015
  105MOL    H9443982   7.023   1.112   3.626 -1.1027  0.8544  2.9423
  105MOL    H9543983   7.262   0.934   3.671 -0.5704  2.5801  1.1652
  105MOL    H9643984   7.335   0.877   3.455  0.5539  2.0695  0.4919
  105MOL    H9743985   7.202   0.776   3.502 -1.3502  1.2933  1.2075
  105MOL    H9843986   7.087   0.970   3.348 -0.2389 -1.8047 -0.2456
  105MOL    H9943987   7.252   0.997   3.298  0.4876  0.3153 -0.8770
  105MOL   H10043988   7.081   0.741   3.263  0.8192 -0.0634 -0.0139
  105MOL   H10143989   7.251   0.750   3.214 -0.0064 -1.1789  0.0095
  105MOL   H10243990   7.038   0.933   3.109  1.8283  1.9751 -0.1305
  105MOL   H10343991   7.196   0.913   3.042 -0.4206  1.6255  0.0393
  105MOL   H10443992   7.142   0.665   2.973 -1.8920 -1.2146  0.6401
  105MOL   H10543993   7.055   0.779   2.886  2.1637  1.3573  0.0550
  105MOL   H10643994   6.977   0.700   3.024  0.2672 -0.5696  1.8703
  105MOL   C10743995   7.267   1.113   3.559  0.0183 -0.3522  0.1511
  105MOL   C10843996   7.318   1.208   3.668  0.3134  0.0676  0.0799
  105MOL   C10943997   7.452   1.149   3.723  0.7629 -0.1677 -0.6556
  105MOL   C11043998   7.483   1.201   3.859  0.2297  0.1935 -0.0148
  105MOL   C11143999   7.635   1.162   3.896  0.5072  0.2171 -0.5078
  105MOL   C11244000   7.671   1.191   4.047  0.9777  0.0687  0.0088
  105MOL   C11344001   0.110   1.179   4.067  0.7412 -0.5034 -0.0514
  105MOL   H11444002   7.199   1.164   3.491  0.7505  0.3548 -0.0565
  105MOL   H11544003   7.349   1.105   3.488  0.4182 -1.4786  0.7303
  105MOL   H11644004   7.250   1.207   3.753 -0.2755  2.0903 -0.3416
  105MOL   H11744005   7.535   1.172   3.657  1.2788 -2.3280 -0.7765
  105MOL   H11844006   7.452   1.040   3.719  1.8735 -0.1480 -1.5669
  105MOL   H11944007   7.475   1.310   3.853 -0.7616  0.1910  1.0794
  105MOL   H12044008   7.421   1.154   3.935  0.5358  1.1968  0.8785
  105MOL   H12144009   7.711   1.202   3.829 -1.8020  0.6317 -2.9969
  105MOL   H12244010   7.639   1.053   3.890 -0.2386  0.1496  0.1007
  105MOL   H12344011   7.637   1.290   4.076  1.8365  0.2001  0.6069
  105MOL   H12444012   7.619   1.120   4.111  2.0215 -0.4969  0.2500
  105MOL   H12544013   0.161   1.263   4.021  1.9359 -0.8046  0.6904
  105MOL   H12644014   0.141   1.159   4.170 -0.4891 -3.4126 -0.1817
  105MOL   H12744015   0.143   1.082   4.031 -0.1725 -0.7371 -0.2714
  105MOL   C12844016   7.326   1.359   3.612  0.5078  0.0772  0.2630
  105MOL   C12944017   7.234   1.458   3.685 -0.9376 -0.1992  1.1831
  105MOL   C13044018   7.082   1.421   3.695  0.1798 -0.6265 -0.7095
  105MOL   C13144019   7.005   1.420   3.563  0.2792  0.9230  0.0151
  105MOL   C13244020   6.857   1.375   3.581 -0.0487  0.4126  0.0599
  105MOL   C13344021   6.771   1.418   3.465  0.1378  0.4847  0.0663
  105MOL   C13444022   6.807   1.348   3.327 -0.2163  0.4429 -0.1681
  105MOL   H13544023   7.430   1.389   3.625  1.0259 -1.0091 -1.1629
  105MOL   H13644024   7.322   1.368   3.503  3.5110  1.3976  0.2215
  105MOL   H13744025   7.270   1.455   3.787  3.3864 -1.7210 -0.2732
  105MOL   H13844026   7.034   1.499   3.754  2.3304  0.6778 -0.6451
  105MOL   H13944027   7.068   1.326   3.747  1.5981  0.2531  1.3208
  105MOL   H14044028   7.063   1.353   3.500 -0.2604 -0.7951  1.2780
  105MOL   H14144029   7.009   1.522   3.525 -1.1481  0.0032 -2.7410
  105MOL   H14244030   6.818   1.415   3.675  0.0426 -2.1021  1.2256
  105MOL   H14344031   6.848   1.266   3.589  0.5982  0.5355  2.9284
  105MOL   H14444032   6.775   1.526   3.449  1.6429  0.4338  0.0306
  105MOL   H14544033   6.668   1.395   3.493  0.5996 -1.3801  0.3019
  105MOL   H14644034   6.752   1.387   3.242 -2.2229 -0.9999  0.4481
  105MOL   H14744035   6.787   1.241   3.335  0.9524  0.1717 -0.7710
  105MOL   H14844036   6.915   1.349   3.313 -0.4014  0.9526 -1.6016
  105MOL   C14944037   7.253   1.606   3.631 -0.0776  0.1612  0.4123
  105MOL   C15044038   7.320   1.708   3.726  0.1906  0.2275  0.2990
  105MOL   C15144039   7.467   1.662   3.767  0.0761  0.1865 -0.3090
  105MOL   C15244040   7.574   1.709   3.658  0.5712 -0.3679  0.3802
  105MOL   C15344041   0.004   1.650   3.691  0.0337  0.1242 -0.2721
  105MOL   C15444042   0.018   1.492   3.714  0.4747 -0.3041  0.1430
  105MOL   C15544043   0.161   1.461   3.764  0.8394 -0.6372 -0.4932
  105MOL   H15644044   7.308   1.605   3.537 -1.0270 -1.6855 -0.1510
  105MOL   H15744045   7.160   1.651   3.597 -0.0797  0.3943  0.7234
  105MOL   H15844046   7.323   1.810   3.688  1.9720 -0.0520 -0.3401
  105MOL   H15944047   7.491   1.695   3.868  3.3254  0.4236 -1.0972
  105MOL   H16044048   7.470   1.553   3.770  0.5480  0.2295  3.7869
  105MOL   H16144049   7.578   1.818   3.665 -1.6729 -0.3567  2.4639
  105MOL   H16244050   7.553   1.684   3.554  1.6231 -0.5954  0.2194
  105MOL   H16344051   0.049   1.697   3.778  2.6782 -0.1316 -1.4745
  105MOL   H16444052   0.068   1.682   3.609 -0.6022  0.1983 -0.7469
  105MOL   H16544053   7.707   1.428   3.629 -1.9394 -1.7890  1.8660
  105MOL   H16644054   7.660   1.467   3.792 -1.3737 -0.4164 -1.5262
  105MOL   H16744055   0.242   1.491   3.698  1.2281  0.0128  0.2678
  105MOL   H16844056   0.177   1.353   3.767  0.6260 -0.7261 -2.0181
  105MOL   H16944057   0.182   1.511   3.859 -1.0691 -0.3562 -0.2078
  105MOL   C17044058   7.233   1.734   3.849  0.4794 -0.1924  0.8616
  105MOL   C17144059   7.098   1.812   3.834 -0.3411 -0.2815  0.7791
  105MOL   C17244060   7.011   1.802   3.960  0.0188 -0.4442  0.0802
  105MOL   C17344061   6.860   1.834   3.939 -0.5553  0.4226 -0.0398
  105MOL   C17444062   6.767   1.743   4.020 -0.1375  0.0206  0.5534
  105MOL   C17544063   6.777   1.596   3.975  0.2068  1.1541 -0.2610
  105MOL   C17644064   6.683   1.506   4.059 -0.0441 -0.1470 -0.6243
  105MOL   H17744065   7.285   1.795   3.922  2.6583 -3.2233  1.9195
  105MOL   H17844066   7.213   1.641   3.902  0.2084  0.0072  1.1076
  105MOL   H17944067   7.042   1.762   3.755  1.0435  2.0520 -1.7717
  105MOL   H18044068   7.053   1.870   4.034  4.3343 -0.0443 -2.5877
  105MOL   H18144069   7.017   1.702   4.002 -0.7490 -1.0905 -1.3013
  105MOL   H18244070   6.840   1.813   3.834  2.4227  0.3948 -0.6528
  105MOL   H18344071   6.841   1.941   3.935 -0.3154  0.4461 -0.8536
  105MOL   H18444072   6.664   1.777   4.012  0.0040  0.2793 -0.2868
  105MOL   H18544073   6.793   1.748   4.126 -0.5763 -1.6710  0.7564
  105MOL   H18644074   6.879   1.558   3.969  0.0962  0.9707 -1.1014
  105MOL   H18744075   6.745   1.603   3.871 -0.6008 -2.8525 -0.3426
  105MOL   H18844076   6.699   1.398   4.054  0.1484 -0.2233  1.3349
  105MOL   H18944077   6.580   1.539   4.046  0.3202  2.7947  3.0770
  105MOL   H19044078   6.704   1.546   4.158 -1.3733 -0.3538 -0.2481
  105MOL   C19144079   7.111   1.954   3.773  0.3923 -0.0852  0.7540
  105MOL   C19244080   7.105   1.976   3.611 -0.3049  0.2710  0.4574
  105MOL   C19344081   6.956   1.966   3.555 -0.4108  0.4354 -0.4937
  105MOL   C19444082   6.921   1.981   3.409 -0.2484 -0.1770 -0.4869
  105MOL   C19544083   7.009   1.897   3.311 -0.0701  0.3187  0.1975
  105MOL   C19644084   6.985   1.743   3.319 -0.3844 -0.5453 -0.1607
  105MOL   C19744085   7.109   1.663   3.283  0.2198  0.1439  0.1820
  105MOL   H19844086   7.207   1.992   3.808  1.1526 -2.3911  1.2326
  105MOL   H19944087   7.041   2.029   3.810  1.5352  1.5002 -0.2141
  105MOL   H20044088   7.165   1.898   3.564 -1.1052 -1.6779  2.5734
  105MOL   H20144089   6.897   2.039   3.610 -2.0818  0.8725 -2.7800
  105MOL   H20244090   6.921   1.871   3.594  0.2277 -0.0167 -1.0064
  105MOL   H20344091   6.931   2.088   3.393  0.5065 -0.0190  0.9944
  105MOL   H20444092   6.817   1.952   3.398 -0.5369  0.9130 -0.6316
  105MOL   H20544093   6.996   1.929   3.208  1.3784 -1.8695 -0.6924
  105MOL   H20644094   7.115   1.919   3.328 -0.1938 -0.0331  1.5315
  105MOL   H20744095   6.908   1.718   3.245 -0.1711 -0.8717 -0.2748
  105MOL   H20844096   6.944   1.720   3.417  1.2357 -3.3229 -0.0739
  105MOL   H20944097   7.198   1.699   3.333  1.9150 -4.6767  0.8519
  105MOL   H21044098   7.126   1.658   3.175  0.8401  0.1134  0.2790
  105MOL   H21144099   7.100   1.563   3.325 -0.6571  0.8221  1.6299
  105MOL   C21244100   7.179   2.113   3.575  0.3310  0.1181  0.5459
  105MOL   C21344101   7.334   2.110   3.560  0.0019 -0.1739  0.0741
  105MOL   C21444102   7.397   2.036   3.440  0.3193 -0.1772 -0.1533
  105MOL   C21544103   7.401   2.110   3.307 -0.1551  0.3976 -0.0144
  105MOL   C21644104   7.463   2.033   3.187  0.8605  0.5302 -0.1193
  105MOL   C21744105   7.352   1.944   3.120 -0.4232 -0.1547  0.1502
  105MOL   C21844106   7.398   1.887   2.983  0.1594  0.2702 -0.1341
  105MOL   H21944107   7.141   2.198   3.632 -0.0170  0.0252  0.4527
  105MOL   H22044108   7.145   2.140   3.475  0.2373 -1.4217  0.1621
  105MOL   H22144109   7.359   2.045   3.645 -1.9359 -2.2890 -0.9288
  105MOL   H22244110   7.499   2.007   3.466  1.1814  1.7254 -1.3197
  105MOL   H22344111   7.345   1.941   3.422  2.5336 -1.1765 -1.4757
  105MOL   H22444112   7.463   2.200   3.314  0.9594 -0.5230  3.1204
  105MOL   H22544113   7.307   2.152   3.272 -0.1169 -0.2730 -0.9459
  105MOL   H22644114   7.531   2.091   3.124 -0.0758  1.1698 -0.5451
  105MOL   H22744115   7.541   1.964   3.219  0.0636 -0.9624 -1.3471
  105MOL   H22844116   7.320   1.868   3.190 -1.9892 -0.9985 -1.4245
  105MOL   H22944117   7.257   1.992   3.098 -0.5985 -0.9950 -0.9733
  105MOL   H23044118   7.422   1.962   2.907 -2.0178  0.9804 -0.1456
  105MOL   H23144119   7.322   1.826   2.934  1.3438 -0.2195 -1.3930
  105MOL   H23244120   7.487   1.824   2.989  1.7043  2.1798 -2.1731
  105MOL   C23344121   7.386   2.258   3.585  0.5850 -0.9711 -0.4421
  105MOL   C23444122   7.410   2.302   3.734  0.2807  0.0815  0.3574
  105MOL   C23544123   7.557   2.286   3.780 -0.9170  0.0038 -0.4126
  105MOL   C23644124   7.625   2.143   3.758 -0.7001  0.4814  0.3760
  105MOL   C23744125   0.063   2.131   3.794  1.3144 -0.5274  0.7371
  105MOL   C23844126   0.078   2.139   3.946 -0.2365  0.6727  0.2356
  105MOL   C23944127   0.214   2.096   4.003  0.2801 -0.4452 -0.4895
  105MOL   H24044128   7.330   2.325   3.519  0.5777 -0.8066 -0.2682
  105MOL   H24144129   7.488   2.261   3.547  1.3391 -0.8522  1.5726
  105MOL   H24244130   7.353   2.233   3.796  1.6031 -0.8763  0.5423
  105MOL   H24344131   7.584   2.328   3.877 -0.6132 -2.0044  0.3902
  105MOL   H24444132   7.612   2.358   3.720  1.4473 -0.6774  0.8778
  105MOL   H24544133   7.613   2.112   3.654 -0.1516  0.8859  0.1909
  105MOL   H24644134   7.556   2.079   3.814 -0.9551  0.0392 -0.4316
  105MOL   H24744135   0.122   2.211   3.749  1.2474 -0.0712  1.4514
  105MOL   H24844136   0.090   2.041   3.738 -2.7657 -0.2031 -1.9933
  105MOL   H24944137   0.055   2.241   3.977  0.4788  0.7792  0.4196
  105MOL   H25044138   0.008   2.080   4.006  0.8100 -1.2057 -0.3625
  105MOL   H25144139   0.216   2.094   4.112 -1.2584 -4.0029 -0.4526
  105MOL   H25244140   0.240   1.990   3.998  4.5281  0.2913  2.5314
  105MOL   H25344141   0.298   2.160   3.974 -0.4377  1.5071  1.6047
  105MOL   C25444142   7.356   2.439   3.760 -0.2473 -1.0857  0.2782
  105MOL   C25544143   7.352   2.496   3.909 -0.6047  0.1225  0.2299
  105MOL   C25644144   7.296   2.384   3.999 -0.2586 -0.4372 -0.1623
  105MOL   C25744145   7.252   2.408   4.143  0.7068 -0.5976 -0.0798
  105MOL   C25844146   7.170   2.290   4.197 -0.1165 -0.6079 -0.2517
  105MOL   C25944147   7.086   2.329   4.321  0.4354  0.8387 -0.0021
  105MOL   C26044148   7.165   2.337   4.455  0.2542  0.1588 -0.0012
  105MOL   H26144149   7.253   2.420   3.731 -0.8248 -0.7178  2.0202
  105MOL   H26244150   7.412   2.506   3.694 -3.2811 -0.6650 -1.9873
  105MOL   H26344151   7.457   2.513   3.933 -0.4165 -0.7283  0.0481
  105MOL   H26444152   7.368   2.302   4.000  1.1105  0.7536  0.5583
  105MOL   H26544153   7.217   2.335   3.942 -3.6695  3.8204  0.6496
  105MOL   H26644154   7.332   2.433   4.213  0.3183 -0.4960  0.3324
  105MOL   H26744155   7.190   2.498   4.150 -0.6194 -1.4360 -0.8076
  105MOL   H26844156   7.244   2.213   4.220 -0.1354 -0.2523  1.0651
  105MOL   H26944157   7.099   2.248   4.126 -0.6828  1.1069 -0.7092
  105MOL   H27044158   7.017   2.409   4.297  1.3617  1.7714  0.4108
  105MOL   H27144159   7.009   2.252   4.331 -0.6100  1.4722 -2.7690
  105MOL   H27244160   7.193   2.237   4.488 -1.1438 -0.0442  0.5883
  105MOL   H27344161   7.247   2.407   4.443 -1.2861  2.4673  2.3234
  105MOL   H27444162   7.099   2.371   4.535  0.8609 -1.8060  1.3671
  105MOL   C27544163   7.277   2.630   3.911  1.0881  0.7762  0.3612
  105MOL   C27644164   7.354   2.748   3.844 -0.9363  0.0499 -0.3232
  105MOL   C27744165   7.396   2.855   3.943 -0.1572 -0.7226 -0.5148
  105MOL   C27844166   7.505   2.813   4.046 -0.3092  0.1012  0.5545
  105MOL   C27944167   7.524   2.903   4.176  0.2325 -0.3657  0.5164
  105MOL   C28044168   7.405   2.887   4.268 -0.1490  0.7608  0.2999
  105MOL   C28144169   7.412   2.971   4.391 -0.0840 -0.1809 -0.5030
  105MOL   H28244170   7.238   2.656   4.009 -0.2332  1.2827 -0.2798
  105MOL   H28344171   7.187   2.613   3.852  1.5431  2.0153 -0.7189
  105MOL   H28444172   7.443   2.706   3.798 -0.0732  1.5825 -0.1117
  105MOL   H28544173   7.415   2.949   3.890  0.0140  0.8429  2.2524
  105MOL   H28644174   7.303   2.876   3.995 -0.2611  1.7081 -1.6043
  105MOL   H28744175   7.605   2.814   4.004 -0.3309  2.5289  0.4806
  105MOL   H28844176   7.497   2.708   4.073  1.5222 -0.5629 -1.3409
  105MOL   H28944177   7.528   3.010   4.156 -1.1115 -0.0103  2.1002
  105MOL   H29044178   7.614   2.871   4.229 -0.5850 -2.6991  0.5808
  105MOL   H29144179   7.310   2.907   4.220 -1.0199 -1.5846  0.9943
  105MOL   H29244180   7.402   2.781   4.296  0.8119  0.1882 -1.6860
  105MOL   H29344181   7.400   3.076   4.364 -2.0335 -0.1484  0.4049
  105MOL   H29444182   7.504   2.948   4.446 -0.8350 -1.3950  0.2837
  105MOL   H29544183   7.324   2.959   4.454 -2.6698  2.4550 -3.4481
  105MOL   C29644184   7.258   2.821   3.732 -0.1859  0.4349 -0.1044
  105MOL   C29744185   7.234   2.744   3.599  0.1732  0.0171 -0.3314
  105MOL   C29844186   7.360   2.747   3.512 -0.5465 -0.1916  0.3726
  105MOL   C29944187   7.362   2.627   3.411 -0.7015  0.8230 -0.1996
  105MOL   C30044188   7.481   2.623   3.320 -0.0485 -0.4902 -0.2207
  105MOL   C30144189   7.477   2.515   3.208  0.1608  0.2887 -0.4656
  105MOL   C30244190   7.355   2.528   3.124  0.3523  0.1834 -0.2654
  105MOL   H30344191   7.163   2.844   3.781 -0.7126  0.9503 -1.3569
  105MOL   H30444192   7.303   2.917   3.708  2.0421 -0.2218  1.2853
  105MOL   H30544193   7.222   2.638   3.622  2.5901  0.0024  1.0739
  105MOL   H30644194   7.371   2.845   3.466 -0.1949 -0.6646 -0.5635
  105MOL   H30744195   7.458   2.740   3.559 -0.2455  1.0504 -0.0582
  105MOL   H30844196   7.269   2.635   3.354 -2.0753 -0.3571  1.8077
  105MOL   H30944197   7.347   2.529   3.454  0.1701 -0.0417 -1.8241
  105MOL   H31044198   7.564   2.606   3.390  2.5007  2.4859 -2.3975
  105MOL   H31144199   7.499   2.716   3.266 -0.4262 -1.0452 -1.3064
  105MOL   H31244200   7.569   2.512   3.150 -0.2842 -1.7131 -1.0987
  105MOL   H31344201   7.471   2.416   3.253  0.0628 -0.6378 -2.4874
  105MOL   H31444202   7.351   2.627   3.079  0.6985  0.3017 -0.0389
  105MOL   H31544203   7.360   2.462   3.038 -1.1334  2.1259 -1.8620
  105MOL   H31644204   7.270   2.506   3.188  0.2474  1.0384 -0.1006
  105MOL   C31744205   7.116   2.796   3.515  0.0440 -0.5505  0.2527
  105MOL   C31844206   6.974   2.744   3.532 -0.1957 -0.1819  0.3009
  105MOL   C31944207   6.962   2.594   3.478  0.4116  0.4529 -0.2617
  105MOL   C32044208   6.819   2.554   3.433  0.6965 -0.2237  0.7006
  105MOL   C32144209   6.806   2.409   3.394  1.0503 -0.6767  0.2583
  105MOL   C32244210   6.656   2.373   3.379 -0.3619  0.2858  0.1264
  105MOL   C32344211   6.629   2.221   3.378 -0.6339 -0.2954  0.0558
  105MOL   H32444212   7.144   2.788   3.410 -0.4186  2.1780 -0.1161
  105MOL   H32544213   7.116   2.904   3.531 -0.4564 -0.4472 -0.4327
  105MOL   H32644214   6.915   2.804   3.463 -1.0211  0.7143  1.7532
  105MOL   H32744215   7.015   2.526   3.546  0.8171  0.8212 -0.2108
  105MOL   H32844216   7.011   2.578   3.382 -0.4160 -0.6310 -0.5181
  105MOL   H32944217   6.785   2.625   3.357  2.7975  0.2247  0.1235
  105MOL   H33044218   6.748   2.574   3.512  0.4526 -0.8091  0.6331
  105MOL   H33144219   6.845   2.357   3.481 -0.7052  2.1271  2.8266
  105MOL   H33244220   6.871   2.378   3.312  1.4670  0.7773  0.0363
  105MOL   H33344221   6.618   2.424   3.291 -0.5888 -1.6399 -0.9273
  105MOL   H33444222   6.608   2.419   3.465 -0.0891  1.8246 -0.5334
  105MOL   H33544223   6.685   2.168   3.456 -2.5271 -2.0265  0.2907
  105MOL   H33644224   6.661   2.169   3.288  0.3037  0.3117  0.0330
  105MOL   H33744225   6.522   2.199   3.381 -0.4041 -2.0985 -2.9083
  105MOL   C33844226   6.911   2.762   3.672  0.5432 -0.3695 -0.6680
  105MOL   C33944227   6.871   2.906   3.715  0.3056 -0.6018 -0.3951
  105MOL   C34044228   6.818   2.922   3.863 -0.3870 -0.1476  0.1374
  105MOL   C34144229   6.929   2.878   3.964 -0.0766 -0.4600 -0.4531
  105MOL   C34244230   6.881   2.889   4.107  0.0722  0.0589  0.8995
  105MOL   C34344231   6.981   2.830   4.208  0.0442  0.7061 -0.0659
  105MOL   C34444232   6.944   2.836   4.355  0.1245  0.0630 -0.5398
  105MOL   H34544233   6.994   2.746   3.740 -1.3209 -0.3563  1.6962
  105MOL   H34644234   6.828   2.697   3.702  2.1597 -2.5969 -0.9187
  105MOL   H34744235   6.957   2.971   3.702  0.5653 -0.8098  0.2316
  105MOL   H34844236   6.802   3.027   3.887  1.8910  0.3946 -0.5315
  105MOL   H34944237   6.721   2.877   3.884 -1.2978  1.0283 -1.4133
  105MOL   H35044238   7.018   2.939   3.953 -0.8054  0.8843  0.9184
  105MOL   H35144239   6.964   2.775   3.955  0.9918 -0.1603  0.2412
  105MOL   H35244240   6.864   2.996   4.115 -2.0274 -0.1378 -0.4359
  105MOL   H35344241   6.784   2.843   4.128 -0.8758  2.1626  1.1886
  105MOL   H35444242   7.013   2.729   4.182 -0.0615 -0.2993  3.3622
  105MOL   H35544243   7.067   2.898   4.200 -0.1315  0.8632 -0.6222
  105MOL   H35644244   6.944   2.939   4.389  0.5966  0.6867 -2.4056
  105MOL   H35744245   7.018   2.779   4.411  1.6836  1.5978 -1.0129
  105MOL   H35844246   6.851   2.783   4.375 -0.0558 -0.0117 -1.5408
  105MOL   C35944247   6.764   2.958   3.611 -0.2156  0.4343  0.1088
  105MOL   C36044248   6.832   3.067   3.505  0.0236  0.8938  0.7684
  105MOL   C36144249   6.736   3.079   3.381  0.0444 -0.0092  0.8006
  105MOL   C36244250   6.758   2.964   3.280  0.9368  0.3660  0.3167
  105MOL   C36344251   6.687   2.978   3.141 -0.2742 -0.1265 -1.0474
  105MOL   C36444252   6.710   2.864   3.053 -0.6343  0.7719 -0.2267
  105MOL   C36544253   6.621   2.864   2.923  0.5003 -0.3734 -0.3938
  105MOL   H36644254   6.691   3.019   3.665 -0.8434 -0.1129 -0.1180
  105MOL   H36744255   6.715   2.875   3.561  0.8502 -0.2820  0.2301
  105MOL   H36844256   6.931   3.031   3.475 -0.0086  1.7849 -0.4141
  105MOL   H36944257   6.633   3.075   3.418 -1.0780  0.6460 -2.1225
  105MOL   H37044258   6.757   3.172   3.329  0.0175 -0.7606 -0.5624
  105MOL   H37144259   6.865   2.943   3.272  0.8255  0.0273 -0.2921
  105MOL   H37244260   6.710   2.877   3.326 -0.3098  0.8406 -0.0545
  105MOL   H37344261   6.581   2.970   3.167  0.3945  0.0550  1.8927
  105MOL   H37444262   6.715   3.065   3.081  2.4323 -1.0426 -1.1954
  105MOL   H37544263   6.814   2.873   3.021 -0.4172 -0.7517  0.0209
  105MOL   H37644264   6.708   2.768   3.105  0.5168  0.9551  0.1853
  105MOL   H37744265   6.512   2.870   2.925  0.4350 -1.5143 -0.3528
  105MOL   H37844266   6.647   2.952   2.864 -0.5033  0.7972  0.8818
  105MOL   H37944267   6.642   2.765   2.883 -0.9826 -0.9457  0.2028
  105MOL   C38044268   6.856   3.199   3.589  0.3279 -0.2918 -0.0935
  105MOL   C38144269   6.976   3.285   3.554 -0.5125 -0.1586 -0.0016
  105MOL   C38244270   6.943   3.398   3.445 -0.0505  0.0816  0.4229
  105MOL   C38344271   7.079   3.447   3.385  0.4417  0.1759 -0.5464
  105MOL   C38444272   7.073   3.539   3.258  0.0996 -0.4871 -0.1324
  105MOL   C38544273   7.207   3.593   3.211 -0.4398  0.0586  0.5575
  105MOL   C38644274   7.193   3.659   3.079 -0.3111  0.1283  0.1941
  105MOL   H38744275   6.767   3.261   3.584 -0.3804 -1.2665  0.2667
  105MOL   H38844276   6.857   3.165   3.692  0.0251  0.2070  0.0756
  105MOL   H38944277   7.054   3.220   3.516 -1.7796 -0.9633 -1.2425
  105MOL   H39044278   6.881   3.483   3.473  0.2930 -0.4090  2.7494
  105MOL   H39144279   6.886   3.366   3.358 -0.1569 -0.3295  0.6457
  105MOL   H39244280   7.129   3.508   3.460 -0.6921 -0.1485  0.4819
  105MOL   H39344281   7.148   3.366   3.360  1.1442  0.4150  0.5898
  105MOL   H39444282   7.013   3.486   3.184 -1.8638  1.4944 -0.0269
  105MOL   H39544283   7.006   3.621   3.282  1.0114  0.5255 -0.9817
  105MOL   H39644284   7.268   3.503   3.205 -1.4801 -0.6453  0.4115
  105MOL   H39744285   7.244   3.661   3.288  0.5162 -1.5572  1.5539
  105MOL   H39844286   7.174   3.594   2.993 -0.4449  1.2093 -0.6069
  105MOL   H39944287   7.289   3.710   3.083 -0.5871  0.4875  2.8359
  105MOL   H40044288   7.114   3.734   3.077 -1.2178 -0.8225 -1.3877
  105MOL   C40144289   7.033   3.353   3.676  0.3782 -0.4226 -0.6152
  105MOL   C40244290   7.094   3.258   3.779  0.1996 -0.1262 -0.3304
  105MOL   C40344291   7.172   3.321   3.890 -0.5065  0.2155  0.1065
  105MOL   C40444292   7.316   3.355   3.853  0.2339 -0.0460  0.1193
  105MOL   C40544293   7.405   3.395   3.966 -0.0589 -0.1734 -0.5847
  105MOL   C40644294   7.447   3.278   4.054  0.3195 -0.3829 -0.4254
  105MOL   C40744295   7.560   3.320   4.153  0.1714  0.2709 -0.1219
  105MOL   H40844296   6.956   3.408   3.730 -0.5527 -0.9779 -1.3617
  105MOL   H40944297   7.104   3.430   3.647  0.0744 -0.3526 -1.1844
  105MOL   H41044298   7.161   3.190   3.727  0.2616 -2.0618  2.1976
  105MOL   H41144299   7.178   3.249   3.972 -0.8351  0.1652  0.0881
  105MOL   H41244300   7.129   3.409   3.937  0.1482  0.1880  0.7595
  105MOL   H41344301   7.319   3.443   3.788  0.5452  1.4427  2.0857
  105MOL   H41444302   7.374   3.272   3.814  2.3945  0.3387  2.3451
  105MOL   H41544303   7.490   3.427   3.905 -2.2972  3.0271 -2.2246
  105MOL   H41644304   7.362   3.484   4.012  2.2291  0.8712 -0.3493
  105MOL   H41744305   7.364   3.248   4.118 -2.1905 -1.1199 -3.8679
  105MOL   H41844306   7.467   3.188   3.996 -2.8262  0.1052 -2.3914
  105MOL   H41944307   7.580   3.240   4.223  1.9373  0.5869 -0.2487
  105MOL   H42044308   7.520   3.400   4.216 -1.4058  0.1518 -0.9377
  105MOL   H42144309   7.651   3.345   4.099  0.1540 -0.1055 -0.3215
  105MOL   H42244310   7.023   3.192   3.827  1.4310 -0.8525  0.5207
  106MOL     C144311   2.743   3.889   2.764  0.9593  0.2662  0.1503
  106MOL     C244312   2.835   3.998   2.809 -0.3324 -0.0649  0.3087
  106MOL     C344313   2.974   3.978   2.750  0.2098  0.4855  0.5722
  106MOL     C444314   3.049   3.851   2.797  0.2265  0.4030 -0.5133
  106MOL     C544315   3.195   3.845   2.745  0.6720  0.2478 -0.6313
  106MOL     C644316   3.292   3.758   2.826  0.5665  0.1817  0.0303
  106MOL     C744317   3.231   3.620   2.841 -0.2294 -0.1549 -0.2021
  106MOL     H844318   2.752   3.877   2.656 -1.7010  5.0567 -0.7040
  106MOL     H944319   2.641   3.918   2.786  0.8987 -0.6913  1.1968
  106MOL    H1044320   2.804   4.092   2.763  1.5384  0.1304 -0.6164
  106MOL    H1144321   2.954   3.981   2.643  0.2466 -2.6140  0.4406
  106MOL    H1244322   3.037   4.065   2.770  1.1743 -0.3315  1.0726
  106MOL    H1344323   3.055   3.851   2.906  2.7643 -0.2695 -0.6363
  106MOL    H1444324   2.995   3.761   2.767  0.6046  0.3911 -1.1484
  106MOL    H1544325   3.245   3.941   2.758  3.4135 -1.3931  1.4296
  106MOL    H1644326   3.203   3.824   2.638  2.3825 -2.1001 -0.0955
  106MOL    H1744327   3.325   3.804   2.919  3.9626  2.7205 -2.3045
  106MOL    H1844328   3.372   3.748   2.753  0.2645 -1.6333 -0.0760
  106MOL    H1944329   3.140   3.641   2.898 -0.0570  1.9296 -0.6451
  106MOL    H2044330   3.290   3.551   2.901 -0.9612 -2.0751 -1.6409
  106MOL    H2144331   3.215   3.572   2.744  2.3018  2.2062 -1.8752
  106MOL    H2244332   2.769   3.797   2.817  1.8377  0.1170 -0.5229
  106MOL    C2344333   2.840   4.028   2.962 -0.7626 -0.0687  0.5152
  106MOL    C2444334   2.714   4.080   3.034 -0.1848 -0.2367 -0.4820
  106MOL    C2544335   2.656   4.215   2.978  0.3339  0.7887  0.1084
  106MOL    C2644336   2.744   4.338   3.002  0.2606  0.2910 -0.2335
  106MOL    C2744337   2.689   4.465   2.929  0.1104 -0.1731 -0.8535
  106MOL    C2844338   2.779   4.583   2.963 -0.0708  0.0190 -0.3483
  106MOL    C2944339   2.806   4.611   3.119  0.3703 -0.2059  0.0961
  106MOL    H3044340   2.884   3.946   3.017  0.6433  1.1715  1.2855
  106MOL    H3144341   2.910   4.109   2.983 -1.0333  0.1467  0.5910
  106MOL    H3244342   2.644   4.005   2.997  0.6696 -1.1218 -0.3305
  106MOL    H3344343   2.564   4.218   3.036  1.1389  1.5161  1.3722
  106MOL    H3444344   2.637   4.206   2.871 -0.4035  1.6684  0.1553
  106MOL    H3544345   2.834   4.311   2.947  0.5139 -1.4821  0.9913
  106MOL    H3644346   2.778   4.356   3.103  1.7712  0.6388 -0.7960
  106MOL    H3744347   2.588   4.489   2.962 -1.2532 -1.5581 -3.8115
  106MOL    H3844348   2.671   4.453   2.822 -1.7383 -0.0788 -0.5668
  106MOL    H3944349   2.738   4.670   2.913 -3.8587 -1.3395  0.2075
  106MOL    H4044350   2.870   4.561   2.907  0.5205  0.1188  0.5465
  106MOL    H4144351   2.876   4.540   3.164 -0.5560 -1.9187 -1.0944
  106MOL    H4244352   2.871   4.698   3.128  1.1502 -0.8320  0.4964
  106MOL    H4344353   2.717   4.622   3.181  0.5587  1.1457  0.1435
  106MOL    C4444354   2.720   4.066   3.187  0.1612 -0.2057  0.3253
  106MOL    C4544355   2.633   3.946   3.238  0.0506 -0.0003 -0.1833
  106MOL    C4644356   2.686   3.893   3.370  0.7360 -0.1811  0.0094
  106MOL    C4744357   2.828   3.838   3.378  0.0577  0.3616  0.8219
  106MOL    C4844358   2.858   3.762   3.510  0.3521 -0.8794  0.2910
  106MOL    C4944359   2.844   3.859   3.633  1.1290 -0.6297 -0.3356
  106MOL    C5044360   2.884   3.793   3.766 -0.4349  0.1019 -0.4730
  106MOL    H5144361   2.692   4.152   3.249 -0.4013 -0.6484  0.7006
  106MOL    H5244362   2.822   4.046   3.218 -1.1246 -1.4973  4.1286
  106MOL    H5344363   2.644   3.869   3.162 -0.0462 -1.2228  1.0092
  106MOL    H5444364   2.617   3.814   3.400 -0.5779  0.0765 -2.1979
  106MOL    H5544365   2.690   3.970   3.447 -0.1342 -0.2167  0.0923
  106MOL    H5644366   2.856   3.768   3.298  1.1558  0.3040  1.2504
  106MOL    H5744367   2.895   3.924   3.377 -0.2481  0.5998  0.5684
  106MOL    H5844368   2.962   3.732   3.501  0.1515 -1.4722 -0.0807
  106MOL    H5944369   2.800   3.670   3.514 -0.5298 -0.3458  0.0195
  106MOL    H6044370   2.742   3.891   3.657  0.5687 -3.7812  1.6177
  106MOL    H6144371   2.914   3.943   3.626  0.8821 -0.0868  2.9058
  106MOL    H6244372   2.816   3.714   3.797  1.4495 -1.3236  0.1068
  106MOL    H6344373   2.880   3.848   3.860 -1.7859 -1.8709  0.6544
  106MOL    H6444374   2.987   3.762   3.753 -0.2079  0.4177  0.5037
  106MOL    C6544375   2.481   3.989   3.243 -0.0020 -0.2146 -0.5125
  106MOL    C6644376   2.378   3.867   3.254  0.1326 -0.1953  0.2738
  106MOL    C6744377   2.384   3.764   3.136 -0.0484 -0.3489  0.8917
  106MOL    C6844378   2.367   3.829   3.000 -0.0256  0.2323  0.5803
  106MOL    C6944379   2.368   3.723   2.891  0.4210  0.0332 -0.0553
  106MOL    C7044380   2.358   3.792   2.753  0.2052  0.1290  0.7084
  106MOL    C7144381   2.399   3.702   2.629 -0.5975  0.7587 -0.7912
  106MOL    H7244382   2.461   4.063   3.320  1.6249  0.4461 -0.7048
  106MOL    H7344383   2.453   4.047   3.155 -0.6976  0.1786 -0.0270
  106MOL    H7444384   2.405   3.807   3.340  3.7181  0.4360 -0.3326
  106MOL    H7544385   2.485   3.723   3.135 -0.3810 -1.1634 -1.1049
  106MOL    H7644386   2.309   3.686   3.146  2.1637 -2.2886  3.1467
  106MOL    H7744387   2.276   3.888   2.998  0.5315  1.2320  2.9561
  106MOL    H7844388   2.447   3.900   2.980 -0.3631  0.7385  1.0083
  106MOL    H7944389   2.460   3.665   2.905  0.3052 -0.1308  0.0262
  106MOL    H8044390   2.289   3.649   2.904 -0.1764  0.9283  1.5015
  106MOL    H8144391   2.391   3.896   2.751 -4.2891  1.6199 -1.6408
  106MOL    H8244392   2.252   3.809   2.737  0.3083  0.1787  0.0888
  106MOL    H8344393   2.498   3.662   2.650 -1.5673 -1.1621  0.3048
  106MOL    H8444394   2.326   3.621   2.634 -0.5350  0.8205  1.6989
  106MOL    H8544395   2.403   3.765   2.541  1.6569 -0.7435 -1.7940
  106MOL    C8644396   2.237   3.928   3.283 -1.0043  0.6489 -0.1504
  106MOL    C8744397   2.198   3.985   3.423  0.0806  0.1502  0.0001
  106MOL    C8844398   2.121   4.121   3.408 -0.4795  0.0774 -0.4169
  106MOL    C8944399   2.203   4.243   3.362  0.5718  0.5440  0.0762
  106MOL    C9044400   2.294   4.301   3.469 -0.1204  0.0598  0.0905
  106MOL    C9144401   2.373   4.429   3.428  0.5444 -0.4231 -0.4585
  106MOL    C9244402   2.490   4.398   3.328  0.1258 -0.1339 -0.2092
  106MOL    H9344403   2.201   3.992   3.203 -0.7518  1.9433  0.7594
  106MOL    H9444404   2.172   3.842   3.265 -0.2575  0.0783 -0.1893
  106MOL    H9544405   2.280   4.017   3.486 -0.9164  2.6516  0.0565
  106MOL    H9644406   2.036   4.119   3.341 -0.0040  0.8088 -1.0490
  106MOL    H9744407   2.084   4.145   3.508 -0.6601 -0.5128 -0.3419
  106MOL    H9844408   2.265   4.208   3.279  0.2859  1.0450 -0.3546
  106MOL    H9944409   2.136   4.323   3.329  4.0937  2.8804 -1.6601
  106MOL   H10044410   2.369   4.236   3.514 -0.9041 -0.3738  0.7944
  106MOL   H10144411   2.229   4.332   3.552  0.6374 -1.3512  1.2358
  106MOL   H10244412   2.305   4.503   3.386  1.3424  0.9229  0.5544
  106MOL   H10344413   2.412   4.473   3.521 -1.6758  0.2507  0.1855
  106MOL   H10444414   2.555   4.322   3.372  0.5379  1.4201  1.9571
  106MOL   H10544415   2.559   4.482   3.323  0.9986 -0.6239  2.3468
  106MOL   H10644416   2.456   4.375   3.227 -2.6637  0.6656  0.5068
  106MOL   C10744417   2.103   3.897   3.500 -0.3954 -0.2262 -0.7711
  106MOL   C10844418   2.163   3.761   3.532 -0.1421  0.5938 -0.9037
  106MOL   C10944419   2.298   3.761   3.618 -0.6351 -0.0518  0.7454
  106MOL   C11044420   2.285   3.808   3.769 -0.1368  0.5087  0.3977
  106MOL   C11144421   2.411   3.874   3.830  0.1889  0.1059  0.0377
  106MOL   C11244422   2.522   3.769   3.852  0.6224  0.2342  0.1791
  106MOL   C11344423   2.483   3.671   3.966  0.3603 -0.0907  0.5703
  106MOL   H11444424   2.016   3.879   3.436 -3.1121  1.4659  2.3129
  106MOL   H11544425   2.064   3.935   3.594  1.6166  2.7121 -1.0616
  106MOL   H11644426   2.193   3.713   3.440  1.1058 -1.7574  0.6796
  106MOL   H11744427   2.372   3.824   3.568  0.0896 -1.1776  0.3840
  106MOL   H11844428   2.355   3.670   3.602  1.0906  1.2895 -1.0183
  106MOL   H11944429   2.210   3.887   3.772 -1.0477 -0.3246 -0.1077
  106MOL   H12044430   2.245   3.730   3.834  1.8610  0.7662  2.0161
  106MOL   H12144431   2.381   3.928   3.920  0.9890 -1.1213  1.0532
  106MOL   H12244432   2.451   3.947   3.759  0.3936  0.4365  0.4886
  106MOL   H12344433   2.547   3.717   3.760  0.8149  1.1937 -0.3157
  106MOL   H12444434   2.617   3.819   3.869  0.6460  2.0436 -4.7322
  106MOL   H12544435   2.406   3.600   3.936 -0.1871  0.5233  0.4981
  106MOL   H12644436   2.568   3.606   3.984 -0.9019 -1.6989  0.8364
  106MOL   H12744437   2.443   3.720   4.055 -0.3736  0.0356  0.1798
  106MOL   C12844438   2.065   3.677   3.616 -0.0524  0.3999  0.1266
  106MOL   C12944439   2.106   3.527   3.640  0.4478  0.3281 -0.0900
  106MOL   C13044440   2.145   3.453   3.513 -0.2217  0.4114  0.1133
  106MOL   C13144441   2.050   3.447   3.393  0.1793 -0.0947 -0.1778
  106MOL   C13244442   2.106   3.387   3.265 -0.5444  0.0390 -0.1169
  106MOL   C13344443   1.988   3.378   3.163  0.1776  0.1794 -0.4385
  106MOL   C13444444   1.954   3.515   3.103 -0.4999 -0.0323 -0.1165
  106MOL   H13544445   2.041   3.728   3.709  0.5412 -1.2922  1.2290
  106MOL   H13644446   1.972   3.686   3.560  0.2833  2.3535 -0.1403
  106MOL   H13744447   2.199   3.528   3.697  0.3200  2.3508  0.1151
  106MOL   H13844448   2.168   3.354   3.552  3.5197  1.2749  0.2783
  106MOL   H13944449   2.241   3.496   3.487 -0.0610  0.9011  1.4732
  106MOL   H14044450   2.013   3.547   3.367 -0.3000 -0.4302 -0.7763
  106MOL   H14144451   1.965   3.390   3.429  0.2693 -0.0345  0.1391
  106MOL   H14244452   2.171   3.300   3.274 -0.3433 -0.1476 -2.8334
  106MOL   H14344453   2.181   3.458   3.229  0.6356 -2.0442 -1.8657
  106MOL   H14444454   1.912   3.319   3.213  0.6656 -1.2757 -1.3856
  106MOL   H14544455   2.024   3.315   3.082  0.4608 -0.5795  0.2815
  106MOL   H14644456   1.889   3.516   3.015 -2.1998  1.1822  1.1113
  106MOL   H14744457   2.043   3.576   3.091  0.5367 -1.7385 -1.3522
  106MOL   H14844458   1.877   3.559   3.167 -1.3919  0.2325 -1.3633
  106MOL   C14944459   2.005   3.447   3.733 -0.2910  0.0567  0.1903
  106MOL   C15044460   2.000   3.509   3.877  0.9427 -0.7667 -0.3384
  106MOL   C15144461   1.991   3.401   3.985  0.1238  0.6267  0.2871
  106MOL   C15244462   2.116   3.316   4.000 -0.2848  0.0330  0.9693
  106MOL   C15344463   2.225   3.379   4.079  0.0588  0.1215  0.0230
  106MOL   C15444464   2.354   3.300   4.097  0.0194 -0.2913 -0.2466
  106MOL   C15544465   2.423   3.256   3.966  0.4229  0.1424 -0.2909
  106MOL   H15644466   1.906   3.444   3.689  0.2179  0.2237 -0.9979
  106MOL   H15744467   2.019   3.339   3.732 -1.4574 -0.1055  0.8571
  106MOL   H15844468   2.094   3.561   3.896  0.2531  0.6351 -0.6948
  106MOL   H15944469   1.959   3.452   4.076  2.9394  1.0158  1.1245
  106MOL   H16044470   1.908   3.334   3.964  0.5795  0.1713 -0.0785
  106MOL   H16144471   2.154   3.287   3.902 -1.4396  2.3328 -0.1894
  106MOL   H16244472   2.092   3.214   4.029  0.9658 -0.6043 -0.1554
  106MOL   H16344473   2.182   3.385   4.180 -0.0158  0.2457 -0.0160
  106MOL   H16444474   2.236   3.483   4.048 -1.5488  0.4627  0.5115
  106MOL   H16544475   2.326   3.208   4.149  1.4617 -0.0872  0.9206
  106MOL   H16644476   2.423   3.353   4.162 -1.0386  1.0155 -0.1601
  106MOL   H16744477   2.358   3.196   3.903  0.1781 -0.6582  0.7183
  106MOL   H16844478   2.513   3.197   3.983  0.6295  0.4020 -0.4710
  106MOL   H16944479   2.441   3.345   3.905  0.4928 -0.8035 -1.6767
  106MOL   C17044480   1.874   3.610   3.893  0.0648  0.7208  0.6274
  106MOL   C17144481   1.900   3.704   4.011 -0.8128 -0.0385  0.0041
  106MOL   C17244482   1.964   3.838   3.975 -0.2919 -0.3481  0.2733
  106MOL   C17344483   1.884   3.939   3.900  0.1010 -0.4568 -0.2767
  106MOL   C17444484   1.934   4.088   3.913 -0.3549 -0.2255  0.2967
  106MOL   C17544485   2.029   4.129   3.803 -0.1928 -0.9428 -0.6636
  106MOL   C17644486   2.086   4.273   3.821  0.0257 -0.0753  0.0473
  106MOL   H17744487   1.785   3.555   3.925 -0.5532  0.9155 -0.7257
  106MOL   H17844488   1.842   3.652   3.798 -1.9169  0.0965  0.9873
  106MOL   H17944489   1.979   3.658   4.070 -0.8006 -1.3633 -1.0367
  106MOL   H18044490   2.050   3.821   3.910  1.9048  2.0155  2.4165
  106MOL   H18144491   2.009   3.881   4.064  1.4705 -2.2326  0.3380
  106MOL   H18244492   1.783   3.943   3.943  0.2251  0.3036 -0.0465
  106MOL   H18344493   1.869   3.914   3.795  1.3427 -0.8862 -0.3503
  106MOL   H18444494   1.987   4.090   4.008  2.4608 -2.0150 -1.1806
  106MOL   H18544495   1.850   4.158   3.921 -0.0005  0.1499  0.7012
  106MOL   H18644496   1.973   4.125   3.710 -0.4414  0.3415 -0.5762
  106MOL   H18744497   2.116   4.064   3.799  0.8316  0.3944 -0.7825
  106MOL   H18844498   2.173   4.296   3.759 -1.1857  3.4803 -0.4149
  106MOL   H18944499   2.114   4.301   3.922 -0.8805  2.1640 -0.3118
  106MOL   H19044500   2.014   4.349   3.791 -0.9379 -0.0562  2.3463
  106MOL   C19144501   1.779   3.700   4.109 -0.3337 -0.6066  0.0157
  106MOL   C19244502   1.788   3.761   4.252  0.1371  0.2329 -0.1603
  106MOL   C19344503   1.778   3.917   4.244 -0.2149  1.1787  0.1504
  106MOL   C19444504   1.633   3.965   4.222  0.3014 -0.1106 -0.1879
  106MOL   C19544505   1.607   4.110   4.236  0.1021 -0.4346 -0.5238
  106MOL   C19644506   1.456   4.151   4.236  0.3049  0.0703  0.0248
  106MOL   C19744507   1.456   4.300   4.209  0.0708  0.4369  0.4815
  106MOL   H19844508   1.746   3.598   4.128 -1.2956 -0.2336  0.3247
  106MOL   H19944509   1.706   3.754   4.049  1.3397  1.0675 -0.5785
  106MOL   H20044510   1.887   3.727   4.283  0.1449  1.1145  0.7714
  106MOL   H20144511   1.857   3.961   4.183  0.3844 -0.9694 -0.6382
  106MOL   H20244512   1.807   3.963   4.339  3.4931 -0.4985 -0.0917
  106MOL   H20344513   1.572   3.909   4.293  1.6210 -0.2095  0.8858
  106MOL   H20444514   1.589   3.921   4.132  0.5503 -2.2741  0.6994
  106MOL   H20544515   1.655   4.153   4.324  2.6713 -3.1613 -0.4974
  106MOL   H20644516   1.664   4.162   4.159  1.1688 -1.5760 -0.5267
  106MOL   H20744517   1.412   4.136   4.334 -1.8128 -0.2416 -0.9428
  106MOL   H20844518   1.406   4.090   4.161 -1.7676  0.8543  0.7309
  106MOL   H20944519   1.485   4.330   4.109 -1.8131 -1.0356 -0.5645
  106MOL   H21044520   1.512   4.354   4.285  2.2710 -3.0778  1.4982
  106MOL   H21144521   1.352   4.332   4.218 -1.3252 -4.0870  2.6002
  106MOL   C21244522   1.696   3.680   4.358  0.4429  0.3600  0.1178
  106MOL   C21344523   1.686   3.738   4.501  0.2778 -0.0657 -0.4337
  106MOL   C21444524   1.576   3.658   4.580  0.0403  0.4412 -0.6122
  106MOL   C21544525   1.606   3.516   4.620 -0.0478 -0.2162  0.2410
  106MOL   C21644526   1.499   3.455   4.704 -0.2333  0.2426  0.1950
  106MOL   C21744527   1.532   3.316   4.751  0.0229 -0.2263  0.3163
  106MOL   C21844528   1.423   3.250   4.841  0.0031  0.2424 -0.1804
  106MOL   H21944529   1.712   3.573   4.367 -0.3521  0.2152 -0.1979
  106MOL   H22044530   1.596   3.678   4.315  0.6681 -2.5955 -0.3914
  106MOL   H22144531   1.648   3.838   4.485  0.5501 -0.0556 -1.0369
  106MOL   H22244532   1.552   3.715   4.670  1.2290  0.4508 -0.2841
  106MOL   H22344533   1.485   3.649   4.522 -0.2284 -2.3401  0.1723
  106MOL   H22444534   1.700   3.520   4.675  0.6947  1.4281 -1.0809
  106MOL   H22544535   1.621   3.457   4.529 -1.6240 -0.9015  0.4046
  106MOL   H22644536   1.488   3.519   4.792  0.0730 -1.4031  1.4545
  106MOL   H22744537   1.403   3.448   4.653  0.8224  1.3641 -2.0367
  106MOL   H22844538   1.563   3.243   4.676 -1.2162  0.6659 -1.0786
  106MOL   H22944539   1.618   3.336   4.816  0.1154 -0.6752  0.3312
  106MOL   H23044540   1.342   3.222   4.773 -1.5318 -0.2419  1.8000
  106MOL   H23144541   1.400   3.308   4.930  1.1490  0.4828 -0.0466
  106MOL   H23244542   1.465   3.154   4.872 -1.7788 -1.2567 -2.2180
  106MOL   C23344543   1.824   3.756   4.573 -0.3630 -0.3972 -0.6841
  106MOL   C23444544   1.822   3.829   4.712 -0.5995  0.0196 -0.3396
  106MOL   C23544545   1.946   3.792   4.799  0.4423 -0.4423 -0.2312
  106MOL   C23644546   2.077   3.870   4.770  0.0417  0.0652 -0.8057
  106MOL   C23744547   2.182   3.834   4.881  0.8736  0.2042  0.1692
  106MOL   C23844548   2.290   3.937   4.908  0.5528 -0.4362 -0.2432
  106MOL   C23944549   2.365   3.924   5.044  0.4961  0.1054 -0.5388
  106MOL   H24044550   1.902   3.796   4.508  1.5163  0.0469  1.7895
  106MOL   H24144551   1.853   3.652   4.582 -1.6146 -0.7176 -0.1851
  106MOL   H24244552   1.742   3.779   4.768  0.5329 -1.2894  0.1386
  106MOL   H24344553   1.967   3.685   4.800  1.2606 -0.3131 -1.9104
  106MOL   H24444554   1.914   3.814   4.901  1.1092 -0.9625  0.0911
  106MOL   H24544555   2.061   3.977   4.781 -0.0017 -0.0230  0.0241
  106MOL   H24644556   2.119   3.847   4.673 -0.5217  0.5397 -1.1635
  106MOL   H24744557   2.237   3.745   4.850 -0.6833 -0.6053 -0.3491
  106MOL   H24844558   2.130   3.809   4.974 -0.4166 -1.0021 -0.8413
  106MOL   H24944559   2.359   3.946   4.824  0.8208 -0.9033 -0.0794
  106MOL   H25044560   2.241   4.034   4.908  1.6166  0.1118 -0.2634
  106MOL   H25144561   2.306   3.937   5.135  0.1161 -2.1752 -0.4357
  106MOL   H25244562   2.410   3.826   5.055  1.9468  0.8082 -0.0848
  106MOL   H25344563   2.442   3.999   5.060  1.5396 -1.5795  2.7804
  106MOL   C25444564   1.781   3.981   4.701  0.2315  0.0973  0.1761
  106MOL   C25544565   1.772   4.054   4.837  0.2449  0.0697 -0.6009
  106MOL   C25644566   1.653   3.993   4.922 -0.4033 -0.4604  0.1660
  106MOL   C25744567   1.673   4.010   5.073 -0.8999  0.2526  0.4337
  106MOL   C25844568   1.564   3.953   5.165  0.1006 -0.4568 -0.2383
  106MOL   C25944569   1.601   3.937   5.310 -0.4065 -0.1948 -0.2125
  106MOL   C26044570   1.484   3.871   5.392 -0.0141 -0.7049 -0.2581
  106MOL   H26144571   1.682   3.981   4.655  0.2939 -0.1856  0.0351
  106MOL   H26244572   1.846   4.031   4.630 -1.5041  1.6013 -0.3850
  106MOL   H26344573   1.864   4.029   4.891  1.0382 -2.9259 -3.1954
  106MOL   H26444574   1.618   3.893   4.896 -0.5619 -0.1605 -0.8004
  106MOL   H26544575   1.572   4.059   4.889 -0.7212 -1.1782 -0.5147
  106MOL   H26644576   1.764   3.952   5.094 -1.5150 -0.6573  0.6158
  106MOL   H26744577   1.687   4.116   5.092 -0.7466  0.3479 -0.1812
  106MOL   H26844578   1.540   3.854   5.126  0.2949 -0.9939  0.9582
  106MOL   H26944579   1.479   4.020   5.163  0.0709 -0.4982 -0.3355
  106MOL   H27044580   1.689   3.874   5.326  1.9418  2.1654 -3.0419
  106MOL   H27144581   1.638   4.035   5.342  0.4579 -0.1429 -1.3185
  106MOL   H27244582   1.389   3.891   5.341 -0.0034 -3.6331 -1.5296
  106MOL   H27344583   1.480   3.763   5.398 -2.1473 -0.6627 -0.2694
  106MOL   H27444584   1.474   3.916   5.491 -0.1664  0.5027 -0.8037
  106MOL   C27544585   1.758   4.212   4.810  0.8597 -0.1732 -0.6101
  106MOL   C27644586   1.884   4.293   4.786  0.3725 -0.0773  0.3488
  106MOL   C27744587   1.973   4.299   4.918  0.0054 -0.5551  0.2497
  106MOL   C27844588   2.110   4.355   4.896  0.5442 -0.7173 -0.2482
  106MOL   C27944589   2.198   4.357   5.029  0.0208  0.4802 -0.0443
  106MOL   C28044590   2.337   4.411   5.001 -0.6439  0.3371 -0.0429
  106MOL   C28144591   2.428   4.432   5.125 -0.5491 -0.5705  0.2091
  106MOL   H28244592   1.712   4.261   4.896  0.2353 -0.0650 -1.0024
  106MOL   H28344593   1.678   4.221   4.736  1.5810  0.9235 -1.2721
  106MOL   H28444594   1.940   4.246   4.705 -1.6258 -0.4822 -0.8228
  106MOL   H28544595   1.918   4.359   4.990  1.1558  0.4133  0.3332
  106MOL   H28644596   1.993   4.203   4.964  0.2321 -0.5890  0.0796
  106MOL   H28744597   2.106   4.460   4.867  1.8604 -0.7298 -0.4768
  106MOL   H28844598   2.159   4.302   4.815 -1.1524 -1.4779 -0.8079
  106MOL   H28944599   2.201   4.261   5.081 -1.8809  1.3516  1.7384
  106MOL   H29044600   2.141   4.417   5.099 -0.8738 -0.6244  0.1942
  106MOL   H29144601   2.392   4.339   4.941  0.5931  0.7812  0.5438
  106MOL   H29244602   2.329   4.507   4.949  0.7631 -0.2208 -1.3016
  106MOL   H29344603   2.385   4.506   5.192 -0.2741 -1.5239  1.4481
  106MOL   H29444604   2.519   4.463   5.073  0.4226 -3.1214  0.3379
  106MOL   H29544605   2.445   4.337   5.174  0.4053  0.2584  1.5335
  106MOL   C29644606   1.853   4.443   4.748 -0.5281 -0.4825 -0.0993
  106MOL   C29744607   1.767   4.456   4.614 -0.2680 -0.1523 -0.5121
  106MOL   C29844608   1.839   4.395   4.500  0.3069  0.5069  0.5337
  106MOL   C29944609   1.979   4.455   4.474  0.2230  0.0038  0.0984
  106MOL   C30044610   2.034   4.414   4.338  0.5361  0.2672 -0.1987
  106MOL   C30144611   2.180   4.451   4.307 -0.1700 -0.0372  0.2623
  106MOL   C30244612   2.227   4.405   4.171 -0.0043 -0.0824 -0.1320
  106MOL   H30344613   1.794   4.490   4.827 -0.5616 -1.2974  0.3666
  106MOL   H30444614   1.951   4.490   4.743 -0.2624 -0.8519  1.5126
  106MOL   H30544615   1.678   4.394   4.621 -0.8673  0.0258 -4.9398
  106MOL   H30644616   1.842   4.287   4.512  1.9175  0.3803 -0.8988
  106MOL   H30744617   1.767   4.409   4.418  0.5851  1.1073  0.3896
  106MOL   H30844618   2.049   4.410   4.544  0.5477 -2.1732 -1.5401
  106MOL   H30944619   1.980   4.563   4.488  0.1422 -0.1600  1.3918
  106MOL   H31044620   1.976   4.461   4.258  0.3649 -0.8391 -0.7356
  106MOL   H31144621   2.016   4.308   4.317  2.1217 -0.3471  1.4443
  106MOL   H31244622   2.202   4.556   4.328 -0.7245 -0.2351  1.8617
  106MOL   H31344623   2.254   4.410   4.376 -0.1106 -0.4417 -0.0392
  106MOL   H31444624   2.216   4.301   4.141 -0.0396 -0.6098  1.6705
  106MOL   H31544625   2.184   4.466   4.091 -0.2801 -0.1167 -0.0096
  106MOL   H31644626   2.336   4.413   4.163  0.2139 -0.4971  2.0442
  106MOL   C31744627   1.718   4.600   4.587  0.0045 -0.8345 -0.0964
  106MOL   C31844628   1.606   4.653   4.670 -0.4499  0.1663  0.1699
  106MOL   C31944629   1.596   4.805   4.657 -0.4487 -0.3590  0.3189
  106MOL   C32044630   1.708   4.887   4.714 -0.7853  0.5388 -0.0245
  106MOL   C32144631   1.694   4.931   4.865  0.7083  0.0815  0.5361
  106MOL   C32244632   1.743   4.819   4.959 -0.0297  1.0710  0.5389
  106MOL   C32344633   1.791   4.865   5.095 -0.1798 -0.1912  0.7772
  106MOL   H32444634   1.684   4.594   4.484 -0.1965  1.2503 -0.1778
  106MOL   H32544635   1.805   4.665   4.590  0.0035 -0.8203 -0.3314
  106MOL   H32644636   1.626   4.624   4.774 -2.3812  2.2644  1.1444
  106MOL   H32744637   1.505   4.845   4.702 -0.3168 -1.3362  1.4787
  106MOL   H32844638   1.593   4.836   4.553  0.2306 -0.2127  0.3396
  106MOL   H32944639   1.716   4.978   4.656  0.6056  1.1190  1.0437
  106MOL   H33044640   1.803   4.836   4.698 -1.1964 -0.4932  0.7269
  106MOL   H33144641   1.592   4.958   4.895  0.6622  0.9601 -0.4020
  106MOL   H33244642   1.745   5.026   4.879  2.2093 -0.2492 -2.3895
  106MOL   H33344643   1.831   4.774   4.914 -1.0608 -0.6219  0.1685
  106MOL   H33444644   1.661   4.748   4.973 -2.4888  4.1539  2.3080
  106MOL   H33544645   1.862   4.947   5.082 -2.0740  1.4928  0.8930
  106MOL   H33644646   1.844   4.783   5.144 -1.3301 -0.1080  2.1896
  106MOL   H33744647   1.714   4.895   5.166  0.5535  0.8049  1.1554
  106MOL   C33844648   1.479   4.599   4.623  0.6119  0.3397 -0.5916
  106MOL   C33944649   1.360   4.567   4.718 -0.0575  1.0477  0.2803
  106MOL   C34044650   1.273   4.689   4.769 -0.0143  0.2888 -0.0672
  106MOL   C34144651   1.195   4.770   4.669  0.5500 -0.2373  0.1506
  106MOL   C34244652   1.124   4.896   4.718 -0.0848 -0.5233 -0.7459
  106MOL   C34344653   1.017   4.875   4.823  0.0908 -0.0374 -0.0067
  106MOL   C34444654   0.958   5.007   4.866 -0.0774 -0.2799  0.3017
  106MOL   H34544655   1.496   4.501   4.580  1.7143  0.3180 -0.1026
  106MOL   H34644656   1.449   4.659   4.537  0.7345  2.2425  0.6632
  106MOL   H34744657   1.278   4.515   4.670  0.2314  1.9984 -1.2687
  106MOL   H34844658   1.202   4.653   4.843 -0.1959  0.2211 -0.2733
  106MOL   H34944659   1.343   4.754   4.822 -0.8217 -0.1937  1.6170
  106MOL   H35044660   1.123   4.708   4.615  0.2276  1.4400 -1.4034
  106MOL   H35144661   1.279   4.788   4.601  0.2800 -0.4635 -0.2438
  106MOL   H35244662   1.194   4.974   4.751  1.6718 -2.7272  0.9198
  106MOL   H35344663   1.074   4.947   4.636 -0.8040 -1.1633 -0.7062
  106MOL   H35444664   0.937   4.808   4.795 -0.0043 -1.1485  2.7980
  106MOL   H35544665   1.066   4.833   4.911 -1.4934 -1.1505  0.3544
  106MOL   H35644666   0.879   5.001   4.941 -2.6175  3.4088 -1.9355
  106MOL   H35744667   0.916   5.061   4.782  1.1536  1.3149  0.6732
  106MOL   H35844668   1.024   5.079   4.916 -0.3151 -0.6705  1.1958
  106MOL   C35944669   1.412   4.478   4.832 -1.0228 -0.2196  0.0184
  106MOL   C36044670   1.303   4.398   4.900  0.2190 -0.1578 -0.1754
  106MOL   C36144671   1.234   4.296   4.803  0.2847 -0.2590 -0.1834
  106MOL   C36244672   1.331   4.182   4.751 -0.1078  0.0308  0.0248
  106MOL   C36344673   1.269   4.100   4.644 -0.2944  0.0780 -0.4917
  106MOL   C36444674   1.367   3.985   4.599 -0.1459 -0.6932  0.0851
  106MOL   C36544675   1.302   3.899   4.487 -0.4710  0.7949 -0.0698
  106MOL   H36644676   1.459   4.549   4.900 -0.6385 -0.4627  0.0046
  106MOL   H36744677   1.493   4.420   4.788 -1.4138 -0.7153 -0.0505
  106MOL   H36844678   1.233   4.469   4.946 -0.9932  1.1664 -3.8160
  106MOL   H36944679   1.156   4.241   4.855  1.4497 -1.3548  0.4560
  106MOL   H37044680   1.189   4.341   4.715 -0.7260  0.5211  0.7268
  106MOL   H37144681   1.427   4.222   4.716  0.4037 -0.4829  0.8296
  106MOL   H37244682   1.355   4.117   4.835 -1.2422  1.4097  1.4445
  106MOL   H37344683   1.189   4.051   4.699 -1.0320  0.0366 -1.5847
  106MOL   H37444684   1.232   4.153   4.557  0.3879  1.7090  0.1835
  106MOL   H37544685   1.461   4.025   4.562 -0.0310 -1.1426 -0.1133
  106MOL   H37644686   1.392   3.920   4.683  0.9956 -0.9568 -0.4415
  106MOL   H37744687   1.220   3.839   4.525 -0.6823  0.4076 -1.1251
  106MOL   H37844688   1.269   3.956   4.400  0.1006  1.4595  0.1454
  106MOL   H37944689   1.377   3.829   4.452 -0.7505  0.3590  0.2029
  106MOL   C38044690   1.356   4.319   5.023  0.1557 -0.4076  0.2832
  106MOL   C38144691   1.411   4.414   5.132  0.5508  0.0484 -0.6286
  106MOL   C38244692   1.352   4.366   5.258 -0.0261  0.8907 -0.3117
  106MOL   C38344693   1.196   4.374   5.278  0.6130 -0.0408  0.0154
  106MOL   C38444694   1.149   4.523   5.291  0.2029  0.3327  0.2834
  106MOL   C38544695   1.014   4.543   5.361 -0.3626  0.0015  0.0715
  106MOL   C38644696   0.964   4.683   5.373  0.3031  0.0044 -0.7085
  106MOL   H38744697   1.287   4.242   5.055  1.2433 -1.3626  0.3663
  106MOL   H38844698   1.439   4.255   4.992 -0.9181 -1.4887 -0.3685
  106MOL   H38944699   1.385   4.518   5.110  0.1086  0.0516 -0.1100
  106MOL   H39044700   1.397   4.416   5.344  0.0818 -1.2380  0.9012
  106MOL   H39144701   1.375   4.259   5.264 -1.6627  0.5391 -0.0442
  106MOL   H39244702   1.137   4.320   5.204 -0.6616  1.8504 -0.3699
  106MOL   H39344703   1.183   4.328   5.377 -1.1986  0.4479  0.0091
  106MOL   H39444704   1.223   4.585   5.342  0.0366 -0.4932  1.5758
  106MOL   H39544705   1.148   4.561   5.189 -2.1647 -0.0527  0.1501
  106MOL   H39644706   1.019   4.492   5.457 -2.7793 -1.0874 -0.3414
  106MOL   H39744707   0.939   4.489   5.303 -0.4461 -0.4802  0.6238
  106MOL   H39844708   0.880   4.688   5.443  1.5868  0.5352  0.8297
  106MOL   H39944709   0.942   4.711   5.270 -0.0826 -0.0658 -0.6487
  106MOL   H40044710   1.034   4.755   5.415  0.5279 -0.5817 -0.0742
  106MOL   C40144711   1.564   4.405   5.135  0.2228  0.0863 -0.3717
  106MOL   C40244712   1.639   4.492   5.238 -0.4859  1.1021  0.0379
  106MOL   C40344713   1.791   4.481   5.221  0.4699  0.4063  0.2851
  106MOL   C40444714   1.865   4.545   5.340 -0.1559  0.7280  0.8792
  106MOL   C40544715   2.018   4.523   5.339 -0.3388 -0.1272 -0.0875
  106MOL   C40644716   2.092   4.577   5.459  0.5812  0.1080  0.1402
  106MOL   C40744717   2.120   4.728   5.454  0.0492 -0.3692  0.7374
  106MOL   H40844718   1.608   4.427   5.038  0.2632 -0.2940 -0.4381
  106MOL   H40944719   1.582   4.299   5.153  2.7529  0.1442 -2.2479
  106MOL   H41044720   1.612   4.452   5.335 -1.8744 -0.1859 -0.8590
  106MOL   H41144721   1.823   4.532   5.130 -0.3596  0.2413 -0.1070
  106MOL   H41244722   1.821   4.377   5.209 -0.8346 -0.0740  1.0416
  106MOL   H41344723   1.829   4.501   5.434  0.4352  0.3477  0.9305
  106MOL   H41444724   1.829   4.648   5.341  0.0224  0.8397 -1.6024
  106MOL   H41544725   2.055   4.421   5.329  1.2203  0.4399 -0.1108
  106MOL   H41644726   2.054   4.571   5.248  1.2029 -0.8673  0.1181
  106MOL   H41744727   2.068   4.539   5.558  0.6530 -0.4218 -0.0445
  106MOL   H41844728   2.186   4.524   5.445  0.0472 -0.8964  0.3384
  106MOL   H41944729   2.139   4.766   5.353  1.4556  0.1525  1.1885
  106MOL   H42044730   2.210   4.748   5.512  0.7957 -2.9391  0.4956
  106MOL   H42144731   2.042   4.794   5.493  0.0097  0.0548 -0.0284
  106MOL   H42244732   1.600   4.594   5.231 -0.8307  0.9422 -0.4592
  107MOL     C144733   5.996   0.941   2.834  0.6837  0.4600 -0.3944
  107MOL     C244734   6.043   0.924   2.981 -0.4664  0.0761 -0.1393
  107MOL     C344735   6.190   0.954   2.989 -0.0960 -0.3974 -0.7691
  107MOL     C444736   6.247   0.949   3.127  0.0802 -0.2721 -0.0159
  107MOL     C544737   6.391   1.002   3.149  1.0079 -0.8233 -0.5067
  107MOL     C644738   6.446   0.962   3.284  0.1734 -0.1998  0.1651
  107MOL     C744739   6.593   1.001   3.319  0.0760  0.3206  0.1105
  107MOL     H844740   6.047   0.875   2.765  4.1520  1.7122  0.8743
  107MOL     H944741   6.018   1.038   2.789 -1.7307  1.1050 -0.2499
  107MOL    H1044742   5.983   0.987   3.045 -0.2566 -1.7456  1.9065
  107MOL    H1144743   6.250   0.889   2.925 -0.1390  1.2105 -2.4844
  107MOL    H1244744   6.202   1.054   2.947  1.7499 -0.8794 -1.4540
  107MOL    H1344745   6.178   1.001   3.194  0.2529 -1.0170  0.7485
  107MOL    H1444746   6.245   0.848   3.168 -0.5062 -0.2407  0.0390
  107MOL    H1544747   6.391   1.111   3.158 -0.0019 -0.5685 -3.0403
  107MOL    H1644748   6.459   0.992   3.065  0.9361 -0.1190 -0.6495
  107MOL    H1744749   6.449   0.853   3.276 -1.0356 -0.3099  1.2376
  107MOL    H1844750   6.379   0.993   3.364 -1.3329  0.7116 -1.4179
  107MOL    H1944751   6.664   0.942   3.261 -1.1786  0.4272 -1.5726
  107MOL    H2044752   6.612   0.988   3.426  0.0483  1.8426  0.3196
  107MOL    H2144753   6.604   1.108   3.301 -0.8682  0.1553 -1.4999
  107MOL    H2244754   5.890   0.921   2.817  1.0393 -0.1207 -1.9468
  107MOL    C2344755   6.012   0.781   3.038 -0.2265  0.5036  0.6237
  107MOL    C2444756   5.868   0.734   3.038  0.1426  0.0606 -0.5625
  107MOL    C2544757   5.824   0.655   2.908  0.2892  0.3510 -0.0923
  107MOL    C2644758   5.868   0.510   2.917  0.1801  0.2592 -0.2544
  107MOL    C2744759   5.814   0.416   2.807  0.2359  0.6867  0.0214
  107MOL    C2844760   5.672   0.365   2.826 -0.0211  0.2504 -0.4700
  107MOL    C2944761   5.625   0.279   2.704 -0.0251  0.4192 -0.1202
  107MOL    H3044762   6.075   0.701   3.000 -1.7822 -0.2075 -0.4979
  107MOL    H3144763   6.028   0.777   3.146 -1.5778 -1.1408  0.7874
  107MOL    H3244764   5.862   0.662   3.119  2.0594  0.1192 -0.3539
  107MOL    H3344765   5.860   0.699   2.815 -2.9153  0.9938 -1.0966
  107MOL    H3444766   5.716   0.661   2.897  0.4096  1.8758 -0.5302
  107MOL    H3544767   5.848   0.477   3.019  3.3465 -0.7375  0.0969
  107MOL    H3644768   5.976   0.511   2.901  0.1310 -0.4023 -0.6463
  107MOL    H3744769   5.878   0.330   2.793 -1.7977 -0.9033  0.2652
  107MOL    H3844770   5.826   0.459   2.707 -0.7481 -0.0337 -0.4179
  107MOL    H3944771   5.607   0.451   2.821 -0.4545 -0.1467 -2.0866
  107MOL    H4044772   5.662   0.320   2.925 -1.3622  0.6854 -0.4015
  107MOL    H4144773   5.672   0.181   2.712  0.4469  0.6285 -0.3199
  107MOL    H4244774   5.518   0.264   2.723  0.5172 -0.1410  2.8618
  107MOL    H4344775   5.636   0.329   2.608  0.0884 -0.5951 -0.6459
  107MOL    C4444776   5.768   0.847   3.087  0.0247 -0.0915 -0.3481
  107MOL    C4544777   5.621   0.828   3.090 -0.7305 -0.3476  0.9503
  107MOL    C4644778   5.591   0.695   3.169 -0.2640  0.2704  0.0498
  107MOL    C4744779   5.605   0.694   3.326 -0.4541 -0.1107 -0.3492
  107MOL    C4844780   5.586   0.562   3.398  0.3369 -0.7548  0.0007
  107MOL    C4944781   5.621   0.569   3.546 -0.7293  0.0433  0.1622
  107MOL    C5044782   5.623   0.426   3.621  0.3645  0.1635  0.3024
  107MOL    H5144783   5.788   0.932   3.022  3.3696 -0.0330  0.6508
  107MOL    H5244784   5.795   0.890   3.183 -1.4062  1.5399 -0.6507
  107MOL    H5344785   5.593   0.817   2.985 -0.9343 -0.5947  1.0294
  107MOL    H5444786   5.634   0.608   3.118  0.5522  0.6230  0.1375
  107MOL    H5544787   5.484   0.681   3.152 -0.3245 -1.7489  1.8337
  107MOL    H5644788   5.708   0.727   3.340  0.6273 -1.4648 -4.5423
  107MOL    H5744789   5.534   0.767   3.367  0.1268  0.4734 -0.3694
  107MOL    H5844790   5.647   0.482   3.355 -1.2702 -1.4712 -0.9797
  107MOL    H5944791   5.482   0.530   3.392  0.6836 -2.3499  1.8013
  107MOL    H6044792   5.560   0.642   3.600 -1.6942  0.8422 -1.9401
  107MOL    H6144793   5.725   0.603   3.546  0.2106 -2.7365  0.3292
  107MOL    H6244794   5.619   0.421   3.730  0.5068  1.7354  0.3805
  107MOL    H6344795   5.708   0.365   3.591 -0.7571 -0.3255 -2.1015
  107MOL    H6444796   5.534   0.373   3.584 -0.6328  1.0470  1.3963
  107MOL    C6544797   5.561   0.952   3.151  0.1274 -0.6636 -0.2893
  107MOL    C6644798   5.409   0.958   3.161  0.1446  0.1182 -0.2079
  107MOL    C6744799   5.336   0.940   3.025  0.6228  0.6347 -0.2451
  107MOL    C6844800   5.196   0.881   3.031 -0.5768  0.1343  0.3079
  107MOL    C6944801   5.137   0.852   2.885  1.1510  0.1008  0.4691
  107MOL    C7044802   5.210   0.757   2.786  0.3373  1.2607  0.2379
  107MOL    C7144803   5.228   0.611   2.828  0.5967  0.3265  0.0828
  107MOL    H7244804   5.610   0.973   3.246 -1.6914  1.4077  0.2504
  107MOL    H7344805   5.593   1.029   3.080 -0.8030 -0.2947 -0.3182
  107MOL    H7444806   5.372   0.874   3.220  1.4263 -0.7819 -0.6498
  107MOL    H7544807   5.338   1.022   2.953  0.4781  1.4165  0.6316
  107MOL    H7644808   5.384   0.854   2.977 -1.1894  0.9002 -2.6436
  107MOL    H7744809   5.189   0.796   3.100  2.2686 -0.8161 -0.5247
  107MOL    H7844810   5.131   0.948   3.087 -0.9958 -1.0877  1.3316
  107MOL    H7944811   5.038   0.809   2.899  0.8112  1.0999  1.1612
  107MOL    H8044812   5.125   0.945   2.830 -0.6939 -1.4013 -1.8163
  107MOL    H8144813   5.310   0.794   2.765  0.0924  2.7903  1.6779
  107MOL    H8244814   5.149   0.760   2.696  1.7971 -0.5911 -0.8379
  107MOL    H8344815   5.130   0.565   2.816  1.6084 -1.5879 -1.0139
  107MOL    H8444816   5.291   0.558   2.757 -0.2509  1.0354 -1.1966
  107MOL    H8544817   5.277   0.604   2.926 -1.0531 -2.5143  0.7786
  107MOL    C8644818   5.363   1.081   3.244  0.2435  0.5534 -0.7610
  107MOL    C8744819   5.376   1.062   3.395 -0.5232  0.3384  0.3329
  107MOL    C8844820   5.413   1.200   3.454 -0.2832  0.3716  0.7823
  107MOL    C8944821   5.563   1.239   3.428  0.0828 -0.3129 -0.3874
  107MOL    C9044822   5.610   1.356   3.514 -0.3907  0.3288  0.8230
  107MOL    C9144823   5.756   1.375   3.496 -0.1301  0.2115  0.6029
  107MOL    C9244824   5.819   1.478   3.587 -0.0929 -0.3075 -0.6877
  107MOL    H9344825   5.425   1.164   3.210  0.7527  0.5359  0.1115
  107MOL    H9444826   5.260   1.106   3.220 -0.6916 -1.6084  0.8222
  107MOL    H9544827   5.462   0.999   3.419 -0.1894  0.6530 -0.0285
  107MOL    H9644828   5.338   1.272   3.421 -2.3513 -1.6031  1.0665
  107MOL    H9744829   5.391   1.204   3.560 -0.3926  2.5624  0.7082
  107MOL    H9844830   5.624   1.151   3.445  0.8791  0.5954  1.5862
  107MOL    H9944831   5.570   1.281   3.327  0.3421 -2.4954 -1.3134
  107MOL   H10044832   5.584   1.341   3.619 -0.3499 -0.1816  0.7599
  107MOL   H10144833   5.556   1.446   3.483  0.3763  1.0559  1.5729
  107MOL   H10244834   5.798   1.279   3.528  0.2231 -0.3392 -1.4460
  107MOL   H10344835   5.795   1.387   3.395  0.1834  0.7670  0.7850
  107MOL   H10444836   5.808   1.580   3.549 -0.5868 -0.3771 -0.7258
  107MOL   H10544837   5.927   1.462   3.595 -0.1721  0.4131  2.1227
  107MOL   H10644838   5.777   1.456   3.685 -0.8304  1.2577 -0.6302
  107MOL   C10744839   5.239   1.004   3.450 -0.3795 -0.3492  0.2103
  107MOL   C10844840   5.225   0.989   3.599  0.1615 -0.4151 -0.1272
  107MOL   C10944841   5.078   0.969   3.644  0.4168 -0.5512  0.4181
  107MOL   C11044842   4.996   0.850   3.591  0.3808 -0.4516  0.5852
  107MOL   C11144843   4.864   0.835   3.663  0.4980 -0.2477  0.3347
  107MOL   C11244844   4.760   0.955   3.636 -0.2373  0.1330  0.2140
  107MOL   C11344845   4.618   0.921   3.677  0.8476  0.1155 -0.3645
  107MOL   H11444846   5.213   0.911   3.399  1.9160 -0.3736 -0.9496
  107MOL   H11544847   5.170   1.085   3.425 -1.3941 -0.2680  3.0483
  107MOL   H11644848   5.258   1.084   3.639 -0.0354 -1.1465  1.8468
  107MOL   H11744849   5.016   1.058   3.633 -0.8459 -0.9624  3.5952
  107MOL   H11844850   5.076   0.966   3.753  0.6449 -0.1623  0.4374
  107MOL   H11944851   4.979   0.864   3.484 -1.6076 -3.0227  0.5051
  107MOL   H12044852   5.060   0.761   3.596  0.2345 -0.5554  0.5957
  107MOL   H12144853   4.886   0.819   3.769  2.2961  0.3628  0.0737
  107MOL   H12244854   4.821   0.743   3.623  1.0260 -1.4110  2.3581
  107MOL   H12344855   4.807   1.039   3.688 -0.1439  0.1078  0.1696
  107MOL   H12444856   4.753   0.979   3.530  0.4060 -0.1491  0.1059
  107MOL   H12544857   4.610   0.905   3.784  1.6341 -2.2263 -0.6375
  107MOL   H12644858   4.553   1.006   3.658  2.0014  1.4607  1.5242
  107MOL   H12744859   4.578   0.842   3.613 -1.5481 -0.3510  1.6499
  107MOL   C12844860   5.320   0.878   3.649  0.8985 -0.1616 -0.1501
  107MOL   C12944861   5.348   0.874   3.800 -0.0118 -0.2337 -0.0852
  107MOL   C13044862   5.447   0.991   3.836 -0.4494 -0.7103 -0.0117
  107MOL   C13144863   5.588   0.974   3.780 -0.3040 -1.0810  0.0945
  107MOL   C13244864   5.690   1.087   3.810 -0.4751  0.3132  0.2902
  107MOL   C13344865   5.832   1.058   3.771 -0.3298 -0.5866 -0.4393
  107MOL   C13444866   5.931   1.164   3.819 -0.2131  0.2342  0.7382
  107MOL   H13544867   5.274   0.783   3.623  2.1313 -0.9950  0.5963
  107MOL   H13644868   5.416   0.874   3.596  0.2069 -2.5871 -1.2984
  107MOL   H13744869   5.255   0.895   3.853 -0.8651 -1.2218 -1.1604
  107MOL   H13844870   5.458   0.989   3.944 -0.6246 -2.0776 -0.0166
  107MOL   H13944871   5.400   1.083   3.803  2.5473  0.7601 -0.4125
  107MOL   H14044872   5.584   0.973   3.671  0.1312  0.8107  0.0318
  107MOL   H14144873   5.625   0.877   3.813  2.5894 -0.5258 -1.3321
  107MOL   H14244874   5.693   1.110   3.917  1.1358 -0.6414  0.4752
  107MOL   H14344875   5.661   1.186   3.774  0.2212  0.0157 -1.1067
  107MOL   H14444876   5.848   1.039   3.665 -2.0215 -0.9097 -0.6431
  107MOL   H14544877   5.870   0.963   3.811 -1.2860 -0.3478  1.0865
  107MOL   H14644878   6.029   1.132   3.783 -0.1020  1.8140 -0.4034
  107MOL   H14744879   5.942   1.188   3.925  5.3932  1.0988  0.1149
  107MOL   H14844880   5.911   1.262   3.776  0.8097 -0.5018 -1.4556
  107MOL   C14944881   5.387   0.733   3.840 -0.7031 -0.5815  0.3260
  107MOL   C15044882   5.377   0.697   3.989  0.3394  0.8894 -0.0649
  107MOL   C15144883   5.445   0.563   4.019  0.5209  0.7647 -0.1234
  107MOL   C15244884   5.600   0.575   4.030  0.1185 -0.0382 -0.0357
  107MOL   C15344885   5.684   0.449   4.034  0.4593  0.2892 -1.0129
  107MOL   C15444886   5.634   0.347   4.134 -0.9579  0.0497  1.0225
  107MOL   C15544887   5.631   0.390   4.281 -0.1758 -0.4651 -0.8682
  107MOL   H15644888   5.321   0.660   3.794  1.4440 -2.7468  0.6092
  107MOL   H15744889   5.485   0.715   3.796 -0.1459 -1.3831  1.8545
  107MOL   H15844890   5.418   0.774   4.055  0.4032  0.3373  0.5414
  107MOL   H15944891   5.396   0.515   4.104  0.7468 -0.9935 -0.9671
  107MOL   H16044892   5.413   0.486   3.948 -0.7069 -0.0955  1.3182
  107MOL   H16144893   5.621   0.645   4.110  1.6154  0.9232 -1.2270
  107MOL   H16244894   5.641   0.619   3.938 -0.2194  5.2924  2.1692
  107MOL   H16344895   5.790   0.467   4.049 -0.0315  1.0157  1.8917
  107MOL   H16444896   5.682   0.398   3.938  1.8285  0.7129 -1.2819
  107MOL   H16544897   5.700   0.261   4.125  1.2031  1.7636  0.1677
  107MOL   H16644898   5.538   0.312   4.097 -0.3385  0.0741 -0.6142
  107MOL   H16744899   5.631   0.303   4.346 -2.6036 -2.3671 -3.3145
  107MOL   H16844900   5.548   0.452   4.314  2.5805  2.0781  1.6427
  107MOL   H16944901   5.724   0.446   4.294  0.0336 -1.1413  0.7457
  107MOL   C17044902   5.225   0.692   4.036  0.1539  0.4795  0.0208
  107MOL   C17144903   5.185   0.760   4.159 -0.2366 -0.2143  0.1940
  107MOL   C17244904   5.027   0.762   4.169  0.0492 -0.2517 -0.6330
  107MOL   C17344905   4.961   0.624   4.128  0.3246  0.3197 -0.7192
  107MOL   C17444906   4.821   0.613   4.183  0.4937  0.4346 -0.3195
  107MOL   C17544907   4.746   0.485   4.143  0.1357  0.0459  0.5344
  107MOL   C17644908   4.810   0.352   4.179 -0.1893 -0.4308 -0.2836
  107MOL   H17744909   5.206   0.585   4.044 -3.0827  1.0109  0.1541
  107MOL   H17844910   5.156   0.731   3.961  0.8288  1.8475  0.0967
  107MOL   H17944911   5.212   0.864   4.146 -0.7274 -0.0687  0.3366
  107MOL   H18044912   4.975   0.841   4.116  0.7061  0.1775 -0.6418
  107MOL   H18144913   5.004   0.789   4.272  1.2210  3.2938 -1.2634
  107MOL   H18244914   5.017   0.537   4.163 -1.4086 -0.1923  0.8613
  107MOL   H18344915   4.964   0.630   4.020  0.6230  1.8370 -0.6272
  107MOL   H18444916   4.774   0.702   4.142 -1.2616 -0.7181 -0.8981
  107MOL   H18544917   4.818   0.617   4.292  0.1354 -0.3956 -0.2898
  107MOL   H18644918   4.736   0.492   4.034  0.2672 -1.8288  0.3876
  107MOL   H18744919   4.643   0.497   4.177  0.9412  2.1896  2.3228
  107MOL   H18844920   4.814   0.331   4.286  2.1555 -1.5340 -0.5344
  107MOL   H18944921   4.906   0.333   4.131 -0.7769  1.0199 -2.0704
  107MOL   H19044922   4.755   0.272   4.129 -2.3715  1.7249 -1.4042
  107MOL   C19144923   5.250   0.690   4.278  0.6700  0.3845 -0.2477
  107MOL   C19244924   5.234   0.780   4.403 -1.3703 -0.5551 -0.0995
  107MOL   C19344925   5.144   0.708   4.507  0.0095 -0.0118 -0.9874
  107MOL   C19444926   5.210   0.583   4.574  0.2411 -0.5330 -0.2843
  107MOL   C19544927   5.100   0.496   4.636 -0.0772 -0.2168  0.0383
  107MOL   C19644928   5.014   0.564   4.742 -0.5287  0.5933 -0.0289
  107MOL   C19744929   5.095   0.638   4.847  0.7374  0.6024 -0.2502
  107MOL   H19844930   5.355   0.669   4.259  1.1830  0.4982  2.3789
  107MOL   H19944931   5.206   0.591   4.290  1.3978  0.0768 -0.0871
  107MOL   H20044932   5.188   0.873   4.369 -1.0149  0.0112  0.9670
  107MOL   H20144933   5.052   0.676   4.460 -1.3080  0.8387  0.9327
  107MOL   H20244934   5.113   0.777   4.586  1.3472 -1.0444  0.4944
  107MOL   H20344935   5.276   0.630   4.647 -0.9203 -2.4813  2.0872
  107MOL   H20444936   5.276   0.527   4.507 -0.3859 -0.7229 -0.7508
  107MOL   H20544937   5.046   0.470   4.545 -1.9100  1.2765  0.6644
  107MOL   H20644938   5.154   0.406   4.662  0.3501 -1.1353 -3.6945
  107MOL   H20744939   4.941   0.493   4.780 -0.2218  0.6466  0.6824
  107MOL   H20844940   4.945   0.627   4.686 -0.5102  0.2114 -0.4850
  107MOL   H20944941   5.039   0.677   4.933 -0.1133  1.2908 -1.1084
  107MOL   H21044942   5.147   0.723   4.803 -0.2246  0.9538 -0.7259
  107MOL   H21144943   5.175   0.578   4.889  0.2995 -0.6294 -1.1674
  107MOL   C21244944   5.375   0.796   4.456 -0.5846 -0.2104 -0.3957
  107MOL   C21344945   5.388   0.886   4.579  0.0937 -0.0489 -0.0051
  107MOL   C21444946   5.490   0.840   4.688 -0.2232  0.3483  0.2379
  107MOL   C21544947   5.631   0.806   4.634  0.3637  0.5103  0.3499
  107MOL   C21644948   5.738   0.786   4.744 -0.4855  0.4893 -0.6407
  107MOL   C21744949   5.862   0.716   4.686 -0.1654 -0.0716 -0.6009
  107MOL   C21844950   5.979   0.699   4.778 -0.7419  0.3085 -1.3502
  107MOL   H21944951   5.437   0.849   4.384  0.0311 -0.9383 -0.4090
  107MOL   H22044952   5.412   0.698   4.486 -0.0844  0.3080  0.7069
  107MOL   H22144953   5.297   0.870   4.636  0.6011  2.4723  1.5722
  107MOL   H22244954   5.512   0.912   4.768  0.3207  0.6160 -0.1479
  107MOL   H22344955   5.448   0.758   4.747  0.7726  0.4523  1.1267
  107MOL   H22444956   5.666   0.883   4.566  0.3869  0.9728  0.8761
  107MOL   H22544957   5.618   0.719   4.570  1.2200  1.0241 -0.5243
  107MOL   H22644958   5.753   0.887   4.780 -1.5711  0.6458 -0.6014
  107MOL   H22744959   5.718   0.729   4.835 -1.2606  0.8158 -0.6008
  107MOL   H22844960   5.841   0.614   4.655 -3.5365  0.6583 -0.8193
  107MOL   H22944961   5.904   0.758   4.595  1.3497 -0.2954 -0.0281
  107MOL   H23044962   5.949   0.682   4.882 -0.6954  0.9799 -1.2237
  107MOL   H23144963   6.039   0.790   4.784  1.5333 -1.1737 -0.7478
  107MOL   H23244964   6.058   0.635   4.739 -1.1665 -1.7296  1.0211
  107MOL   C23344965   5.388   1.034   4.542  0.7772 -0.5460  0.0599
  107MOL   C23444966   5.340   1.136   4.652 -0.1372  0.0506  0.3364
  107MOL   C23544967   5.385   1.284   4.614 -0.0177  0.0062  0.0351
  107MOL   C23644968   5.540   1.291   4.634  0.6413 -0.0898 -0.0373
  107MOL   C23744969   5.582   1.438   4.614  0.3031 -0.0849 -0.2013
  107MOL   C23844970   5.559   1.504   4.475  0.2931 -0.6192  0.0761
  107MOL   C23944971   5.632   1.637   4.437  0.2139 -0.3349 -0.2347
  107MOL   H24044972   5.317   1.047   4.459  0.3498  1.2882  0.6902
  107MOL   H24144973   5.489   1.061   4.511  1.8465 -1.8605  2.3074
  107MOL   H24244974   5.385   1.122   4.750  0.5178 -0.5588 -0.0494
  107MOL   H24344975   5.334   1.350   4.683 -0.4626 -0.1868 -0.1105
  107MOL   H24444976   5.357   1.309   4.512  0.1217  0.6594  0.1573
  107MOL   H24544977   5.597   1.220   4.574 -0.9274  0.7875 -2.5864
  107MOL   H24644978   5.562   1.271   4.740 -3.2226 -0.2223  0.7953
  107MOL   H24744979   5.686   1.430   4.643 -0.4434 -2.0265  1.9949
  107MOL   H24844980   5.539   1.498   4.694 -0.9625 -1.7842  0.4076
  107MOL   H24944981   5.574   1.433   4.394 -3.2836 -0.7138 -0.5759
  107MOL   H25044982   5.452   1.521   4.461  0.2279  0.9256  2.1846
  107MOL   H25144983   5.609   1.720   4.505  0.9330 -1.7734  1.8225
  107MOL   H25244984   5.739   1.619   4.431 -0.0458 -1.9468 -0.2362
  107MOL   H25344985   5.599   1.664   4.337  1.5536  0.7613 -0.3937
  107MOL   C25444986   5.185   1.129   4.672 -0.0986 -0.2880  0.4681
  107MOL   C25544987   5.132   1.180   4.808  0.1272  0.3614 -0.5920
  107MOL   C25644988   5.122   1.063   4.916 -0.5669 -0.8514  0.7836
  107MOL   C25744989   5.251   0.983   4.948 -0.3919  0.3776  0.1179
  107MOL   C25844990   5.258   0.918   5.088  0.1998  0.2481 -0.4692
  107MOL   C25944991   5.374   0.817   5.097  0.2973  0.1809  0.2094
  107MOL   C26044992   5.513   0.888   5.111 -0.4463 -0.0670  0.3697
  107MOL   H26144993   5.161   1.023   4.673  0.7969 -0.4971  0.0475
  107MOL   H26244994   5.138   1.181   4.588  0.9140 -0.6635 -0.3395
  107MOL   H26344995   5.209   1.253   4.835 -0.8848  0.6184  1.7309
  107MOL   H26444996   5.046   0.997   4.875  1.1551 -0.9611 -2.3413
  107MOL   H26544997   5.075   1.098   5.009  0.0767  0.9530  0.4402
  107MOL   H26644998   5.256   0.908   4.869 -3.8692 -0.9339  1.0279
  107MOL   H26744999   5.330   1.057   4.941  1.0875 -0.8301  3.1764
  107MOL   H26845000   5.165   0.862   5.097 -0.9931  2.1788 -0.6878
  107MOL   H26945001   5.254   0.993   5.167  1.5627  0.6074 -0.7184
  107MOL   H27045002   5.358   0.760   5.189 -0.8382 -1.1656 -0.7991
  107MOL   H27145003   5.367   0.741   5.019  0.4599 -1.3492  1.6431
  107MOL   H27245004   5.603   0.828   5.127  1.8552  3.1352 -0.1159
  107MOL   H27345005   5.524   0.948   5.021  0.2680 -1.4094 -0.4600
  107MOL   H27445006   5.517   0.966   5.187 -0.4997 -0.0457  0.3507
  107MOL   C27545007   5.006   1.264   4.799  0.4039  0.1952 -0.1708
  107MOL   C27645008   5.000   1.391   4.717 -0.9459  0.5372  0.1734
  107MOL   C27745009   5.083   1.499   4.799 -0.2240 -0.1246  0.0040
  107MOL   C27845010   5.104   1.638   4.740  0.1126 -0.1848 -0.1593
  107MOL   C27945011   5.225   1.705   4.809 -0.1054  0.1662  0.0727
  107MOL   C28045012   5.259   1.850   4.771 -0.3471 -0.0908  1.1350
  107MOL   C28145013   5.388   1.896   4.829 -0.8968 -0.2453 -1.0531
  107MOL   H28245014   4.971   1.293   4.898 -0.7540 -1.1837 -0.1675
  107MOL   H28345015   4.937   1.191   4.759 -0.3324  0.8575 -0.1243
  107MOL   H28445016   5.054   1.377   4.623 -2.7122 -0.5791 -0.6838
  107MOL   H28545017   5.031   1.518   4.894  0.7218  0.6709  0.3713
  107MOL   H28645018   5.183   1.464   4.825  0.6091 -0.0238 -2.9602
  107MOL   H28745019   5.017   1.697   4.768  0.4173 -0.4491  1.4340
  107MOL   H28845020   5.108   1.655   4.633  0.3508  0.5175 -0.0400
  107MOL   H28945021   5.309   1.637   4.793 -1.3586 -1.5078  0.4736
  107MOL   H29045022   5.205   1.705   4.916  0.6880  1.1626  0.2318
  107MOL   H29145023   5.256   1.860   4.662 -1.0521 -1.4615  1.0218
  107MOL   H29245024   5.171   1.910   4.798 -0.8086 -1.2202  2.1616
  107MOL   H29345025   5.380   1.938   4.929  0.6189 -3.1955  0.3790
  107MOL   H29445026   5.425   1.984   4.775  1.6291 -0.1518  0.7547
  107MOL   H29545027   5.469   1.822   4.826  0.0623  0.6926  1.0557
  107MOL   C29645028   4.861   1.443   4.680 -0.0532  0.3177  0.9200
  107MOL   C29745029   4.787   1.357   4.570  0.0012  0.5248  0.2440
  107MOL   C29845030   4.783   1.436   4.435 -0.4235 -0.7886  0.0954
  107MOL   C29945031   4.922   1.466   4.378 -0.4186 -0.5551 -0.3394
  107MOL   C30045032   4.926   1.562   4.257 -0.8080 -0.5675  0.5806
  107MOL   C30145033   5.059   1.561   4.177  0.1679  0.1754  0.1175
  107MOL   C30245034   5.171   1.638   4.243  0.0640  0.1408 -0.3621
  107MOL   H30345035   4.805   1.432   4.773 -0.4245 -2.3607  0.4300
  107MOL   H30445036   4.861   1.551   4.666 -1.2351  0.0562 -1.5235
  107MOL   H30545037   4.842   1.265   4.550 -1.7142 -0.6187  0.6272
  107MOL   H30645038   4.734   1.377   4.358 -0.2124 -2.2216  1.0410
  107MOL   H30745039   4.724   1.525   4.460  0.0539 -0.9013  1.7144
  107MOL   H30845040   4.959   1.372   4.338  0.5612  0.2085 -1.2519
  107MOL   H30945041   4.987   1.512   4.453  0.6952 -1.6578 -0.6065
  107MOL   H31045042   4.911   1.664   4.293  0.5860 -0.1991  0.1627
  107MOL   H31145043   4.849   1.532   4.186  0.4036  0.1680 -1.0794
  107MOL   H31245044   5.087   1.456   4.164  1.1221  0.5604 -1.0884
  107MOL   H31345045   5.032   1.606   4.081 -1.6307  0.8483  0.9333
  107MOL   H31445046   5.262   1.620   4.186  0.5403 -1.6172  0.9003
  107MOL   H31545047   5.140   1.742   4.258 -1.1476 -0.3310  0.5077
  107MOL   H31645048   5.191   1.594   4.341 -0.3045  0.7420 -0.0138
  107MOL   C31745049   4.646   1.314   4.612 -0.1822  0.0476 -0.4987
  107MOL   C31845050   4.581   1.187   4.548 -0.4544 -0.0546  0.1364
  107MOL   C31945051   4.650   1.057   4.600  0.3353 -0.0029  0.0829
  107MOL   C32045052   4.639   1.029   4.755  0.0814 -0.2426 -0.4467
  107MOL   C32145053   4.697   0.892   4.796  0.4934  0.2599  0.3109
  107MOL   C32245054   4.679   0.877   4.944 -0.0787  0.6710 -0.1149
  107MOL   C32345055   4.708   0.731   4.990 -0.2140 -0.5604 -0.4116
  107MOL   H32445056   4.592   1.408   4.603  1.2200  0.6684 -2.9928
  107MOL   H32545057   4.643   1.305   4.720 -5.0300 -1.1091 -0.6188
  107MOL   H32645058   4.585   1.187   4.439  0.7008 -1.9620  0.1592
  107MOL   H32745059   4.758   1.070   4.587  0.6094 -0.7082  1.4718
  107MOL   H32845060   4.619   0.972   4.539 -0.7556  0.7192 -0.3718
  107MOL   H32945061   4.532   1.023   4.775  0.6329  0.4323  2.9000
  107MOL   H33045062   4.681   1.096   4.830  1.0662 -0.2794 -0.9605
  107MOL   H33145063   4.803   0.899   4.770  0.7154 -0.9080  0.8691
  107MOL   H33245064   4.654   0.811   4.737  1.8078  0.5442 -1.0801
  107MOL   H33345065   4.578   0.900   4.976 -1.0476  1.4716 -3.5507
  107MOL   H33445066   4.740   0.950   4.997 -1.7243  1.3787  0.8283
  107MOL   H33545067   4.809   0.693   4.975 -0.2587 -1.1322  0.6620
  107MOL   H33645068   4.642   0.658   4.942  1.9462 -1.7872 -1.5705
  107MOL   H33745069   4.680   0.727   5.096 -0.6434 -0.2313 -0.5099
  107MOL   C33845070   4.428   1.185   4.590  0.6023 -0.4504  0.5064
  107MOL   C33945071   4.343   1.297   4.522 -0.2621 -0.2590 -0.6377
  107MOL   C34045072   4.219   1.309   4.609 -0.0249 -0.3424  0.0959
  107MOL   C34145073   4.131   1.182   4.618 -0.3633 -0.2125  0.2645
  107MOL   C34245074   4.034   1.212   4.733 -0.0107  0.1371  0.7754
  107MOL   C34345075   3.910   1.129   4.720  0.0339 -0.0110  0.4224
  107MOL   C34445076   3.832   1.114   4.857  0.0673 -0.3502 -0.5740
  107MOL   H34545077   4.419   1.195   4.698 -1.8378 -1.2654  0.4133
  107MOL   H34645078   4.392   1.088   4.558  0.5888  0.0678 -1.1178
  107MOL   H34745079   4.404   1.386   4.529 -2.1146  0.9953 -0.1617
  107MOL   H34845080   4.251   1.340   4.709 -0.5752 -4.5053  1.6613
  107MOL   H34945081   4.170   1.397   4.565  0.9968  1.5557  2.6136
  107MOL   H35045082   4.183   1.090   4.643 -1.3608 -0.7171  0.5363
  107MOL   H35145083   4.080   1.169   4.523  0.0578 -1.3212  0.1843
  107MOL   H35245084   4.072   1.176   4.828  0.4681  0.3345  0.6563
  107MOL   H35345085   4.012   1.318   4.736  1.6040  0.5911 -2.0238
  107MOL   H35445086   3.836   1.168   4.651 -0.7810 -1.4811  0.4309
  107MOL   H35545087   3.940   1.027   4.695 -1.5753 -0.6413  0.9645
  107MOL   H35645088   3.761   1.031   4.852 -0.2342 -0.0707 -0.9380
  107MOL   H35745089   3.774   1.203   4.883  0.3964 -0.4503  0.5045
  107MOL   H35845090   3.898   1.100   4.942 -1.2560 -2.4088  0.1588
  107MOL   C35945091   4.309   1.270   4.376  0.1780  0.4793 -0.6326
  107MOL   C36045092   4.239   1.391   4.303 -0.0578 -0.8394 -0.7405
  107MOL   C36145093   4.319   1.524   4.297  0.1859 -0.3276 -0.2455
  107MOL   C36245094   4.234   1.650   4.312  0.7854 -0.0283  0.0197
  107MOL   C36345095   4.324   1.777   4.308  0.9784 -0.6539  0.2839
  107MOL   C36445096   4.254   1.908   4.332 -0.6376 -0.2852  0.0748
  107MOL   C36545097   4.199   1.913   4.475 -0.6782 -0.2906 -0.2207
  107MOL   H36645098   4.245   1.182   4.373 -0.9093  1.2550 -0.4339
  107MOL   H36745099   4.397   1.240   4.318 -0.8798  0.6166 -2.3462
  107MOL   H36845100   4.150   1.423   4.357  0.7736  0.0001  0.1643
  107MOL   H36945101   4.386   1.520   4.383 -1.7026  1.0861  1.3579
  107MOL   H37045102   4.390   1.537   4.215  0.2044 -0.4652 -0.2505
  107MOL   H37145103   4.161   1.654   4.231 -1.4766 -0.3954  1.9753
  107MOL   H37245104   4.184   1.649   4.409 -0.0786 -1.5847 -0.4148
  107MOL   H37345105   4.407   1.766   4.376  0.2901 -0.3228  1.1861
  107MOL   H37445106   4.377   1.775   4.213  0.9921 -1.2173  0.3000
  107MOL   H37545107   4.326   1.989   4.325 -1.0273  0.1837  1.4198
  107MOL   H37645108   4.169   1.926   4.266  0.5520  1.6535 -0.9634
  107MOL   H37745109   4.193   2.011   4.522  1.2044 -1.1417  1.9147
  107MOL   H37845110   4.097   1.874   4.471 -0.6019 -0.2432 -3.6196
  107MOL   H37945111   4.250   1.847   4.546 -1.9601  2.3316  3.2956
  107MOL   C38045112   4.187   1.360   4.164  0.8765 -0.3087  0.1956
  107MOL   C38145113   4.072   1.252   4.160 -1.0114 -0.9983 -0.4376
  107MOL   C38245114   3.948   1.330   4.194 -0.1338 -0.0200 -0.5993
  107MOL   C38345115   3.843   1.235   4.264 -0.2688  1.1576  0.5220
  107MOL   C38445116   3.728   1.323   4.316  0.4351 -0.2867 -0.0841
  107MOL   C38545117   3.611   1.255   4.390  0.1710 -0.1450 -0.5843
  107MOL   C38645118   3.509   1.180   4.306  0.5466  0.2181  0.2189
  107MOL   H38745119   4.166   1.448   4.104 -0.0975 -1.5382 -1.2946
  107MOL   H38845120   4.281   1.330   4.118  0.6677  0.0851 -0.4828
  107MOL   H38945121   4.091   1.167   4.226 -1.0414  0.2671  1.2681
  107MOL   H39045122   3.927   1.382   4.101  0.8565 -0.0625 -0.8499
  107MOL   H39145123   3.977   1.412   4.261  0.9962  0.9297 -2.2035
  107MOL   H39245124   3.804   1.151   4.206  2.5854  0.6156 -0.7131
  107MOL   H39345125   3.899   1.200   4.350  0.9763  1.3433 -0.2055
  107MOL   H39445126   3.776   1.401   4.374  1.8011 -1.1094 -0.0616
  107MOL   H39545127   3.682   1.374   4.232  1.3333  1.3115  0.3829
  107MOL   H39645128   3.555   1.334   4.440 -0.7708 -1.4555  0.4256
  107MOL   H39745129   3.646   1.193   4.473  0.2674  0.4435 -0.1763
  107MOL   H39845130   3.429   1.154   4.376 -1.4841  2.9100 -1.0134
  107MOL   H39945131   3.558   1.090   4.269  0.4293  1.0558 -2.0192
  107MOL   H40045132   3.472   1.251   4.232  2.1999 -0.7412 -1.5738
  107MOL   C40145133   4.068   1.195   4.020 -0.1894 -0.1087  0.0929
  107MOL   C40245134   4.190   1.110   3.987 -0.6153  0.3301 -0.1035
  107MOL   C40345135   4.193   1.077   3.835  0.1543 -0.2307 -0.2525
  107MOL   C40445136   4.285   0.954   3.793  0.2716  0.0164  0.8339
  107MOL   C40545137   4.211   0.818   3.815  0.7241 -0.3495 -0.1003
  107MOL   C40645138   4.302   0.698   3.791  0.1097  1.0123  0.0043
  107MOL   C40745139   4.381   0.649   3.917  0.0459  0.0748 -0.4368
  107MOL   H40845140   4.057   1.273   3.944  0.8398 -0.1293 -0.0849
  107MOL   H40945141   3.990   1.123   3.996 -1.1150  0.4326  1.4436
  107MOL   H41045142   4.186   1.019   4.046  1.6822  1.1898  1.4215
  107MOL   H41145143   4.212   1.168   3.779 -1.0605  1.4273  1.9916
  107MOL   H41245144   4.090   1.053   3.808 -0.1223  1.1378 -0.4501
  107MOL   H41345145   4.370   0.958   3.862  2.6605  0.2966 -2.0155
  107MOL   H41445146   4.330   0.968   3.695  1.3935 -0.8686  1.2054
  107MOL   H41545147   4.155   0.820   3.909 -2.9108 -0.5042 -2.1626
  107MOL   H41645148   4.129   0.816   3.743  1.8839  0.8411 -1.4875
  107MOL   H41745149   4.238   0.619   3.751  1.6782 -0.7495  0.8826
  107MOL   H41845150   4.369   0.729   3.710 -0.3726  0.3294 -0.6716
  107MOL   H41945151   4.431   0.552   3.904  1.2564  0.5748  0.3477
  107MOL   H42045152   4.317   0.649   4.005  0.4827 -0.3842 -0.1128
  107MOL   H42145153   4.461   0.721   3.933 -0.2652  0.3569 -0.1653
  107MOL   H42245154   4.290   1.146   4.010  0.1058 -1.8666  0.3085
  108MOL     C145155   5.619   2.043   5.064 -0.1246  0.4231  0.3046
  108MOL     C245156   5.511   1.988   5.161  0.1774 -0.2598  0.1842
  108MOL     C345157   5.389   2.082   5.162  0.1423 -0.0519 -0.0290
  108MOL     C445158   5.271   2.031   5.238  0.5631  0.6283  0.6639
  108MOL     C545159   5.153   2.122   5.227  0.0130 -0.0122  0.7713
  108MOL     C645160   5.049   2.091   5.333 -0.0754  0.7212  0.0619
  108MOL     C745161   4.921   2.171   5.328  0.4882 -0.2412 -0.5650
  108MOL     H845162   5.718   2.001   5.082  0.0169  0.3125 -0.6865
  108MOL     H945163   5.610   2.152   5.069  2.4849  0.7641 -1.6611
  108MOL    H1045164   5.476   1.891   5.125  1.0374 -0.3856 -0.3348
  108MOL    H1145165   5.412   2.183   5.196  1.0136 -0.4797  0.6895
  108MOL    H1245166   5.360   2.091   5.057  0.0106 -3.4102 -0.3596
  108MOL    H1345167   5.241   1.934   5.198  2.8248  0.3548 -0.4753
  108MOL    H1445168   5.291   2.025   5.345  2.1514  0.2358  0.3696
  108MOL    H1545169   5.120   2.111   5.124  0.6786 -0.6774  0.6295
  108MOL    H1645170   5.179   2.228   5.232  1.3758 -0.3634  1.5150
  108MOL    H1745171   5.086   2.107   5.434 -0.5437  3.1464 -0.1235
  108MOL    H1845172   5.018   1.987   5.343 -1.3714  1.1112  0.1698
  108MOL    H1945173   4.870   2.155   5.233 -0.8166  2.1784 -0.3007
  108MOL    H2045174   4.955   2.275   5.335 -1.1612  0.5395 -3.3383
  108MOL    H2145175   4.857   2.144   5.411 -1.4765 -0.9073 -2.2605
  108MOL    H2245176   5.587   2.011   4.965 -0.3445  1.4858  0.0267
  108MOL    C2345177   5.588   1.982   5.297  0.1066 -0.3053  0.2621
  108MOL    C2445178   5.676   1.850   5.326  0.0247 -0.8584 -0.3712
  108MOL    C2545179   5.594   1.741   5.399 -0.3137 -0.5796 -0.2112
  108MOL    C2645180   5.485   1.673   5.322  0.2796  0.3426  0.5347
  108MOL    C2745181   5.533   1.593   5.204 -1.0347 -1.1247 -1.1270
  108MOL    C2845182   5.416   1.515   5.130 -0.0078 -0.5493  0.1698
  108MOL    C2945183   5.463   1.437   5.007  0.5547  0.4372  0.2729
  108MOL    H3045184   5.637   2.080   5.306  2.8291 -1.5686 -0.2907
  108MOL    H3145185   5.520   1.980   5.382 -1.9675 -2.0219 -1.3884
  108MOL    H3245186   5.708   1.823   5.225  0.7284 -0.4267 -0.2697
  108MOL    H3345187   5.557   1.780   5.494  0.8965 -1.5512  0.6653
  108MOL    H3445188   5.654   1.654   5.425 -1.0956 -0.8291  0.8075
  108MOL    H3545189   5.413   1.750   5.292  2.4606  2.9751  1.9051
  108MOL    H3645190   5.427   1.612   5.391 -0.4575  0.6627  0.2170
  108MOL    H3745191   5.607   1.522   5.240 -0.4408  0.0612  0.0328
  108MOL    H3845192   5.573   1.662   5.129 -0.3493 -0.8704 -0.5379
  108MOL    H3945193   5.337   1.581   5.095  1.0459  1.0996  0.8451
  108MOL    H4045194   5.362   1.452   5.201 -1.6552  1.0964  0.4176
  108MOL    H4145195   5.493   1.335   5.033 -0.1727  0.4412  1.1574
  108MOL    H4245196   5.386   1.432   4.930  0.6499 -0.9108  0.2394
  108MOL    H4345197   5.549   1.475   4.952  0.0533 -0.2698 -1.0274
  108MOL    C4445198   5.811   1.880   5.408  0.0623  0.1717  0.1869
  108MOL    C4545199   5.932   1.798   5.353  0.3277 -0.0104  0.4564
  108MOL    C4645200   5.996   1.886   5.252  0.2979 -0.3331  0.3711
  108MOL    C4745201   6.108   1.813   5.179  0.1486  1.0375 -0.7253
  108MOL    C4845202   6.159   1.879   5.053  0.2254  0.0809 -0.8733
  108MOL    C4945203   6.279   1.807   4.998  0.2433 -0.2222 -0.0436
  108MOL    C5045204   6.322   1.848   4.860  0.4737 -0.0587  0.4661
  108MOL    H5145205   5.794   1.875   5.515  1.9264  1.6231  0.5752
  108MOL    H5245206   5.832   1.987   5.407 -0.6344  0.3496  2.4394
  108MOL    H5345207   5.896   1.714   5.295  1.9574 -0.6296  0.3040
  108MOL    H5445208   6.053   1.971   5.289  3.0126 -1.1504 -1.7754
  108MOL    H5545209   5.922   1.924   5.182 -1.4828  1.9578  3.3549
  108MOL    H5645210   6.188   1.809   5.253  0.9925 -0.9240 -1.7299
  108MOL    H5745211   6.071   1.712   5.160  1.1415  0.4631  0.3220
  108MOL    H5845212   6.170   1.986   5.073  1.2770 -0.2154  0.1682
  108MOL    H5945213   6.077   1.860   4.984 -3.1310  2.5213  2.2797
  108MOL    H6045214   6.261   1.699   4.997 -4.6984  0.4977  0.4124
  108MOL    H6145215   6.371   1.824   5.055 -0.4068  2.1081  0.3280
  108MOL    H6245216   6.359   1.950   4.863  2.8183 -0.9200  2.3393
  108MOL    H6345217   6.239   1.837   4.789 -1.5688 -4.0383  3.2363
  108MOL    H6445218   6.394   1.772   4.830 -0.7357 -1.7645  1.7551
  108MOL    C6545219   6.023   1.746   5.469  0.3426  0.9695  0.4257
  108MOL    C6645220   5.953   1.647   5.561 -0.9242 -0.6099  0.6069
  108MOL    C6745221   5.991   1.661   5.709  0.1324  0.0535  0.1252
  108MOL    C6845222   5.932   1.790   5.770 -0.3203 -0.4725  0.1184
  108MOL    C6945223   5.987   1.839   5.905 -0.4700  0.0252 -0.9109
  108MOL    C7045224   5.909   1.966   5.970 -0.6122  0.1335  0.3336
  108MOL    C7145225   5.889   1.957   6.124 -0.0130  0.4883  0.1875
  108MOL    H7245226   6.110   1.699   5.423  0.0511  1.4040 -0.6042
  108MOL    H7345227   6.062   1.835   5.516  2.1131 -1.4763  3.7988
  108MOL    H7445228   5.847   1.671   5.549 -1.0066 -0.6601  1.2101
  108MOL    H7545229   5.944   1.580   5.765 -1.6311  1.7287  1.1594
  108MOL    H7645230   6.100   1.650   5.702  0.1379  1.2346 -1.8600
  108MOL    H7745231   5.944   1.872   5.699  0.8064 -0.2072  0.6024
  108MOL    H7845232   5.824   1.783   5.774 -0.4121  0.4497 -0.5936
  108MOL    H7945233   5.958   1.751   5.963  1.1717 -0.7138 -1.1932
  108MOL    H8045234   6.096   1.836   5.905 -0.4564  0.4796 -1.6245
  108MOL    H8145235   5.816   1.990   5.918 -2.1010 -0.1383  2.7981
  108MOL    H8245236   5.972   2.053   5.950  0.1543 -0.0106  2.0864
  108MOL    H8345237   5.869   2.050   6.177 -0.0522  0.9750 -0.6711
  108MOL    H8445238   5.796   1.900   6.134  0.3201 -0.2835 -1.0565
  108MOL    H8545239   5.966   1.900   6.177 -1.3800 -1.6895 -0.0900
  108MOL    C8645240   5.986   1.502   5.515 -0.0519  0.2993 -0.1328
  108MOL    C8745241   5.902   1.381   5.576 -0.0137 -0.5035 -0.1957
  108MOL    C8845242   5.759   1.370   5.507 -0.5049  0.3488 -0.7128
  108MOL    C8945243   5.669   1.252   5.553  0.8801  0.5627 -0.5550
  108MOL    C9045244   5.533   1.256   5.476 -0.0979  0.4620  0.0002
  108MOL    C9145245   5.467   1.118   5.455 -0.2784 -0.4804  0.8796
  108MOL    C9245246   5.331   1.112   5.390 -0.0276 -0.4703  0.2674
  108MOL    H9345247   5.973   1.507   5.407 -2.0853 -0.3992  0.0504
  108MOL    H9445248   6.088   1.473   5.540 -0.5958 -1.2445  0.3516
  108MOL    H9545249   5.877   1.401   5.680  1.8325 -0.3784  0.2360
  108MOL    H9645250   5.709   1.464   5.529 -0.0740  0.7578 -1.4543
  108MOL    H9745251   5.778   1.367   5.400  0.7905  0.0761 -0.4904
  108MOL    H9845252   5.721   1.164   5.515 -3.8275 -2.9580  0.6397
  108MOL    H9945253   5.660   1.229   5.659  1.7436 -0.0183 -0.6054
  108MOL   H10045254   5.547   1.301   5.378  2.9819 -0.5682 -0.0646
  108MOL   H10145255   5.465   1.324   5.527  0.4258  1.0949 -0.1412
  108MOL   H10245256   5.526   1.054   5.389  0.9875 -1.3166  2.7743
  108MOL   H10345257   5.456   1.063   5.548 -1.4434 -2.6230 -0.4726
  108MOL   H10445258   5.301   1.008   5.374  1.7367 -0.9414 -0.0383
  108MOL   H10545259   5.352   1.150   5.290 -3.8301  1.2717  0.0296
  108MOL   H10645260   5.252   1.163   5.445 -0.0280 -0.7263  0.5078
  108MOL   C10745261   5.982   1.248   5.575 -0.1518 -0.6352 -0.1189
  108MOL   C10845262   6.104   1.233   5.663 -0.0327 -0.5753 -0.3431
  108MOL   C10945263   6.065   1.246   5.819 -0.1611 -0.1782  0.1141
  108MOL   C11045264   5.940   1.170   5.878 -1.0153  0.1096 -0.2301
  108MOL   C11145265   5.936   1.174   6.035  0.0282  0.2268  0.0528
  108MOL   C11245266   5.826   1.090   6.095  0.0309  0.1419  0.2455
  108MOL   C11345267   5.821   1.104   6.249  0.5274 -0.8482  0.5749
  108MOL   H11445268   6.012   1.232   5.472  0.6186  0.7510 -0.1205
  108MOL   H11545269   5.919   1.165   5.608  0.3158 -1.0058 -0.1481
  108MOL   H11645270   6.171   1.316   5.640 -0.0240 -0.1223  1.1930
  108MOL   H11745271   6.049   1.351   5.843  1.3208 -0.4406  2.3953
  108MOL   H11845272   6.155   1.238   5.879  1.0860 -0.4774 -1.7387
  108MOL   H11945273   5.856   1.219   5.829  1.7407  3.0673 -2.2161
  108MOL   H12045274   5.938   1.068   5.841 -1.7720  1.1354 -3.2268
  108MOL   H12145275   5.933   1.273   6.080  1.2653 -0.0619  0.8108
  108MOL   H12245276   6.036   1.143   6.066 -0.4747 -0.6177  0.8543
  108MOL   H12345277   5.739   1.132   6.045  1.3548  0.0262 -2.2384
  108MOL   H12445278   5.836   0.985   6.069  0.8218  0.1896  0.3469
  108MOL   H12545279   5.735   1.050   6.289  0.1235  0.3655  1.3762
  108MOL   H12645280   5.916   1.066   6.285  1.0616 -0.5614 -0.4928
  108MOL   H12745281   5.816   1.210   6.276 -0.5690 -0.5866 -0.6052
  108MOL   C12845282   6.165   1.097   5.634 -0.7111 -0.2199  0.2869
  108MOL   C12945283   6.310   1.071   5.695 -0.4396  0.1631  0.8133
  108MOL   C13045284   6.420   1.154   5.620  0.2506 -0.5271  0.2973
  108MOL   C13145285   6.561   1.167   5.680 -0.0332 -0.0259 -0.2083
  108MOL   C13245286   6.656   1.250   5.589  0.3907  0.3446 -0.3531
  108MOL   C13345287   6.689   1.203   5.445 -0.2930  0.1487 -0.1684
  108MOL   C13445288   6.777   1.306   5.386  0.6144  0.1199 -0.3829
  108MOL   H13545289   6.097   1.016   5.661 -0.0330 -1.2367 -0.9986
  108MOL   H13645290   6.176   1.087   5.526  0.3846 -0.3394  0.4016
  108MOL   H13745291   6.322   1.101   5.800 -0.0692  0.2570  0.7451
  108MOL   H13845292   6.386   1.257   5.614  2.0975 -0.0075 -1.6869
  108MOL   H13945293   6.439   1.127   5.517  1.3004 -0.0887  0.3728
  108MOL   H14045294   6.599   1.065   5.687 -0.1684 -0.2659 -2.5308
  108MOL   H14145295   6.568   1.216   5.777  2.1932  0.2074 -0.4809
  108MOL   H14245296   6.750   1.258   5.644  0.0515 -0.4305  0.3528
  108MOL   H14345297   6.615   1.351   5.590 -0.0251  0.1826 -1.0011
  108MOL   H14445298   6.594   1.190   5.393  0.5963 -1.5333 -1.3979
  108MOL   H14545299   6.739   1.107   5.447 -0.2808  0.1141 -1.7868
  108MOL   H14645300   6.767   1.406   5.430 -1.0342 -0.2108  0.0253
  108MOL   H14745301   6.759   1.304   5.279  3.1563 -0.1224 -0.8370
  108MOL   H14845302   6.881   1.274   5.395 -0.3188 -2.2773  2.6738
  108MOL   C14945303   6.349   0.921   5.691  0.0301 -0.0080  0.5105
  108MOL   C15045304   6.321   0.829   5.808  0.6351  0.6738 -0.3656
  108MOL   C15145305   6.390   0.691   5.786  0.3138 -0.8542 -0.0128
  108MOL   C15245306   6.339   0.609   5.660 -0.6988  0.4947  0.4861
  108MOL   C15345307   6.389   0.457   5.656  0.3655  0.1644  0.1219
  108MOL   C15445308   6.332   0.389   5.528 -0.3732 -0.4259 -0.8612
  108MOL   C15545309   6.198   0.321   5.537  0.5441 -0.1530 -0.3215
  108MOL   H15645310   6.311   0.866   5.605 -2.6443 -0.0615  1.6983
  108MOL   H15745311   6.456   0.907   5.675  0.3058 -0.0520  2.2086
  108MOL   H15845312   6.365   0.881   5.892 -0.8297 -1.0438  1.5058
  108MOL   H15945313   6.496   0.709   5.769  0.1004 -1.0428 -1.5787
  108MOL   H16045314   6.396   0.636   5.880 -0.8095  0.0776  0.6162
  108MOL   H16145315   6.374   0.658   5.570 -1.3801  1.5922  0.8132
  108MOL   H16245316   6.231   0.604   5.655 -0.8834  3.1810  1.2306
  108MOL   H16345317   6.355   0.405   5.745  1.5763  0.0745  0.5427
  108MOL   H16445318   6.498   0.462   5.647  0.5417  2.1114  2.5933
  108MOL   H16545319   6.394   0.308   5.491  1.0189 -0.0261  0.4957
  108MOL   H16645320   6.329   0.461   5.447  0.6007  1.2480  0.5403
  108MOL   H16745321   6.201   0.255   5.623 -0.8011  1.5486  1.0797
  108MOL   H16845322   6.161   0.272   5.447 -0.4584 -0.0086  0.0060
  108MOL   H16945323   6.125   0.397   5.566  0.5870  0.1959 -1.0994
  108MOL   C17045324   6.170   0.811   5.830 -0.2250 -0.1752  0.6573
  108MOL   C17145325   6.108   0.711   5.927  0.3243 -0.4084  0.8846
  108MOL   C17245326   6.156   0.732   6.070 -0.3523  0.3410  0.5423
  108MOL   C17345327   6.163   0.879   6.132 -0.6970  0.5981  0.1578
  108MOL   C17445328   6.208   0.880   6.282 -0.0403  0.5234  0.3704
  108MOL   C17545329   6.222   1.023   6.339  0.0073 -0.3700 -0.0675
  108MOL   C17645330   6.261   1.004   6.486 -0.6053  0.5861  0.2733
  108MOL   H17745331   6.129   0.783   5.733 -0.7632 -1.2025  1.1789
  108MOL   H17845332   6.127   0.909   5.852  1.3306  0.7987 -0.5265
  108MOL   H17945333   6.146   0.618   5.884 -0.9705 -0.4440 -0.1911
  108MOL   H18045334   6.254   0.686   6.065 -0.9750 -0.9778  0.3666
  108MOL   H18145335   6.103   0.673   6.145 -0.1426  1.3304  1.4858
  108MOL   H18245336   6.066   0.926   6.118 -2.1899 -2.8162 -1.4784
  108MOL   H18345337   6.236   0.938   6.077 -2.0666  1.5560 -0.6640
  108MOL   H18445338   6.312   0.849   6.294  0.0196  0.9239  0.8876
  108MOL   H18545339   6.146   0.820   6.348 -0.2334 -0.8145 -1.0010
  108MOL   H18645340   6.130   1.080   6.333 -1.1597 -2.1518  0.4299
  108MOL   H18745341   6.293   1.092   6.293  0.0762  0.2712  0.9792
  108MOL   H18845342   6.362   0.963   6.495 -0.3661  0.5016 -2.4560
  108MOL   H18945343   6.190   0.938   6.536 -0.2299  1.1458  1.5532
  108MOL   H19045344   6.255   1.094   6.546  0.4209 -0.1859  1.5647
  108MOL   C19145345   5.952   0.701   5.917 -0.0541 -0.2968 -0.5575
  108MOL   C19245346   5.878   0.674   5.782  0.0111  0.5116  0.5395
  108MOL   C19345347   5.800   0.542   5.789  0.4314 -0.0312  0.0005
  108MOL   C19445348   5.896   0.428   5.809 -0.1498 -0.0482  0.5744
  108MOL   C19545349   5.819   0.297   5.829  0.2214  0.1431 -0.2852
  108MOL   C19645350   5.908   0.172   5.821  0.5151 -0.0713  0.2611
  108MOL   C19745351   5.829   0.039   5.839  0.2945  0.5766 -0.4175
  108MOL   H19845352   5.915   0.794   5.961  0.7848 -0.5935  0.8400
  108MOL   H19945353   5.917   0.628   5.991 -1.0511 -0.2072 -0.9381
  108MOL   H20045354   5.950   0.658   5.703 -0.5604  1.8441 -0.2694
  108MOL   H20145355   5.745   0.522   5.697 -0.9481 -0.0896  0.8236
  108MOL   H20245356   5.717   0.553   5.859  0.7257 -0.8718  0.4825
  108MOL   H20345357   5.962   0.439   5.896 -2.7648 -2.3573  2.9507
  108MOL   H20445358   5.965   0.421   5.725  0.6904 -0.2592  1.2722
  108MOL   H20545359   5.758   0.290   5.919 -2.0196  0.0339 -1.7753
  108MOL   H20645360   5.742   0.281   5.753  0.7024  0.7661 -0.9045
  108MOL   H20745361   6.000   0.183   5.878  1.5314 -1.6096 -1.0386
  108MOL   H20845362   5.936   0.171   5.715 -2.0228 -2.0753 -0.4442
  108MOL   H20945363   5.731   0.061   5.797  0.7990  3.1021 -0.3778
  108MOL   H21045364   5.819   0.014   5.944  1.9310 -1.7968 -0.7954
  108MOL   H21145365   5.876   7.662   5.801  2.1974  1.4493 -0.2093
  108MOL   C21245366   5.792   0.793   5.728  0.2977 -0.5759 -0.3432
  108MOL   C21345367   5.763   0.787   5.580  1.3831 -0.1784  0.4051
  108MOL   C21445368   5.626   0.844   5.531  0.2025  0.1773  0.0761
  108MOL   C21545369   5.502   0.756   5.572  0.5462  0.0837 -0.2305
  108MOL   C21645370   5.489   0.628   5.488  0.1788 -0.3917  1.0172
  108MOL   C21745371   5.361   0.550   5.505 -0.4065  0.1196 -0.2653
  108MOL   C21845372   5.385   0.397   5.517  0.2954 -0.1066  0.4001
  108MOL   H21945373   5.852   0.882   5.747 -0.7383 -0.2476  1.5660
  108MOL   H22045374   5.698   0.803   5.782  0.5341  1.1384 -0.2135
  108MOL   H22145375   5.756   0.681   5.555 -0.3067  0.1590 -0.6603
  108MOL   H22245376   5.616   0.949   5.558  1.0583  0.7005 -1.5698
  108MOL   H22345377   5.610   0.844   5.423 -2.7719 -2.2213  0.4612
  108MOL   H22445378   5.417   0.824   5.575 -0.6497 -1.4162  0.5470
  108MOL   H22545379   5.505   0.721   5.675 -0.5629 -1.9868 -0.8762
  108MOL   H22645380   5.512   0.638   5.382  0.8830 -0.2279  1.1825
  108MOL   H22745381   5.579   0.570   5.510  0.0564 -1.3199 -0.8397
  108MOL   H22845382   5.321   0.573   5.604 -1.1619  1.3563 -0.8487
  108MOL   H22945383   5.288   0.566   5.426 -0.5146 -2.5005 -0.7313
  108MOL   H23045384   5.292   0.343   5.501  0.3543  0.0249 -0.4147
  108MOL   H23145385   5.435   0.372   5.610  0.6034 -0.4683  0.1376
  108MOL   H23245386   5.447   0.369   5.432  2.4692 -0.1129  1.9640
  108MOL   C23345387   5.868   0.856   5.495  0.7645  0.3133 -0.3922
  108MOL   C23445388   5.887   0.804   5.350 -0.1169 -0.1443  0.9717
  108MOL   C23545389   5.949   0.906   5.253 -0.5745 -0.2404  0.3089
  108MOL   C23645390   5.857   1.020   5.211  0.5169  0.2462  0.2795
  108MOL   C23745391   5.927   1.134   5.146  0.7891  0.0757  0.1948
  108MOL   C23845392   5.829   1.234   5.083  0.3062 -0.0235  0.0195
  108MOL   C23945393   5.890   1.367   5.058  0.2620  0.6163 -0.3631
  108MOL   H24045394   5.969   0.836   5.530  0.5315 -0.5810 -0.2397
  108MOL   H24145395   5.848   0.963   5.507 -0.3860 -0.1557  2.2236
  108MOL   H24245396   5.793   0.774   5.302 -0.7980  2.6233  0.5199
  108MOL   H24345397   5.983   0.855   5.163  0.1759  0.3863  0.2315
  108MOL   H24445398   6.048   0.936   5.285  0.7164 -3.8489 -0.0504
  108MOL   H24545399   5.809   1.054   5.303 -1.1608  0.7316 -0.7549
  108MOL   H24645400   5.778   0.983   5.146  0.9031 -0.3693  0.1638
  108MOL   H24745401   5.989   1.083   5.073 -0.8756 -1.2951 -0.2991
  108MOL   H24845402   5.998   1.187   5.209 -0.8638  2.0555  0.4474
  108MOL   H24945403   5.784   1.182   4.999 -0.7025  1.5023 -0.3917
  108MOL   H25045404   5.743   1.267   5.142  1.0316  0.7055  0.6837
  108MOL   H25145405   5.917   1.425   5.146  1.6467  0.3865 -0.6282
  108MOL   H25245406   5.978   1.348   4.996 -0.5223 -0.2322 -1.2382
  108MOL   H25345407   5.836   1.435   4.992  1.3194  0.9303 -0.9168
  108MOL   C25445408   5.974   0.674   5.353 -0.1942  0.6615 -0.2183
  108MOL   C25545409   5.963   0.582   5.228 -0.4480 -0.0030 -0.3576
  108MOL   C25645410   5.841   0.492   5.245  0.8666  0.4777  0.3738
  108MOL   C25745411   5.778   0.452   5.106  0.0866 -0.3606 -0.4785
  108MOL   C25845412   5.651   0.368   5.093  0.6020  0.3493 -0.1711
  108MOL   C25945413   5.523   0.450   5.130 -0.1686  0.3570 -0.7939
  108MOL   C26045414   5.387   0.375   5.128 -0.5066 -0.0390  0.1149
  108MOL   H26145415   5.960   0.612   5.442  0.5796  1.0297  0.1642
  108MOL   H26245416   6.077   0.707   5.363 -0.4161  1.3482 -0.1646
  108MOL   H26345417   5.928   0.643   5.144 -2.6544  0.5848  0.9414
  108MOL   H26445418   5.763   0.553   5.290  1.4623 -0.0827  2.2090
  108MOL   H26545419   5.855   0.400   5.301  0.1693 -0.3343 -0.7573
  108MOL   H26645420   5.760   0.550   5.060 -0.8303  1.3709  3.4011
  108MOL   H26745421   5.855   0.420   5.035  1.2374  2.0934 -0.4009
  108MOL   H26845422   5.653   0.282   5.159  0.5321  0.3818 -0.1270
  108MOL   H26945423   5.640   0.332   4.991  0.0460  2.1644 -0.7812
  108MOL   H27045424   5.529   0.482   5.234  2.6435 -1.1771 -0.4326
  108MOL   H27145425   5.517   0.542   5.071  2.3562  0.4434 -0.9770
  108MOL   H27245426   5.371   0.291   5.196 -1.8972  1.9898  2.3885
  108MOL   H27345427   5.313   0.454   5.147  2.0738  2.8081 -1.2607
  108MOL   H27445428   5.391   0.344   5.024 -0.8119 -2.1113  0.6913
  108MOL   C27545429   6.081   0.493   5.195  0.0775  0.7491  0.3114
  108MOL   C27645430   6.189   0.564   5.104  0.6016 -0.3838  0.0173
  108MOL   C27745431   6.293   0.459   5.049 -0.1588  0.0186 -0.4583
  108MOL   C27845432   6.392   0.403   5.154  0.9631 -0.4663  0.0081
  108MOL   C27945433   6.514   0.330   5.092 -0.6958 -0.0491  0.4013
  108MOL   C28045434   6.611   0.294   5.200  0.2727  0.2914 -0.1782
  108MOL   C28145435   6.715   0.194   5.154 -0.3969 -0.2724  0.2653
  108MOL   H28245436   6.059   0.400   5.142  2.9657  0.6934 -0.8403
  108MOL   H28345437   6.126   0.447   5.283 -0.2994 -0.2936 -0.0303
  108MOL   H28445438   6.143   0.597   5.010  0.4004  0.0513  0.2690
  108MOL   H28545439   6.246   0.375   4.998  1.7718 -1.5564  0.2693
  108MOL   H28645440   6.349   0.505   4.968 -0.4602  1.1786 -0.0196
  108MOL   H28745441   6.347   0.329   5.220 -0.8047  1.1042  0.6457
  108MOL   H28845442   6.424   0.484   5.221  0.8416  0.3960 -0.9679
  108MOL   H28945443   6.568   0.379   5.011 -0.3150  0.5843  1.0289
  108MOL   H29045444   6.469   0.243   5.045 -1.3616  0.2637  0.4454
  108MOL   H29145445   6.667   0.375   5.246  0.4350 -0.6100  1.2443
  108MOL   H29245446   6.570   0.240   5.285 -0.4227  1.1351  0.0314
  108MOL   H29345447   6.785   0.250   5.091  0.0513  1.0668  1.8962
  108MOL   H29445448   6.675   0.105   5.107 -0.3554 -0.0500 -0.1918
  108MOL   H29545449   6.771   0.150   5.237 -0.4807  1.2346  1.1550
  108MOL   C29645450   6.254   0.687   5.161  0.4372 -0.5074  0.3187
  108MOL   C29745451   6.354   0.755   5.064  0.1689  0.0648  0.2411
  108MOL   C29845452   6.422   0.883   5.127 -0.5485  0.3386  0.2629
  108MOL   C29945453   6.500   0.851   5.252 -0.4180  0.9753 -1.0985
  108MOL   C30045454   6.634   0.783   5.236  0.2398 -1.0917  0.2356
  108MOL   C30145455   6.689   0.702   5.355 -0.3459  0.2623 -0.9535
  108MOL   C30245456   6.699   0.782   5.481 -0.3303  0.1103  0.0613
  108MOL   H30345457   6.176   0.757   5.190 -0.4630 -1.7473  0.9808
  108MOL   H30445458   6.302   0.657   5.253 -0.5636  0.2247  1.0873
  108MOL   H30545459   6.441   0.689   5.058 -0.8997 -1.4174  0.6583
  108MOL   H30645460   6.485   0.940   5.059 -0.1255 -0.6063 -0.1469
  108MOL   H30745461   6.342   0.955   5.145 -0.8035  0.2319 -0.4519
  108MOL   H30845462   6.438   0.791   5.318  1.1271  0.4520 -0.0765
  108MOL   H30945463   6.530   0.936   5.314  1.4367  0.8966 -1.8326
  108MOL   H31045464   6.706   0.861   5.208  0.0750 -0.7631  0.7185
  108MOL   H31145465   6.625   0.724   5.145 -0.4487 -1.3468  0.4692
  108MOL   H31245466   6.625   0.615   5.367 -0.1163  0.2306  0.1343
  108MOL   H31345467   6.784   0.661   5.321 -0.0021 -1.9134  2.4109
  108MOL   H31445468   6.748   0.720   5.556  0.0651  0.1948 -0.1251
  108MOL   H31545469   6.753   0.874   5.456  0.2012 -0.0431  0.6328
  108MOL   H31645470   6.602   0.818   5.513 -0.4471  0.7343 -0.9480
  108MOL   C31745471   6.313   0.770   4.919  0.2730  0.5744  0.2687
  108MOL   C31845472   6.420   0.824   4.817  0.7873  0.4831 -0.4361
  108MOL   C31945473   6.541   0.727   4.813  1.0021 -0.5797 -0.7603
  108MOL   C32045474   6.649   0.775   4.719  0.1971 -0.7547 -0.1433
  108MOL   C32145475   6.760   0.670   4.708  0.4573  0.3520  0.3414
  108MOL   C32245476   6.882   0.700   4.615  0.1102  0.4419 -0.3209
  108MOL   C32345477   6.985   0.796   4.684 -0.1759 -0.1245  0.0017
  108MOL   H32445478   6.220   0.827   4.919  0.3111  0.6474  1.4492
  108MOL   H32545479   6.290   0.676   4.868 -3.4562  1.5238  0.0351
  108MOL   H32645480   6.449   0.922   4.857  0.9276 -0.0745  0.8422
  108MOL   H32745481   6.509   0.629   4.778  1.3346 -0.7466 -0.5930
  108MOL   H32845482   6.575   0.708   4.915 -1.1908 -1.1647 -0.0898
  108MOL   H32945483   6.681   0.870   4.761  0.0784 -1.1729  0.9362
  108MOL   H33045484   6.631   0.803   4.616  0.0576  0.7063  0.2658
  108MOL   H33145485   6.711   0.588   4.655  0.2272 -0.4149  1.7205
  108MOL   H33245486   6.794   0.638   4.806 -0.3824  0.1564  0.5760
  108MOL   H33345487   6.852   0.748   4.522  2.6239  2.4433 -0.1514
  108MOL   H33445488   6.918   0.606   4.574 -0.4214  0.5512 -1.0588
  108MOL   H33545489   7.040   0.761   4.772  2.3682 -0.9384 -1.8619
  108MOL   H33645490   6.938   0.892   4.706 -0.3651  0.0867 -1.3396
  108MOL   H33745491   7.053   0.821   4.603 -0.4835  2.5715  0.5058
  108MOL   C33845492   6.345   0.842   4.683  0.6470  0.1491 -0.3630
  108MOL   C33945493   6.257   0.962   4.668  0.5166  0.0891  0.1602
  108MOL   C34045494   6.170   0.945   4.532 -0.3346  0.4713  0.4713
  108MOL   C34145495   6.071   1.054   4.510  1.0592 -0.2044 -0.0649
  108MOL   C34245496   5.964   1.035   4.398  0.7830  0.2416 -0.5841
  108MOL   C34345497   5.919   1.167   4.333 -0.1549  0.1575  0.4235
  108MOL   C34445498   5.800   1.144   4.237 -0.0775  0.5200 -0.1747
  108MOL   H34545499   6.299   0.745   4.664  0.0006  0.2844  0.4653
  108MOL   H34645500   6.418   0.855   4.603  0.2744  1.2331 -0.5391
  108MOL   H34745501   6.184   0.969   4.749 -1.9601  0.4181 -2.0491
  108MOL   H34845502   6.238   0.947   4.447  0.1042  0.6001  0.8220
  108MOL   H34945503   6.126   0.846   4.524  0.3523  0.2715 -0.9344
  108MOL   H35045504   6.128   1.141   4.479 -1.2735  1.8362  1.1827
  108MOL   H35145505   6.014   1.090   4.595 -1.1807 -1.4065 -1.0160
  108MOL   H35245506   6.003   0.972   4.318 -1.3082 -0.0281 -1.4235
  108MOL   H35345507   5.883   0.971   4.433 -0.4006  2.0221 -0.0383
  108MOL   H35445508   5.889   1.227   4.419  0.9092  0.5184  0.5499
  108MOL   H35545509   5.998   1.228   4.289 -0.0777 -0.2452  0.0062
  108MOL   H35645510   5.778   1.241   4.192 -0.6878  0.1347 -0.7245
  108MOL   H35745511   5.709   1.115   4.290  0.8216 -1.5044  0.2760
  108MOL   H35845512   5.841   1.071   4.167  1.8622  0.3979  1.0446
  108MOL   C35945513   6.353   1.088   4.674  0.1913 -0.7590  0.5370
  108MOL   C36045514   6.316   1.199   4.770 -0.2537  0.0252  0.3548
  108MOL   C36145515   6.328   1.155   4.920 -0.8573  0.3333  0.4082
  108MOL   C36245516   6.262   1.254   5.025  0.1521 -0.5575  0.7619
  108MOL   C36345517   6.372   1.335   5.095  0.0040 -0.6887 -0.7030
  108MOL   C36445518   6.338   1.442   5.202 -0.1128  0.0357 -0.1908
  108MOL   C36545519   6.307   1.399   5.339 -0.4955  0.1346 -0.8388
  108MOL   H36645520   6.351   1.139   4.577 -0.1002 -1.2514  0.2794
  108MOL   H36745521   6.460   1.067   4.678  0.7956  1.4287 -2.4540
  108MOL   H36845522   6.209   1.214   4.757 -1.1435 -4.4757  1.3445
  108MOL   H36945523   6.276   1.061   4.939 -1.2306 -0.2513 -3.1547
  108MOL   H37045524   6.435   1.146   4.940 -0.6299  1.3873 -0.2590
  108MOL   H37145525   6.206   1.321   4.960 -0.7471 -0.2483  1.8411
  108MOL   H37245526   6.197   1.203   5.096 -1.7476 -1.1512 -1.3707
  108MOL   H37345527   6.436   1.253   5.127  0.4626 -0.7967 -1.8788
  108MOL   H37445528   6.439   1.379   5.021  1.7949 -0.0276  1.2663
  108MOL   H37545529   6.417   1.517   5.204 -0.1870  0.1784 -1.9087
  108MOL   H37645530   6.246   1.492   5.171  0.4125  0.7181 -0.6608
  108MOL   H37745531   6.376   1.315   5.353 -1.4327 -0.4631  0.2827
  108MOL   H37845532   6.340   1.462   5.421  3.0556 -1.6459 -0.8083
  108MOL   H37945533   6.201   1.371   5.344 -0.9224  1.8271 -0.4067
  108MOL   C38045534   6.393   1.322   4.727  0.0516 -1.0452  0.1249
  108MOL   C38145535   6.360   1.397   4.603  0.4942 -0.5705  1.0073
  108MOL   C38245536   6.208   1.432   4.591 -0.9642  0.0683  0.1086
  108MOL   C38345537   6.145   1.513   4.706 -0.8826 -0.1951 -0.2709
  108MOL   C38445538   5.994   1.542   4.680 -0.2381 -0.6517 -0.3283
  108MOL   C38545539   5.936   1.640   4.789 -0.1702  0.1909  0.5683
  108MOL   C38645540   5.780   1.659   4.777  0.0512  0.2824 -0.2060
  108MOL   H38745541   6.396   1.396   4.807  0.6890 -1.8333  0.8357
  108MOL   H38845542   6.494   1.283   4.720 -0.0323 -1.7514  2.3642
  108MOL   H38945543   6.395   1.340   4.518  1.0843  0.5186  0.5071
  108MOL   H39045544   6.154   1.337   4.591  0.6569 -0.8708  0.4674
  108MOL   H39145545   6.195   1.482   4.495 -0.8708 -0.0926  0.0117
  108MOL   H39245546   6.142   1.470   4.806  1.8891  1.5142  0.6097
  108MOL   H39345547   6.187   1.613   4.706 -1.5389  0.0802 -0.6463
  108MOL   H39445548   5.979   1.574   4.577  2.8206 -0.3478 -0.7214
  108MOL   H39545549   5.942   1.448   4.698 -2.9133  1.2973  2.9443
  108MOL   H39645550   5.982   1.738   4.777  0.6518 -0.3195 -0.6367
  108MOL   H39745551   5.961   1.608   4.890  2.6027  0.6554  0.0659
  108MOL   H39845552   5.753   1.682   4.674  0.2492 -1.3625 -0.6483
  108MOL   H39945553   5.754   1.731   4.855 -0.4507  1.6126 -1.5757
  108MOL   H40045554   5.723   1.569   4.800 -1.7177  1.3996 -0.1515
  108MOL   C40145555   6.439   1.527   4.590  0.4656  0.2873 -0.4452
  108MOL   C40245556   6.578   1.518   4.529  0.3077  0.4058  0.5466
  108MOL   C40345557   6.640   1.661   4.517 -0.7187 -0.7948  0.2632
  108MOL   C40445558   6.774   1.654   4.451  0.5652  0.0465 -0.5277
  108MOL   C40545559   6.835   1.794   4.427  0.0133  0.6675 -0.4952
  108MOL   C40645560   6.941   1.827   4.534  0.3567  0.0434  0.1208
  108MOL   C40745561   7.024   1.951   4.491 -0.5359 -0.4319  0.2327
  108MOL   H40845562   6.433   1.574   4.688  1.0554 -0.3145 -0.1163
  108MOL   H40945563   6.391   1.594   4.519  0.2933  1.3845  0.6968
  108MOL   H41045564   6.579   1.478   4.428 -1.7639  3.1123 -0.6081
  108MOL   H41145565   6.653   1.697   4.619 -3.3562  0.6593  0.1401
  108MOL   H41245566   6.570   1.732   4.474 -1.7942 -0.7182  2.0688
  108MOL   H41345567   6.775   1.598   4.358  1.7020 -0.7521 -0.0438
  108MOL   H41445568   6.828   1.587   4.518 -0.1406 -0.4664 -0.4657
  108MOL   H41545569   6.871   1.804   4.325  0.5636 -0.1401 -0.3803
  108MOL   H41645570   6.755   1.869   4.428  1.0741  1.8629 -2.2509
  108MOL   H41745571   6.893   1.830   4.632  1.2071 -0.2070  0.5487
  108MOL   H41845572   7.004   1.739   4.543  0.9214  0.3105 -1.1179
  108MOL   H41945573   7.091   1.925   4.409 -1.8609  2.5158 -1.8679
  108MOL   H42045574   7.087   1.992   4.571  0.6750 -2.2684  0.2371
  108MOL   H42145575   6.960   2.033   4.458 -1.0349 -0.9011  0.0323
  108MOL   H42245576   6.638   1.462   4.601  0.8141 -1.6290 -1.4292
  109MOL     C145577   1.683   2.544   4.691 -0.4898 -0.7590  0.5569
  109MOL     C245578   1.656   2.636   4.576  0.6504 -0.3741 -0.0088
  109MOL     C345579   1.746   2.581   4.459 -0.3041 -0.3283 -0.3678
  109MOL     C445580   1.670   2.483   4.378  0.1598  0.1966  0.0080
  109MOL     C545581   1.755   2.400   4.275  0.1311  0.0533 -0.8128
  109MOL     C645582   1.814   2.484   4.157  0.5143 -0.0743  0.6743
  109MOL     C745583   1.716   2.552   4.063  1.0197 -0.9468  0.0242
  109MOL     H845584   1.665   2.439   4.669  0.8026 -0.9328  0.2644
  109MOL     H945585   1.611   2.562   4.771 -0.0661  0.7005  0.6292
  109MOL    H1045586   1.557   2.613   4.537  1.5537 -3.1237 -0.7452
  109MOL    H1145587   1.779   2.668   4.402  1.0466  0.4302  1.5463
  109MOL    H1245588   1.846   2.543   4.482 -0.2080 -0.3610 -0.8266
  109MOL    H1345589   1.616   2.408   4.436 -0.4819  1.1485  0.6556
  109MOL    H1445590   1.579   2.523   4.334 -0.5356 -1.8942 -0.4972
  109MOL    H1545591   1.696   2.319   4.231 -0.5543  0.8302 -1.3352
  109MOL    H1645592   1.838   2.346   4.321 -0.9801 -1.8020 -0.9237
  109MOL    H1745593   1.892   2.430   4.103  0.4875  0.1397  0.4234
  109MOL    H1845594   1.865   2.563   4.213 -0.5220  0.8924  0.2678
  109MOL    H1945595   1.669   2.474   4.004  2.0297  0.3959 -2.6333
  109MOL    H2045596   1.766   2.626   4.001  0.2632 -0.5038 -0.0626
  109MOL    H2145597   1.625   2.584   4.113  0.8172 -1.1040 -0.2461
  109MOL    H2245598   1.787   2.551   4.723 -0.4908  1.6229  0.1108
  109MOL    C2345599   1.654   2.787   4.620 -0.3364 -0.0652 -0.4517
  109MOL    C2445600   1.570   2.868   4.525 -0.2917  0.4298 -0.4211
  109MOL    C2545601   1.609   3.012   4.532 -0.4293 -0.0514 -0.2424
  109MOL    C2645602   1.725   3.047   4.436  0.1513  0.0386  0.5391
  109MOL    C2745603   1.769   3.196   4.458 -0.2455  0.3510  0.4625
  109MOL    C2845604   1.871   3.245   4.361 -0.5454 -0.9459  0.4213
  109MOL    C2945605   1.944   3.374   4.413  0.5160 -0.1199 -0.6766
  109MOL    H3045606   1.625   2.796   4.725  1.8229  1.4617  0.0494
  109MOL    H3145607   1.752   2.835   4.616 -0.5432  0.3695 -0.3328
  109MOL    H3245608   1.600   2.830   4.427 -1.8577 -0.1795 -0.6672
  109MOL    H3345609   1.632   3.042   4.634 -0.1840  1.3836 -0.7127
  109MOL    H3445610   1.524   3.070   4.497  0.1860  0.9059 -0.1920
  109MOL    H3545611   1.686   3.032   4.336  2.0033 -0.4694 -0.1292
  109MOL    H3645612   1.806   2.974   4.442  0.6259  0.5685  0.6539
  109MOL    H3745613   1.809   3.214   4.558  0.0568 -0.8144  0.5481
  109MOL    H3845614   1.687   3.266   4.442 -0.7242 -0.2645  0.2411
  109MOL    H3945615   1.817   3.271   4.270 -1.0892  0.4226  1.1371
  109MOL    H4045616   1.943   3.166   4.339  0.5199 -0.3967  1.8432
  109MOL    H4145617   2.023   3.410   4.348 -0.4840  3.3843 -0.0496
  109MOL    H4245618   1.876   3.459   4.417  0.6589  0.0154 -1.1025
  109MOL    H4345619   1.985   3.358   4.512  0.0918  0.4698 -0.4029
  109MOL    C4445620   1.413   2.844   4.538 -0.2476 -0.0840 -0.2418
  109MOL    C4545621   1.329   2.865   4.412  0.1214  0.0144 -0.4736
  109MOL    C4645622   1.356   2.763   4.300  0.1701  0.0460  0.2212
  109MOL    C4745623   1.400   2.828   4.165 -0.3027 -0.7124  0.0879
  109MOL    C4845624   1.286   2.900   4.094 -0.7097 -0.8992  0.5801
  109MOL    C4945625   1.339   2.984   3.981  0.1811  0.5461 -0.1108
  109MOL    C5045626   1.227   3.058   3.906  0.2557 -0.0834 -0.6409
  109MOL    H5145627   1.369   2.911   4.611  0.5383 -1.7224  1.7729
  109MOL    H5245628   1.380   2.750   4.583  2.2081 -0.4683  0.8278
  109MOL    H5345629   1.347   2.961   4.363 -2.4647  0.8847  0.2072
  109MOL    H5445630   1.281   2.691   4.267  0.8738 -1.2069  1.3157
  109MOL    H5545631   1.431   2.689   4.328 -1.9111 -2.0800  0.2981
  109MOL    H5645632   1.482   2.897   4.188 -2.3810  1.0224  2.4850
  109MOL    H5745633   1.440   2.750   4.100 -1.2004  0.6676 -2.1710
  109MOL    H5845634   1.234   2.967   4.163  1.4248  1.9954 -0.5552
  109MOL    H5945635   1.223   2.822   4.049  1.6588 -2.5720  0.0888
  109MOL    H6045636   1.391   2.915   3.915  0.1331 -1.9936  2.4098
  109MOL    H6145637   1.422   3.051   4.005  0.1505  0.4250  0.3355
  109MOL    H6245638   1.145   2.994   3.872  0.2686  0.6424 -2.0603
  109MOL    H6345639   1.259   3.117   3.821  1.4947  0.8975  0.4859
  109MOL    H6445640   1.183   3.134   3.971 -2.5592 -1.9486 -0.2392
  109MOL    C6545641   1.176   2.857   4.444  0.4085 -0.5588  0.1729
  109MOL    C6645642   1.120   2.971   4.536 -0.3950  0.5776 -0.3016
  109MOL    C6745643   0.987   2.921   4.611 -0.1388  0.3228 -0.2135
  109MOL    C6845644   1.003   2.807   4.714  0.2310 -0.3034 -0.3658
  109MOL    C6945645   0.865   2.779   4.772  0.0602  0.5942 -0.1632
  109MOL    C7045646   0.860   2.681   4.891 -0.1931 -0.2304  0.1629
  109MOL    C7145647   0.724   2.655   4.966 -0.6859  0.2484  0.0971
  109MOL    H7245648   1.117   2.851   4.353  1.7218 -2.8986 -0.5734
  109MOL    H7345649   1.161   2.768   4.506  0.3922  0.0876  1.1122
  109MOL    H7445650   1.179   2.994   4.625 -0.2421  1.0404 -0.5178
  109MOL    H7545651   0.952   3.008   4.667 -0.4102  1.2338 -1.7571
  109MOL    H7645652   0.907   2.904   4.539 -0.3946 -0.9145  0.3489
  109MOL    H7745653   1.032   2.710   4.674  0.8901 -1.0148  1.7604
  109MOL    H7845654   1.066   2.831   4.800 -0.3900 -1.6204  0.4839
  109MOL    H7945655   0.822   2.875   4.801 -0.8501  0.1893 -0.1566
  109MOL    H8045656   0.799   2.737   4.696  0.2311 -1.5133  0.8175
  109MOL    H8145657   0.932   2.719   4.964  1.0921 -0.5809 -0.9027
  109MOL    H8245658   0.882   2.585   4.847 -0.0283 -0.5434  0.9181
  109MOL    H8345659   0.680   2.752   4.993  0.1250  0.3862  0.9236
  109MOL    H8445660   0.651   2.603   4.904 -1.7772  2.0220 -0.1636
  109MOL    H8545661   0.750   2.597   5.054 -0.6477 -1.0589 -0.7532
  109MOL    C8645662   1.093   3.100   4.457 -0.0094 -0.0943  0.3512
  109MOL    C8745663   1.184   3.222   4.505  0.0095  0.1300 -1.0642
  109MOL    C8845664   1.229   3.318   4.401 -0.1988 -0.4847  0.0055
  109MOL    C8945665   1.337   3.266   4.304 -0.5330  0.0512  0.1494
  109MOL    C9045666   1.380   3.370   4.207  0.2824 -0.1257 -0.2756
  109MOL    C9145667   1.513   3.329   4.132  0.1572  1.1423  0.3959
  109MOL    C9245668   1.516   3.392   3.986  0.2032 -0.5598 -0.1175
  109MOL    H9345669   1.118   3.078   4.353  0.0597  0.4429  0.2570
  109MOL    H9445670   0.990   3.134   4.447  0.5265  1.8466  1.2343
  109MOL    H9545671   1.272   3.176   4.550  0.7546  1.5613 -1.0435
  109MOL    H9645672   1.140   3.357   4.352 -0.1942  0.5679  0.8030
  109MOL    H9745673   1.276   3.403   4.451  0.5943 -0.5321 -0.6323
  109MOL    H9845674   1.421   3.227   4.361 -0.4885 -1.2001 -0.7590
  109MOL    H9945675   1.300   3.183   4.245  2.2278  0.0373 -1.6213
  109MOL   H10045676   1.403   3.464   4.258  0.5137  0.6982 -1.8741
  109MOL   H10145677   1.296   3.389   4.141  0.5825  3.3394  0.2101
  109MOL   H10245678   1.600   3.356   4.191  0.1245  2.2139 -0.0302
  109MOL   H10345679   1.508   3.223   4.108  0.2499  1.2365 -0.0498
  109MOL   H10445680   1.526   3.500   3.992  0.1141 -0.6429  2.2863
  109MOL   H10545681   1.428   3.366   3.928 -0.2076  3.6718 -1.5143
  109MOL   H10645682   1.604   3.351   3.936  1.3960  0.3728  1.1539
  109MOL   C10745683   1.108   3.292   4.623 -0.4207 -0.7260 -0.2858
  109MOL   C10845684   0.985   3.379   4.596 -0.1417 -0.1768  0.9242
  109MOL   C10945685   0.885   3.375   4.713  0.2581 -0.0594 -0.3214
  109MOL   C11045686   0.802   3.244   4.721 -0.0489 -0.3138 -0.6612
  109MOL   C11145687   0.675   3.249   4.803 -0.2405 -0.2429 -0.7338
  109MOL   C11245688   0.563   3.333   4.745 -0.4430  0.4791  0.0093
  109MOL   C11345689   0.427   3.314   4.811 -0.8422 -0.4077  0.1027
  109MOL   H11445690   1.173   3.364   4.672 -0.9685  0.6475 -1.5392
  109MOL   H11545691   1.083   3.218   4.699 -0.1259  0.1147  0.6402
  109MOL   H11645692   0.945   3.328   4.509  0.4221  0.1678  0.4550
  109MOL   H11745693   0.817   3.459   4.699  1.8897  0.9026 -2.9384
  109MOL   H11845694   0.935   3.399   4.807 -0.6325 -2.1473  0.7108
  109MOL   H11945695   0.783   3.191   4.627 -1.5172  1.2766 -1.2952
  109MOL   H12045696   0.855   3.164   4.772 -2.2307 -0.5415  1.3381
  109MOL   H12145697   0.697   3.271   4.907 -0.3035  2.0752 -1.1920
  109MOL   H12245698   0.631   3.149   4.800 -3.1773  0.9792  0.0573
  109MOL   H12345699   0.587   3.438   4.763  2.9120 -0.1441 -0.5203
  109MOL   H12445700   0.545   3.319   4.638  0.0084 -3.4745  0.3897
  109MOL   H12545701   0.389   3.220   4.771  0.3878 -1.3271  1.0473
  109MOL   H12645702   0.440   3.301   4.918  0.5728 -1.9267 -0.2303
  109MOL   H12745703   0.357   3.396   4.797 -1.5316 -1.0688 -0.3865
  109MOL   C12845704   1.022   3.526   4.558 -0.1793  0.1728 -0.6335
  109MOL   C12945705   0.906   3.602   4.484 -0.7675  0.0550 -0.3641
  109MOL   C13045706   0.928   3.574   4.331  0.0928  0.2566 -0.0491
  109MOL   C13145707   1.056   3.637   4.271 -0.4859 -0.2971  0.6231
  109MOL   C13245708   1.059   3.637   4.117  0.7881 -0.4499  0.1155
  109MOL   C13345709   1.181   3.710   4.060  0.3662  0.1246 -0.0932
  109MOL   C13445710   1.198   3.698   3.906  0.2541  0.5514 -0.0124
  109MOL   H13545711   1.052   3.586   4.645 -1.2082  1.1375 -0.9318
  109MOL   H13645712   1.112   3.517   4.497 -0.0353  0.9071 -0.5308
  109MOL   H13745713   0.813   3.550   4.508  0.9403 -1.8771  2.3075
  109MOL   H13845714   0.836   3.609   4.282 -0.6771 -1.6468 -0.0038
  109MOL   H13945715   0.909   3.472   4.297  1.0203 -0.5752  1.8943
  109MOL   H14045716   1.146   3.585   4.304  0.0481 -0.2852 -0.7939
  109MOL   H14145717   1.081   3.740   4.294 -0.4715 -0.0616 -0.4328
  109MOL   H14245718   0.971   3.690   4.081  0.6985  0.1175  1.1691
  109MOL   H14345719   1.045   3.535   4.082 -1.3696 -0.2570  0.3659
  109MOL   H14445720   1.269   3.664   4.106  0.3764  1.3206  1.1078
  109MOL   H14545721   1.175   3.816   4.085 -2.4025  0.1005 -0.4898
  109MOL   H14645722   1.159   3.601   3.877 -0.3941  0.6598  0.4764
  109MOL   H14745723   1.301   3.721   3.880 -1.2317  4.1962 -3.1407
  109MOL   H14845724   1.130   3.764   3.852  0.1403  1.9978  1.8192
  109MOL   C14945725   0.896   3.752   4.513  0.1386  0.4251  0.0877
  109MOL   C15045726   0.775   3.823   4.455  0.4767 -0.0027 -0.9667
  109MOL   C15145727   0.810   3.970   4.407  0.9442  0.3532  0.2792
  109MOL   C15245728   0.848   4.068   4.514  0.5838 -0.2656 -0.2892
  109MOL   C15345729   0.891   4.202   4.453 -0.3021  0.1845 -0.1851
  109MOL   C15445730   0.923   4.309   4.555 -0.0173  0.5029 -0.1554
  109MOL   C15545731   1.020   4.425   4.507 -0.2425 -0.2178 -0.5499
  109MOL   H15645732   0.898   3.766   4.621  1.5084 -0.2660  0.1566
  109MOL   H15745733   0.988   3.796   4.475  1.1736  0.5821  2.6481
  109MOL   H15845734   0.738   3.775   4.364 -1.0041  0.2060 -0.4880
  109MOL   H15945735   0.884   3.961   4.327  0.6277 -1.5924  0.1604
  109MOL   H16045736   0.724   4.005   4.351  1.7547 -1.2909 -2.0516
  109MOL   H16145737   0.921   4.022   4.579  1.9074  1.1850 -0.7151
  109MOL   H16245738   0.768   4.079   4.587 -0.6129  1.3632 -1.7867
  109MOL   H16345739   0.820   4.230   4.376 -0.1716  0.1467 -0.3201
  109MOL   H16445740   0.978   4.180   4.391 -1.4920 -0.6202 -1.6003
  109MOL   H16545741   0.968   4.264   4.643 -0.1548  2.0714  0.7435
  109MOL   H16645742   0.839   4.355   4.607 -1.0512 -0.9722 -0.4980
  109MOL   H16745743   0.983   4.480   4.420 -3.4406  1.7462  1.9431
  109MOL   H16845744   1.122   4.388   4.496 -0.8585 -1.9499 -0.5701
  109MOL   H16945745   1.037   4.498   4.585  0.6889 -2.0247  0.9874
  109MOL   C17045746   0.653   3.808   4.542 -0.6373 -0.3101 -0.5466
  109MOL   C17145747   0.511   3.844   4.487  0.1485 -0.0049  0.4693
  109MOL   C17245748   0.455   3.726   4.393 -0.2450  0.6481 -0.7134
  109MOL   C17345749   0.329   3.763   4.317 -0.7120  0.3980  0.0435
  109MOL   C17445750   0.264   3.674   4.218 -0.3155 -0.3271 -0.1265
  109MOL   C17545751   0.326   3.679   4.084  0.7989 -0.1408 -0.0860
  109MOL   C17645752   0.248   3.593   3.990  0.2407  0.4209  0.3686
  109MOL   H17745753   0.677   3.865   4.631  0.3914  1.5265 -1.9557
  109MOL   H17845754   0.643   3.703   4.568 -1.7232 -0.7117 -2.4857
  109MOL   H17945755   0.515   3.926   4.416 -1.0500 -0.4822 -0.1731
  109MOL   H18045756   0.425   3.647   4.462 -0.9332  0.7469 -0.8953
  109MOL   H18145757   0.534   3.692   4.325  0.6816  1.1327  0.0986
  109MOL   H18245758   0.330   3.865   4.278 -2.0628  0.3626 -0.0817
  109MOL   H18345759   0.255   3.778   4.395 -2.1019  0.8469 -1.3518
  109MOL   H18445760   0.158   3.698   4.214 -0.6157 -1.8642 -1.9404
  109MOL   H18545761   0.268   3.569   4.246 -0.0763 -0.6269 -1.2352
  109MOL   H18645762   0.431   3.650   4.089  0.9537  0.8685  3.2987
  109MOL   H18745763   0.337   3.781   4.048  0.0021  0.3298  0.9918
  109MOL   H18845764   0.294   3.597   3.891 -0.0436  0.9765  0.2559
  109MOL   H18945765   0.147   3.631   3.973 -0.1124 -1.1049 -0.9977
  109MOL   H19045766   0.241   3.492   4.028  1.3200  0.0848 -0.2902
  109MOL   C19145767   0.419   3.895   4.598  1.0960  0.1029 -0.1458
  109MOL   C19245768   0.428   4.049   4.624  0.5031  0.5228  0.0450
  109MOL   C19345769   0.346   4.125   4.514 -0.2076 -0.1024 -0.7160
  109MOL   C19445770   0.388   4.270   4.492 -0.2010  0.3939 -0.6201
  109MOL   C19545771   0.507   4.277   4.399 -0.3109  0.2218  0.4267
  109MOL   C19645772   0.517   4.417   4.329 -0.5818  0.3588 -0.2894
  109MOL   C19745773   0.622   4.411   4.213  0.2783 -1.0064  0.0291
  109MOL   H19845774   0.431   3.832   4.686  1.7486  0.5168  0.0666
  109MOL   H19945775   0.313   3.886   4.576  0.8822 -0.6019  1.1639
  109MOL   H20045776   0.531   4.083   4.618  0.4393  1.0238  1.7039
  109MOL   H20145777   0.245   4.120   4.554  0.2850 -0.9432  0.4642
  109MOL   H20245778   0.342   4.076   4.417 -0.1098 -0.3339 -0.6020
  109MOL   H20345779   0.422   4.314   4.585  0.9079 -1.0678 -0.3183
  109MOL   H20445780   0.304   4.322   4.447 -2.0733 -2.1562 -0.1982
  109MOL   H20545781   0.598   4.258   4.456  0.5873 -0.2640 -1.1296
  109MOL   H20645782   0.501   4.196   4.326 -1.3757 -1.0302  1.8690
  109MOL   H20745783   0.549   4.483   4.409  0.3286 -0.5390  0.1065
  109MOL   H20845784   0.427   4.458   4.283  0.6906  1.0152 -2.2840
  109MOL   H20945785   0.648   4.512   4.184  2.2585 -1.3080  0.6588
  109MOL   H21045786   0.577   4.362   4.126 -0.8355  0.9672 -0.5234
  109MOL   H21145787   0.717   4.366   4.244 -0.3137 -0.7925  2.2384
  109MOL   C21245788   0.385   4.083   4.766 -0.0363 -0.6963 -0.0367
  109MOL   C21345789   0.480   4.035   4.878  0.1370 -0.0404  0.3541
  109MOL   C21445790   0.623   4.098   4.884  0.4876 -0.6752 -0.0855
  109MOL   C21545791   0.629   4.238   4.943  0.0929 -0.1211  0.1529
  109MOL   C21645792   0.781   4.285   4.943  0.3144  0.2623  0.1848
  109MOL   C21745793   0.791   4.429   4.988  0.2037  0.1266 -0.3432
  109MOL   C21845794   0.927   4.496   5.006  0.3914 -0.0478 -0.0010
  109MOL   H21945795   0.281   4.056   4.785 -0.0785 -0.1732  0.4830
  109MOL   H22045796   0.387   4.191   4.772  2.9760 -0.6393 -1.0743
  109MOL   H22145797   0.495   3.930   4.854  0.0819 -0.1805  0.9249
  109MOL   H22245798   0.700   4.042   4.936 -1.3761 -1.6000  1.7507
  109MOL   H22345799   0.657   4.114   4.782  1.7674  1.2011  0.6085
  109MOL   H22445800   0.578   4.229   5.039 -3.6274  1.6941 -1.5408
  109MOL   H22545801   0.568   4.305   4.883 -0.2217 -1.0857 -0.6234
  109MOL   H22645802   0.837   4.213   5.003  1.5212  1.6130  0.7082
  109MOL   H22745803   0.828   4.273   4.846 -0.7104 -0.1591 -0.2615
  109MOL   H22845804   0.745   4.493   4.913  1.7755  0.3707 -1.1181
  109MOL   H22945805   0.723   4.441   5.072 -0.3232 -1.2087 -0.5644
  109MOL   H23045806   0.968   4.525   4.909  2.0839 -0.1175  0.6738
  109MOL   H23145807   0.993   4.425   5.055 -0.7870 -1.0886  0.0911
  109MOL   H23245808   0.930   4.587   5.066  1.8732  1.1561 -1.8451
  109MOL   C23345809   0.399   4.027   5.013 -0.7167  0.0153  0.8731
  109MOL   C23445810   0.465   3.964   5.138  0.3871 -0.7003  0.1047
  109MOL   C23545811   0.440   4.051   5.261  0.0373  0.4863 -0.6648
  109MOL   C23645812   0.292   4.087   5.294 -0.4733  0.5927  0.3883
  109MOL   C23745813   0.281   4.128   5.441  0.4062  0.5233 -0.8946
  109MOL   C23845814   0.284   4.012   5.541  0.4765  0.0483  0.4678
  109MOL   C23945815   0.248   4.066   5.679  0.2234 -0.2523  0.0825
  109MOL   H24045816   0.296   3.990   5.011 -0.5007 -0.5328 -0.9077
  109MOL   H24145817   0.383   4.133   5.033  2.0840  0.7293 -0.4088
  109MOL   H24245818   0.573   3.970   5.119  0.6690 -0.6376  1.6745
  109MOL   H24345819   0.495   4.144   5.249  0.4698  0.9427  3.9039
  109MOL   H24445820   0.482   4.005   5.350 -0.1507 -0.8900 -1.2678
  109MOL   H24545821   0.229   4.000   5.277  1.0450 -0.4009 -0.2262
  109MOL   H24645822   0.270   4.171   5.229  0.7381 -0.9026 -2.0150
  109MOL   H24745823   0.186   4.179   5.458  0.2287 -0.4870  1.3103
  109MOL   H24845824   0.360   4.198   5.469 -0.9831  1.2347  1.3632
  109MOL   H24945825   0.212   3.940   5.502 -1.9663  2.6032  0.0970
  109MOL   H25045826   0.382   3.966   5.547 -0.3656 -1.7232  0.9047
  109MOL   H25145827   0.141   4.066   5.699  0.3245  0.9464  0.6533
  109MOL   H25245828   0.283   3.997   5.756 -2.6838 -1.9496 -0.0309
  109MOL   H25345829   0.296   4.164   5.685 -2.1038  0.8277  1.9745
  109MOL   C25445830   0.430   3.822   5.155 -0.3736  0.3480 -0.0075
  109MOL   C25545831   0.468   3.726   5.035 -0.1367 -0.4844  0.4365
  109MOL   C25645832   0.347   3.693   4.947  1.0269  1.1410 -0.0837
  109MOL   C25745833   0.225   3.618   5.016 -0.4815 -0.9156  0.1082
  109MOL   C25845834   0.111   3.593   4.926  0.0864  0.3941  0.7040
  109MOL   C25945835   0.038   3.712   4.870 -0.4861 -0.8117 -0.2091
  109MOL   C26045836   7.706   3.809   4.985  0.1510  0.2943 -0.6102
  109MOL   H26145837   0.327   3.802   5.186  0.4764 -1.1501  1.8907
  109MOL   H26245838   0.488   3.784   5.239 -0.6491 -0.7888 -0.3182
  109MOL   H26345839   0.541   3.777   4.973 -1.6225  0.8342 -0.2496
  109MOL   H26445840   0.377   3.629   4.864 -1.7773 -1.7837  1.0892
  109MOL   H26545841   0.308   3.781   4.896 -0.3428  0.8618  0.4535
  109MOL   H26645842   0.263   3.528   5.064  0.0232 -1.5478 -1.4543
  109MOL   H26745843   0.190   3.677   5.101  0.4014 -0.7686  0.3867
  109MOL   H26845844   0.028   3.537   4.970 -0.8584  0.8759 -0.4176
  109MOL   H26945845   0.138   3.530   4.841 -1.6932  1.8763 -1.0205
  109MOL   H27045846   0.089   3.771   4.794  0.3451 -0.6082  0.5042
  109MOL   H27145847   7.665   3.685   4.809 -0.0917 -0.6854 -0.8379
  109MOL   H27245848   7.615   3.863   4.962 -0.6893 -0.9145 -0.1574
  109MOL   H27345849   7.688   3.750   5.075  0.3496  0.8947 -0.1675
  109MOL   H27445850   0.072   3.881   5.008  1.6469 -2.2676  2.7948
  109MOL   C27545851   0.548   3.598   5.070  0.4519 -0.0381  0.1152
  109MOL   C27645852   0.699   3.620   5.100 -0.1260  0.1497  0.1538
  109MOL   C27745853   0.775   3.620   4.961 -0.3429  0.3788 -0.3757
  109MOL   C27845854   0.912   3.678   4.965 -0.6460 -0.4671  0.6506
  109MOL   C27945855   0.925   3.824   4.938 -0.6665  0.7346 -0.1472
  109MOL   C28045856   1.056   3.893   4.980 -0.7912  0.2601 -0.6141
  109MOL   C28145857   1.079   3.896   5.126 -0.1174  0.9892  0.0950
  109MOL   H28245858   0.520   3.523   4.996  0.5380 -2.6629  2.6399
  109MOL   H28345859   0.496   3.545   5.150 -0.8591  0.1931 -0.5761
  109MOL   H28445860   0.709   3.709   5.163  0.0047  0.5464 -0.4289
  109MOL   H28545861   0.775   3.520   4.917 -4.6842  0.0929  0.1036
  109MOL   H28645862   0.716   3.674   4.887 -1.4527  1.6774  1.4454
  109MOL   H28745863   0.974   3.619   4.896 -0.3833 -1.2232  1.5257
  109MOL   H28845864   0.954   3.650   5.061  2.4299 -1.1865 -0.8224
  109MOL   H28945865   0.848   3.873   4.998  1.0110  1.9407  1.0695
  109MOL   H29045866   0.898   3.842   4.834 -0.0534  0.1332 -0.4128
  109MOL   H29145867   1.149   3.854   4.938 -0.5011  0.0253  0.2426
  109MOL   H29245868   1.057   3.996   4.944  0.4689  0.0021 -1.3451
  109MOL   H29345869   0.986   3.924   5.175  0.6157  1.1062  1.4491
  109MOL   H29445870   1.153   3.973   5.150 -1.7050  2.0047  1.9239
  109MOL   H29545871   1.109   3.805   5.176  1.4204  2.6551  2.3216
  109MOL   C29645872   0.749   3.493   5.179  1.1102  0.3154 -0.1566
  109MOL   C29745873   0.714   3.477   5.324  0.1702  0.9517 -0.4818
  109MOL   C29845874   0.775   3.586   5.418 -0.6684 -0.9847 -0.5044
  109MOL   C29945875   0.930   3.602   5.404  0.9187 -1.0535  0.0013
  109MOL   C30045876   1.001   3.700   5.503 -0.4316 -0.3395 -0.9614
  109MOL   C30145877   0.952   3.846   5.505 -0.2495 -0.3508  0.7656
  109MOL   C30245878   1.034   3.938   5.596  1.3036 -0.0210  0.4698
  109MOL   H30345879   0.726   3.399   5.129 -0.5865  1.1262 -0.9490
  109MOL   H30445880   0.856   3.490   5.161  1.1039  2.2489 -0.6957
  109MOL   H30545881   0.606   3.486   5.331  0.1539 -0.9085  2.1209
  109MOL   H30645882   0.751   3.689   5.392  1.2340 -0.1755  0.7993
  109MOL   H30745883   0.743   3.562   5.519 -1.1261 -0.1856 -0.4610
  109MOL   H30845884   0.943   3.651   5.308 -3.9040  1.4649  0.4400
  109MOL   H30945885   0.988   3.510   5.398  2.1029 -0.5148  2.4872
  109MOL   H31045886   1.109   3.698   5.490  0.0284  0.0833  2.3513
  109MOL   H31145887   0.981   3.665   5.605  0.8140 -0.2832 -0.6959
  109MOL   H31245888   0.940   3.884   5.404 -1.1525 -2.0434  0.2228
  109MOL   H31345889   0.846   3.852   5.534 -0.4953  0.0400 -0.1853
  109MOL   H31445890   0.994   4.039   5.603 -1.3071 -1.1498  2.4206
  109MOL   H31545891   1.036   3.900   5.698 -0.3326  1.0063  0.9073
  109MOL   H31645892   1.135   3.962   5.562  1.1460  1.4856  1.0655
  109MOL   C31745893   0.744   3.330   5.378  0.6361  0.0342  0.6687
  109MOL   C31845894   0.634   3.218   5.337 -0.6634  0.0408  0.2352
  109MOL   C31945895   0.708   3.081   5.309 -0.3560 -0.0821 -0.1804
  109MOL   C32045896   0.784   3.085   5.170 -0.6526  0.8780 -0.8215
  109MOL   C32145897   0.904   2.984   5.162  0.0979  0.3804  0.4400
  109MOL   C32245898   1.024   3.005   5.074  0.3008 -0.6648  0.3334
  109MOL   C32345899   1.142   2.910   5.100  0.2787 -0.0910 -0.1969
  109MOL   H32445900   0.767   3.323   5.484 -0.3161  0.7181  0.9281
  109MOL   H32545901   0.837   3.318   5.322 -0.6385  0.6392 -1.6707
  109MOL   H32645902   0.582   3.259   5.251  2.3379 -1.1324 -2.2363
  109MOL   H32745903   0.641   2.995   5.296  2.0107 -1.7573 -1.6295
  109MOL   H32845904   0.766   3.056   5.398  0.1937  0.5909 -0.3522
  109MOL   H32945905   0.851   3.171   5.159  0.3398 -0.0072 -1.8263
  109MOL   H33045906   0.716   3.075   5.086 -0.6537 -1.4331 -0.5730
  109MOL   H33145907   0.857   2.892   5.128  0.7849  0.2016 -0.0359
  109MOL   H33245908   0.941   2.971   5.263 -2.7898  0.8441  1.6037
  109MOL   H33345909   1.051   3.111   5.080  1.3089 -0.9089  0.1867
  109MOL   H33445910   0.986   2.998   4.972  1.0370  2.3655 -0.2120
  109MOL   H33545911   1.226   2.912   5.031 -1.1412  2.1302 -1.9308
  109MOL   H33645912   1.107   2.807   5.102  1.1354 -0.4348 -1.9256
  109MOL   H33745913   1.174   2.916   5.204 -3.2997 -0.8706  1.0135
  109MOL   C33845914   0.530   3.194   5.449 -0.5037  0.2820  0.5472
  109MOL   C33945915   0.428   3.303   5.482 -0.0787  0.1079 -0.1156
  109MOL   C34045916   0.364   3.276   5.622 -0.5530 -0.4711 -0.4043
  109MOL   C34145917   0.293   3.141   5.639 -0.6834  0.3107 -0.0954
  109MOL   C34245918   0.219   3.138   5.767  0.2222  0.4412 -0.0420
  109MOL   C34345919   0.155   2.994   5.794  0.6926 -0.5045  0.2460
  109MOL   C34445920   0.062   3.004   5.914  0.0714  0.3873 -0.6030
  109MOL   H34545921   0.590   3.178   5.538  0.9827  2.1075 -0.1102
  109MOL   H34645922   0.478   3.101   5.423 -2.3764  1.7328 -1.0886
  109MOL   H34745923   0.487   3.394   5.496  0.0962 -0.2696  1.6775
  109MOL   H34845924   0.442   3.287   5.697 -2.0379  1.2786  0.8982
  109MOL   H34945925   0.308   3.362   5.656 -0.2243 -1.5846  3.1958
  109MOL   H35045926   0.360   3.056   5.636 -0.9623  0.0931 -0.2285
  109MOL   H35145927   0.219   3.122   5.561 -0.2697 -0.8862 -0.1989
  109MOL   H35245928   0.303   3.149   5.835  1.3425  2.1463 -1.6733
  109MOL   H35345929   0.139   3.211   5.777 -0.7143 -0.6994  1.1335
  109MOL   H35445930   0.098   2.977   5.702  2.9526 -0.2310 -1.2253
  109MOL   H35545931   0.223   2.909   5.796 -0.6385 -1.5446  3.0118
  109MOL   H35645932   0.122   3.036   5.999 -0.7024 -1.3288  0.6126
  109MOL   H35745933   0.024   2.903   5.930 -0.4668  0.8284  1.0170
  109MOL   H35845934   7.691   3.073   5.914  0.2671  0.6974  2.0889
  109MOL   C35945935   0.316   3.319   5.373  0.4260  0.0026  0.0884
  109MOL   C36045936   0.193   3.402   5.407  0.1402 -0.8786  0.4402
  109MOL   C36145937   0.230   3.550   5.438 -0.2395 -0.4896 -0.2889
  109MOL   C36245938   0.120   3.636   5.495  0.1300 -0.3679  0.2239
  109MOL   C36345939   0.093   3.603   5.648 -0.7667 -0.5127 -0.2760
  109MOL   C36445940   7.713   3.711   5.717  0.3430  0.5396  0.1919
  109MOL   C36545941   7.665   3.681   5.863  0.0841  0.2151  0.1497
  109MOL   H36645942   0.280   3.223   5.337 -0.0650  0.3946 -0.4675
  109MOL   H36745943   0.362   3.370   5.288  0.7489 -0.4592 -0.0169
  109MOL   H36845944   0.145   3.361   5.496  2.5859 -1.2135  1.6444
  109MOL   H36945945   0.326   3.565   5.488 -0.8339 -2.8296  1.6659
  109MOL   H37045946   0.257   3.588   5.340  0.9490 -2.2893 -0.6956
  109MOL   H37145947   0.156   3.738   5.484 -2.6774  0.9969  2.9262
  109MOL   H37245948   0.025   3.627   5.442  0.0132  2.4368 -0.0930
  109MOL   H37345949   0.050   3.506   5.670  2.2404 -1.7236  0.4752
  109MOL   H37445950   0.192   3.599   5.694 -0.5446  0.2694 -0.6723
  109MOL   H37545951   0.041   3.810   5.698  1.9472 -0.2162 -0.3355
  109MOL   H37645952   7.621   3.714   5.658  1.0258  0.5379 -0.8962
  109MOL   H37745953   0.009   3.742   5.932  1.1701  0.6128 -1.0961
  109MOL   H37845954   7.561   3.713   5.871  0.2884  1.0292 -0.3997
  109MOL   H37945955   7.662   3.577   5.895 -1.8523 -0.2792 -1.5371
  109MOL   C38045956   0.093   3.398   5.287  0.3559 -0.1390  0.1023
  109MOL   C38145957   7.696   3.287   5.302  0.5241 -0.4788 -0.4881
  109MOL   C38245958   7.578   3.343   5.388 -0.1163 -0.3510 -0.6351
  109MOL   C38345959   7.567   3.275   5.524 -1.0043  0.3057 -0.4137
  109MOL   C38445960   7.490   3.358   5.626  0.4474 -0.6851 -0.4270
  109MOL   C38545961   7.516   3.309   5.771 -0.5003 -0.3638 -0.8150
  109MOL   C38645962   7.429   3.391   5.872 -0.0362  0.6786 -0.3512
  109MOL   H38745963   0.041   3.494   5.287  1.5489  0.5541  2.1719
  109MOL   H38845964   0.145   3.409   5.192 -1.4520  0.9742 -0.7777
  109MOL   H38945965   0.035   3.207   5.354  0.9878 -0.0958 -0.3547
  109MOL   H39045966   7.483   3.327   5.339 -1.1210  0.3457  1.0310
  109MOL   H39145967   7.578   3.452   5.397 -0.2724 -0.3513 -0.6400
  109MOL   H39245968   7.517   3.180   5.509 -2.3558  0.9881 -0.3109
  109MOL   H39345969   7.662   3.243   5.565 -1.7735 -0.6797  0.6195
  109MOL   H39445970   7.513   3.464   5.619 -1.1796 -0.2588  0.4103
  109MOL   H39545971   7.382   3.343   5.613  0.4936 -0.6745 -0.8356
  109MOL   H39645972   7.621   3.321   5.797  0.1400 -1.0130 -3.0274
  109MOL   H39745973   7.512   3.201   5.785  0.9210 -0.2349  0.8186
  109MOL   H39845974   7.323   3.366   5.864 -0.3590  1.7501  0.4630
  109MOL   H39945975   7.429   3.496   5.841 -0.8767  0.7721 -0.0383
  109MOL   H40045976   7.455   3.382   5.977  0.1082 -1.5071 -0.5500
  109MOL   C40145977   7.651   3.245   5.169  0.2595 -0.2503 -0.2839
  109MOL   C40245978   0.026   3.171   5.077 -0.0841  0.3659  0.5007
  109MOL   C40345979   7.688   3.153   4.936  0.3041 -0.0903  0.4030
  109MOL   C40445980   0.068   3.068   4.853  0.2144 -0.2026  0.1089
  109MOL   C40545981   0.033   3.047   4.704  0.0802  0.7301  0.0687
  109MOL   C40645982   0.157   2.991   4.628 -0.0014 -0.8403  0.2807
  109MOL   C40745983   0.127   2.976   4.474 -0.3480  0.1103 -0.7154
  109MOL   H40845984   7.602   3.324   5.111 -0.5642  0.6033  1.5011
  109MOL   H40945985   7.568   3.176   5.182 -0.7779  1.1591  0.8826
  109MOL   H41045986   0.057   3.076   5.122  0.4809  0.0782 -0.4631
  109MOL   H41145987   7.663   3.248   4.888  0.0996 -0.4659 -0.2533
  109MOL   H41245988   7.590   3.108   4.945  0.3551  0.0900  1.9868
  109MOL   H41345989   0.084   2.974   4.905  0.0791  0.3077  1.0990
  109MOL   H41445990   0.163   3.122   4.853  0.8101 -1.2151  1.0701
  109MOL   H41545991   7.653   2.990   4.698  0.1472  0.6378 -0.1108
  109MOL   H41645992   0.010   3.140   4.653  0.8233 -0.2863 -2.2148
  109MOL   H41745993   0.239   3.062   4.639 -1.2630  0.7300 -0.1888
  109MOL   H41845994   0.211   2.912   4.680  2.8513 -0.2776 -1.7134
  109MOL   H41945995   0.090   3.070   4.434  0.4838  0.4161 -0.7782
  109MOL   H42045996   0.055   2.895   4.467 -3.5398  2.6850  0.7948
  109MOL   H42145997   0.215   2.951   4.416 -0.7012 -0.5540 -0.9728
  109MOL   H42245998   0.119   3.224   5.054 -0.5779 -0.2490 -3.2578
  110MOL     C145999   6.060   6.563   7.534 -0.3219  0.4922 -0.1968
  110MOL     C246000   6.112   6.634   7.404  0.1774  0.2181 -0.5678
  110MOL     C346001   6.070   6.566   7.273  0.6152 -0.1691 -0.2190
  110MOL     C446002   6.141   6.426   7.247 -0.2979 -0.1535 -0.2606
  110MOL     C546003   6.094   6.356   7.118 -0.5889 -0.6812  0.2059
  110MOL     C646004   5.957   6.282   7.126 -0.7739 -0.1168  0.5150
  110MOL     C746005   5.936   6.193   6.999 -0.0696 -0.3785 -0.3398
  110MOL     H846006   5.952   6.559   7.543 -0.0894  1.6527  3.8735
  110MOL     H946007   6.101   6.619   7.618  0.9407  0.0627 -0.5129
  110MOL    H1046008   6.078   6.737   7.410 -0.3438  0.0404 -0.4926
  110MOL    H1146009   5.963   6.548   7.289  0.2561  1.3430 -0.8887
  110MOL    H1246010   6.076   6.634   7.189  2.0488 -1.1733 -0.9312
  110MOL    H1346011   6.250   6.438   7.243 -0.3205  0.9194  1.9061
  110MOL    H1446012   6.122   6.359   7.330  0.0364  0.4309  0.2929
  110MOL    H1546013   6.161   6.272   7.097 -1.1592 -0.4616 -2.6158
  110MOL    H1646014   6.099   6.416   7.028 -1.4358 -2.4601 -1.0549
  110MOL    H1746015   5.883   6.361   7.118 -1.3497 -0.7295 -0.3747
  110MOL    H1846016   5.940   6.229   7.220 -0.2854  1.1244  1.3189
  110MOL    H1946017   6.010   6.113   7.003 -1.1300 -1.3009  1.3304
  110MOL    H2046018   5.939   6.262   6.914 -1.1823 -0.4281 -0.4288
  110MOL    H2146019   5.836   6.151   6.988 -0.2586 -0.1842  0.6015
  110MOL    H2246020   6.116   6.469   7.533  0.4612  0.9416  0.3781
  110MOL    C2346021   6.265   6.642   7.408  0.2305 -0.2730 -0.4300
  110MOL    C2446022   6.335   6.739   7.516 -0.0939  0.4497 -0.3242
  110MOL    C2546023   6.311   6.890   7.500  0.2392 -0.7884 -0.6135
  110MOL    C2646024   6.345   6.954   7.371 -0.0280 -0.1148  0.2977
  110MOL    C2746025   6.314   7.105   7.364 -0.4066  0.3041  0.1418
  110MOL    C2846026   6.398   7.182   7.460 -0.3192  0.1202  0.0404
  110MOL    C2946027   6.404   7.331   7.429  0.8148  0.5529 -1.3412
  110MOL    H3046028   6.289   6.538   7.432 -3.2567 -0.9478  0.4020
  110MOL    H3146029   6.309   6.646   7.308 -0.7473 -0.7868 -0.8871
  110MOL    H3246030   6.290   6.723   7.614  0.2083  3.6230  0.3884
  110MOL    H3346031   6.369   6.949   7.571 -1.0314  0.3436 -0.5153
  110MOL    H3446032   6.207   6.919   7.515  1.1461  3.0325 -1.0083
  110MOL    H3546033   6.279   6.916   7.293 -0.6637  0.6461  0.4641
  110MOL    H3646034   6.450   6.940   7.345 -0.4109  1.3949 -2.2502
  110MOL    H3746035   6.208   7.127   7.356  0.2798  2.6079 -4.3828
  110MOL    H3846036   6.352   7.142   7.269 -0.3338  1.4523  0.6170
  110MOL    H3946037   6.503   7.157   7.444 -0.9015 -1.3797 -1.5556
  110MOL    H4046038   6.376   7.170   7.566  1.8724  0.8655  0.5990
  110MOL    H4146039   6.475   7.382   7.494 -1.2014  1.6058  0.0808
  110MOL    H4246040   6.431   7.344   7.324  0.9860  2.8252 -1.0435
  110MOL    H4346041   6.304   7.371   7.447  0.4746 -0.2012 -1.5266
  110MOL    C4446042   6.482   6.692   7.530 -0.8044  0.5266 -0.1585
  110MOL    C4546043   6.590   6.771   7.610  0.1923  0.4394 -0.5439
  110MOL    C4646044   6.547   6.763   0.042  0.1653  0.1033 -0.2755
  110MOL    C4746045   6.621   6.857   0.140  0.4632 -0.4782 -0.5436
  110MOL    C4846046   6.575   7.008   0.124 -0.3667  0.4380 -0.6170
  110MOL    C4946047   6.685   7.117   0.155  0.0567 -0.7129 -0.1198
  110MOL    C5046048   6.632   7.260   0.162 -0.3690  0.1989 -0.8287
  110MOL    H5146049   6.520   6.720   7.431 -1.8311  0.7385 -0.5007
  110MOL    H5246050   6.490   6.587   7.555  0.2509  0.7795  0.6320
  110MOL    H5346051   6.574   6.873   7.576 -2.8941  0.6035  1.1979
  110MOL    H5446052   6.545   6.663   0.087 -0.1603  0.3099  0.1632
  110MOL    H5546053   6.440   6.784   0.048 -0.1502 -1.1118 -1.3768
  110MOL    H5646054   6.611   6.823   0.243  1.9397  1.5688  0.3197
  110MOL    H5746055   6.729   6.854   0.123  0.6956  1.1395  0.5089
  110MOL    H5846056   6.487   7.033   0.182  0.0716 -1.2144  0.8327
  110MOL    H5946057   6.537   7.027   0.023  0.0687 -2.3367 -1.3619
  110MOL    H6046058   6.760   7.120   0.076 -0.1222  1.7790 -0.2672
  110MOL    H6146059   6.744   7.080   0.238  1.6327 -1.2795 -1.4658
  110MOL    H6246060   6.572   7.274   0.252 -0.6761 -1.7231 -0.6994
  110MOL    H6346061   6.581   7.300   0.074  0.3444  2.6796 -0.1232
  110MOL    H6446062   6.722   7.320   0.168 -0.4429  0.1135  1.2155
  110MOL    C6546063   6.729   6.706   7.585 -0.3755 -0.2940 -0.0497
  110MOL    C6646064   6.857   6.797   7.579  0.3906  0.1295 -0.1783
  110MOL    C6746065   6.852   6.903   7.468  0.1203 -0.6127 -0.4148
  110MOL    C6846066   6.832   6.862   7.317 -0.0437 -0.0876 -0.1399
  110MOL    C6946067   6.818   6.988   7.229  1.2145  0.7599  0.0605
  110MOL    C7046068   6.793   6.944   7.080 -0.1832 -0.2617  0.2835
  110MOL    C7146069   6.642   6.894   7.057  0.1986 -0.0865  0.0732
  110MOL    H7246070   6.745   6.641   7.671 -0.4266 -0.9064 -0.5028
  110MOL    H7346071   6.736   6.637   7.501  1.7189 -0.6192  0.3665
  110MOL    H7446072   6.861   6.855   7.671  2.4085 -0.0520 -0.1287
  110MOL    H7546073   6.768   6.965   7.500 -0.0753 -0.6527 -0.8523
  110MOL    H7646074   6.937   6.971   7.475  0.4126 -1.1120  1.3220
  110MOL    H7746075   6.918   6.808   7.277  0.2107  2.0859 -2.6586
  110MOL    H7846076   6.755   6.788   7.300  1.9764 -3.2433  3.6532
  110MOL    H7946077   6.732   7.042   7.268  0.8111  0.8452 -0.9224
  110MOL    H8046078   6.913   7.041   7.237  1.3178  0.3703  1.4727
  110MOL    H8146079   6.867   6.866   7.059 -0.3963 -0.3210 -0.2688
  110MOL    H8246080   6.822   7.024   7.012  1.4108 -0.9518  0.1149
  110MOL    H8346081   6.615   6.894   6.951 -1.4625  0.4206  0.4815
  110MOL    H8446082   6.627   6.804   7.116  0.9841 -0.4006 -0.2040
  110MOL    H8546083   6.576   6.971   7.096 -0.4646 -0.4450 -0.3320
  110MOL    C8646084   6.992   6.718   7.573  0.4551 -0.2546  0.1148
  110MOL    C8746085   7.113   6.779   7.656  0.5113  0.3027  0.1918
  110MOL    C8846086   7.082   6.806   0.092 -0.8187 -0.2938  0.2070
  110MOL    C8946087   7.066   6.951   0.132  0.5990 -0.3239  0.7036
  110MOL    C9046088   7.010   6.960   0.274 -0.0919  0.5469  0.6242
  110MOL    C9146089   7.110   6.915   0.379 -0.7071 -0.6784 -0.3911
  110MOL    C9246090   7.086   6.977   0.518  0.3198 -0.3722 -0.3379
  110MOL    H9346091   6.983   6.619   7.619 -1.8476 -0.4009 -0.5885
  110MOL    H9446092   7.023   6.701   7.470  0.0269  0.2882 -0.1039
  110MOL    H9546093   7.126   6.879   7.615 -2.3424  1.3680  1.7611
  110MOL    H9646094   6.989   6.757   0.120  0.5545 -2.0317  1.8622
  110MOL    H9746095   7.151   6.760   0.162  2.4139  0.8726 -2.0987
  110MOL    H9846096   7.161   7.004   0.135 -0.5103  1.6297  2.7592
  110MOL    H9946097   6.994   7.004   0.070  0.5165 -1.3960 -0.1391
  110MOL   H10046098   6.913   6.912   0.287 -1.3709  2.7075 -0.5933
  110MOL   H10146099   6.993   7.068   0.276  2.4424  1.0482 -1.0358
  110MOL   H10246100   7.116   6.807   0.391  0.3078 -0.6652 -0.7533
  110MOL   H10346101   7.210   6.946   0.347 -2.2610  2.7632 -2.1757
  110MOL   H10446102   7.156   7.058   0.541 -0.9448  0.0890  2.1681
  110MOL   H10546103   7.073   6.913   0.605 -0.3128 -0.5901 -0.5913
  110MOL   H10646104   7.001   7.046   0.513  0.6578  0.6190  4.6897
  110MOL   C10746105   7.242   6.703   7.621 -0.1256  0.0299 -0.4222
  110MOL   C10846106   7.366   6.741   7.710 -0.4493  0.6221 -0.1235
  110MOL   C10946107   7.389   6.625   0.103  0.8853  0.1405  0.2372
  110MOL   C11046108   7.463   6.675   0.232 -0.7958 -0.1203  0.2857
  110MOL   C11146109   7.506   6.572   0.331 -0.4643 -1.1259 -0.7533
  110MOL   C11246110   7.564   6.630   0.463 -0.0243 -0.1179  0.5934
  110MOL   C11346111   7.449   6.693   0.538  0.6524 -0.4577 -0.2243
  110MOL   H11446112   7.268   6.735   7.520  0.0345 -0.4408 -0.5332
  110MOL   H11546113   7.227   6.595   7.610 -1.9892  0.2604 -0.2646
  110MOL   H11646114   7.344   6.834   0.049  1.8145  1.0300  0.1538
  110MOL   H11746115   7.449   6.546   0.057  0.5797  0.0247  0.0354
  110MOL   H11846116   7.294   6.573   0.119  0.5544  0.3094 -1.0559
  110MOL   H11946117   7.554   6.730   0.208 -1.1229  0.6578  0.7925
  110MOL   H12046118   7.403   6.754   0.277 -0.6237 -1.5349  3.1468
  110MOL   H12146119   7.575   6.498   0.291 -2.0091 -2.0349 -1.8148
  110MOL   H12246120   7.425   6.503   0.353 -0.5743 -0.4416  1.0085
  110MOL   H12346121   7.610   6.556   0.528 -1.0566 -0.1487  1.2935
  110MOL   H12446122   7.649   6.693   0.436  1.7158 -2.7989 -0.4577
  110MOL   H12546123   7.362   6.725   0.481 -0.0381 -0.7660  0.6464
  110MOL   H12646124   7.425   6.622   0.617  0.4396 -0.1785 -0.0318
  110MOL   H12746125   7.487   6.783   0.588 -1.9105  0.6666 -0.1963
  110MOL   C12846126   7.497   6.776   7.632  0.0437  0.3346 -0.8822
  110MOL   C12946127   7.494   6.910   7.556  0.3846  0.3144 -0.3048
  110MOL   C13046128   7.573   6.908   7.417  0.0933 -0.4669 -0.7308
  110MOL   C13146129   0.015   6.896   7.423 -0.2077  0.5068 -0.2008
  110MOL   C13246130   0.081   6.840   7.293  0.1504 -0.1793 -0.2133
  110MOL   C13346131   0.070   6.933   7.166 -0.1308 -0.5132 -0.1738
  110MOL   C13446132   0.152   6.903   7.039 -0.4338 -0.4683  0.0872
  110MOL   H13546133   7.580   6.783   7.701  0.2962 -0.0424 -1.1434
  110MOL   H13646134   7.515   6.694   7.562  0.5069 -0.0448 -0.3262
  110MOL   H13746135   7.387   6.916   7.536  0.1297 -1.9905  0.2676
  110MOL   H13846136   7.540   6.997   7.363 -1.0726 -1.4194 -1.6029
  110MOL   H13946137   7.524   6.825   7.367  1.8256  0.1249 -3.5641
  110MOL   H14046138   0.039   6.827   7.504  0.6527  0.3914 -0.5465
  110MOL   H14146139   0.068   6.984   7.459  2.1243 -0.4608 -1.1584
  110MOL   H14246140   0.023   6.752   7.264  0.0161  0.5340 -2.2226
  110MOL   H14346141   0.179   6.799   7.317  0.3836 -0.3086 -1.3756
  110MOL   H14446142   0.088   7.035   7.203  0.2726  0.0227 -1.8274
  110MOL   H14546143   7.679   6.935   7.137 -0.9325 -1.0550  2.4900
  110MOL   H14646144   0.137   6.804   6.996 -0.2138 -0.7433  0.6396
  110MOL   H14746145   0.257   6.911   7.066 -0.7619 -1.7257  1.7695
  110MOL   H14846146   0.126   6.977   6.963  0.9785  1.7095  1.6557
  110MOL   C14946147   7.529   7.036   7.639  0.2759  0.1301 -0.4538
  110MOL   C15046148   7.482   7.174   7.590  0.0855 -0.3176  0.1710
  110MOL   C15146149   7.563   7.294   7.642  0.1788 -0.4762 -1.0489
  110MOL   C15246150   7.596   7.313   0.083  0.4568 -0.2877 -0.2929
  110MOL   C15346151   7.691   7.426   0.108  0.2844 -0.5809  0.1305
  110MOL   C15446152   7.621   7.562   0.083 -0.3307  0.4682 -0.1684
  110MOL   C15546153   7.694   7.692   0.119  0.0615  0.0089  0.3165
  110MOL   H15646154   7.485   7.032   0.026 -1.9706 -0.3110 -1.4291
  110MOL   H15746155   7.636   7.038   7.661 -0.2523  0.7399  2.3023
  110MOL   H15846156   7.498   7.175   7.482 -0.2815  1.3140  0.1082
  110MOL   H15946157   7.662   7.280   7.597 -0.1123 -3.1640 -0.8872
  110MOL   H16046158   7.518   7.384   7.598 -3.0859 -1.1226  0.8392
  110MOL   H16146159   7.648   7.221   0.111 -0.7818 -0.6219  0.9541
  110MOL   H16246160   7.502   7.314   0.139  0.8323 -2.0532  0.4114
  110MOL   H16346161   0.071   7.413   0.054  1.1094  1.9935  0.8434
  110MOL   H16446162   0.008   7.441   0.212 -1.6863  0.5658  0.5851
  110MOL   H16546163   7.536   7.554   0.151  1.2934  0.1422  1.8898
  110MOL   H16646164   7.596   7.561   7.691 -1.0899 -2.5566 -0.0078
  110MOL   H16746165   0.007   7.687   0.225 -1.2723  1.2312  0.7268
  110MOL   H16846166   7.625   0.063   0.111 -0.5241 -0.6545 -1.8994
  110MOL   H16946167   0.065   0.007   0.056 -0.5073  0.6746 -0.1473
  110MOL   C17046168   7.328   7.197   7.629  0.2652 -0.2387  0.4819
  110MOL   C17146169   7.260   7.324   7.582 -0.4301 -0.4718 -0.1915
  110MOL   C17246170   7.267   7.334   7.421  0.4223 -0.1805  0.1947
  110MOL   C17346171   7.227   7.211   7.339 -0.0891  0.8799 -0.3850
  110MOL   C17446172   7.212   7.245   7.193  0.6247  0.1776  0.2234
  110MOL   C17546173   7.160   7.119   7.120 -0.5383 -0.2530  0.5711
  110MOL   C17646174   7.199   7.123   6.970  1.1218 -0.1982 -0.6214
  110MOL   H17746175   7.327   7.200   0.025 -0.4163  2.1446  0.4288
  110MOL   H17846176   7.276   7.108   7.594  1.0188 -0.3708 -0.3477
  110MOL   H17946177   7.318   7.408   7.620 -0.6291  0.3258 -1.6121
  110MOL   H18046178   7.374   7.346   7.402  0.1831  0.7621 -0.5635
  110MOL   H18146179   7.215   7.423   7.385  0.0278 -1.1298 -1.6267
  110MOL   H18246180   7.133   7.177   7.383  0.1568  0.0690 -0.4842
  110MOL   H18346181   7.301   7.131   7.337  0.1117  1.0426  0.5151
  110MOL   H18446182   7.316   7.265   7.168  0.4172  1.0473  0.0379
  110MOL   H18546183   7.162   7.340   7.172  0.8859  0.0701 -0.9053
  110MOL   H18646184   7.055   7.146   7.120 -0.1811  1.1949  1.7037
  110MOL   H18746185   7.189   7.031   7.179 -0.2905 -0.8331 -0.3977
  110MOL   H18846186   7.146   7.039   6.925 -0.7944  0.3431  0.5692
  110MOL   H18946187   7.306   7.123   6.951  1.0235  3.0114 -1.3084
  110MOL   H19046188   7.154   7.211   6.926 -0.9801  0.2302  2.2649
  110MOL   C19146189   7.115   7.343   7.641  0.6312  0.3518 -0.1498
  110MOL   C19246190   7.069   7.496   7.631 -0.5053 -0.3302 -0.5266
  110MOL   C19346191   6.916   7.521   7.639 -0.1138  0.2521 -0.8207
  110MOL   C19446192   6.831   7.472   7.523 -0.0252  0.2888 -0.0881
  110MOL   C19546193   6.865   7.534   7.383  0.4864  0.2439 -0.5682
  110MOL   C19646194   6.782   7.462   7.272  0.0894 -0.4877 -0.1047
  110MOL   C19746195   6.846   7.331   7.238 -0.0716  0.1607  0.2068
  110MOL   H19846196   7.115   7.318   0.034 -0.9264  2.2942  0.3442
  110MOL   H19946197   7.044   7.280   7.588  0.6184 -0.2128  0.5308
  110MOL   H20046198   7.103   7.543   7.538 -0.1688  0.6601  0.0991
  110MOL   H20146199   6.890   7.626   7.654  0.6173  0.2060  0.9296
  110MOL   H20246200   6.875   7.459   0.006  0.2650  2.0075  0.7873
  110MOL   H20346201   6.727   7.493   7.550 -0.3240 -1.0115 -0.2119
  110MOL   H20446202   6.850   7.366   7.508 -0.0295  0.2842 -0.0572
  110MOL   H20546203   6.842   7.640   7.377  0.8521  0.5062  1.9497
  110MOL   H20646204   6.971   7.527   7.359  0.6660  3.2526 -0.7956
  110MOL   H20746205   6.783   7.519   7.179 -0.6489 -2.1889 -1.1716
  110MOL   H20846206   6.676   7.450   7.295 -0.2740  0.1175 -1.3950
  110MOL   H20946207   6.919   7.349   7.160 -2.3597  0.3901 -1.9478
  110MOL   H21046208   6.774   7.264   7.191 -1.5929  1.3540  0.7961
  110MOL   H21146209   6.895   7.283   7.323 -0.0150  1.2936  0.8309
  110MOL   C21246210   7.126   7.575   0.032 -0.3186 -0.0250 -0.3293
  110MOL   C21346211   7.134   0.016   0.045  0.3458 -0.1636  0.1288
  110MOL   C21446212   7.150   0.064   0.197 -0.4978 -0.1282  0.1085
  110MOL   C21546213   7.257   7.709   0.290 -0.5260  0.0562 -0.7024
  110MOL   C21646214   7.264   0.048   0.431 -0.2135  0.0782 -0.0779
  110MOL   C21746215   7.331   0.188   0.442 -0.4770 -0.0207  0.4015
  110MOL   C21846216   7.482   0.184   0.444  0.8463 -0.0211  0.7314
  110MOL   H21946217   7.225   7.529   0.040 -0.6178 -0.6564 -0.1988
  110MOL   H22046218   7.077   7.548   0.126 -1.0824  1.7430 -0.2057
  110MOL   H22146219   7.042   0.058   0.004  0.7543  2.0357  1.3967
  110MOL   H22246220   7.171   0.171   0.198  0.5409 -0.3327  0.6165
  110MOL   H22346221   7.053   0.051   0.246  0.6916  1.2172  2.8812
  110MOL   H22446222   7.351   0.013   0.237  1.0206 -0.5114  1.7904
  110MOL   H22546223   7.252   7.600   0.293 -0.3143  0.0344 -1.1153
  110MOL   H22646224   7.165   0.060   0.475 -0.1115 -1.5042  0.6062
  110MOL   H22746225   7.311   7.691   0.500  1.4091  0.1976 -1.0434
  110MOL   H22846226   7.280   0.250   0.368  0.8401  0.4401 -0.1390
  110MOL   H22946227   7.300   0.230   0.538 -1.2498 -1.5989  0.8610
  110MOL   H23046228   7.506   0.276   0.498 -0.1233  0.3173  0.5939
  110MOL   H23146229   7.521   0.182   0.342 -0.3173 -1.8589  0.2928
  110MOL   H23246230   7.513   0.103   0.510 -0.1771 -0.7572  0.3164
  110MOL   C23346231   7.251   0.063   7.674 -0.6433 -0.3438  0.0797
  110MOL   C23446232   7.232   0.192   7.589 -0.1881 -0.2688  0.0315
  110MOL   C23546233   7.126   0.173   7.485 -0.4643  0.5615  0.0820
  110MOL   C23646234   7.171   0.093   7.361  0.1891  0.6578  0.4813
  110MOL   C23746235   7.080   0.119   7.240 -0.3795  0.4942  0.0339
  110MOL   C23846236   7.088   0.007   7.135  0.2217  0.3541  0.5464
  110MOL   C23946237   7.006   0.048   7.013  0.2716 -0.0850 -0.8602
  110MOL   H24046238   7.277   7.695   7.606 -0.6339 -0.2832  0.0108
  110MOL   H24146239   7.339   0.073   0.025 -0.8493 -1.4843  0.5463
  110MOL   H24246240   7.326   0.203   7.536 -1.0211 -0.0042 -1.3976
  110MOL   H24346241   7.099   0.272   7.446  1.4943  1.8854  2.0050
  110MOL   H24446242   7.034   0.140   7.534  0.8227  0.7477  2.6637
  110MOL   H24546243   7.180   7.702   7.390  0.4112  1.0750  1.9694
  110MOL   H24646244   7.276   0.118   7.344  0.4330 -0.1501  0.7786
  110MOL   H24746245   7.102   0.220   7.206 -2.2074  2.1055  3.4341
  110MOL   H24846246   6.974   0.120   7.269 -0.4758  3.1911 -0.2254
  110MOL   H24946247   7.193   7.703   7.110  0.0850  0.8470 -0.3735
  110MOL   H25046248   7.049   7.624   7.169  0.5208  0.3598  0.9063
  110MOL   H25146249   6.900   0.058   7.036  0.4121  0.8669 -0.6146
  110MOL   H25246250   7.042   0.141   6.970 -1.4113  0.7230 -0.5610
  110MOL   H25346251   7.017   7.691   6.930  2.0084 -0.2387 -0.5004
  110MOL   C25446252   7.212   0.329   7.658 -0.8088 -0.1368 -0.0291
  110MOL   C25546253   7.290   0.450   7.606  0.0279 -0.0117 -0.5188
  110MOL   C25646254   7.440   0.459   7.643 -0.3572 -0.0796 -0.3275
  110MOL   C25746255   7.481   0.448   0.078  0.0542  0.1622  0.0838
  110MOL   C25846256   7.634   0.460   0.107  1.1277  0.0506 -0.2544
  110MOL   C25946257   7.679   0.459   0.251 -0.3815 -0.6055 -0.3129
  110MOL   C26046258   0.110   0.512   0.274  0.1007  0.4628 -0.5099
  110MOL   H26146259   7.228   0.310   0.051  0.0019  0.5572 -0.0322
  110MOL   H26246260   7.106   0.355   7.649 -0.6469  0.4241 -0.2624
  110MOL   H26346261   7.285   0.451   7.497 -1.1632  0.7869 -0.4654
  110MOL   H26446262   7.473   0.555   7.604  0.5106  0.3329  1.3930
  110MOL   H26546263   7.492   0.379   7.590 -0.7050 -0.8429  0.4839
  110MOL   H26646264   7.436   0.535   0.126 -2.1221 -1.1254  0.4619
  110MOL   H26746265   7.443   0.353   0.116 -0.3000 -0.1462 -1.0378
  110MOL   H26846266   7.670   0.545   0.049 -1.2362  1.5943  0.4575
  110MOL   H26946267   7.667   0.374   0.049 -0.6786 -0.6503 -0.2937
  110MOL   H27046268   7.610   0.514   0.315  1.0740 -1.0780  1.7175
  110MOL   H27146269   7.658   0.362   0.296 -0.3859 -0.1467  0.6745
  110MOL   H27246270   0.180   0.456   0.212  0.8362 -1.2566  1.7956
  110MOL   H27346271   0.122   0.617   0.247  1.5630  0.9364  1.8527
  110MOL   H27446272   0.144   0.489   0.375 -2.1295  0.0503  0.1700
  110MOL   C27546273   7.222   0.578   7.659  0.5226  0.1222 -0.7913
  110MOL   C27646274   7.091   0.620   7.574 -0.2451 -0.1367 -0.9117
  110MOL   C27746275   7.127   0.646   7.426  0.8750 -0.3051 -0.1528
  110MOL   C27846276   7.245   0.750   7.403 -0.3379  0.1161 -0.0948
  110MOL   C27946277   7.273   0.766   7.252  0.5754  0.1734  0.4785
  110MOL   C28046278   7.419   0.783   7.217  0.2706  0.0928 -0.3862
  110MOL   C28146279   7.491   0.893   7.296  0.3959 -0.1153 -0.0255
  110MOL   H28246280   7.291   0.662   7.649  2.0786 -1.1651 -0.8238
  110MOL   H28346281   7.204   0.555   0.050  0.5147  0.0653 -0.8058
  110MOL   H28446282   7.021   0.537   7.577 -1.9267  1.2359 -1.2115
  110MOL   H28546283   7.137   0.553   7.370 -2.8329 -0.4699 -0.6789
  110MOL   H28646284   7.036   0.700   7.399  0.8978 -0.4881 -0.6008
  110MOL   H28746285   7.338   0.706   7.439 -0.4571  0.7011  0.9277
  110MOL   H28846286   7.234   0.842   7.459 -1.6486  0.3335 -0.6851
  110MOL   H28946287   7.205   0.843   7.218  1.4913 -0.6673 -3.4314
  110MOL   H29046288   7.234   0.679   7.198  0.6659 -0.8257  1.9775
  110MOL   H29146289   7.473   0.690   7.233  0.0808 -0.0798 -0.7543
  110MOL   H29246290   7.429   0.821   7.116 -0.9981  0.0280 -0.5530
  110MOL   H29346291   7.422   0.977   7.302 -1.0805 -1.1765 -1.7053
  110MOL   H29446292   7.589   0.923   7.259 -0.0058  0.4616 -0.6333
  110MOL   H29546293   7.513   0.863   7.398 -0.1802 -0.4515 -0.0030
  110MOL   C29646294   7.030   0.740   7.650  0.0882 -0.3883 -0.4343
  110MOL   C29746295   6.883   0.709   7.689  0.0525 -0.1166  0.6281
  110MOL   C29846296   6.787   0.716   7.561  0.2000  0.6861  0.4905
  110MOL   C29946297   6.747   0.855   7.517  0.6789 -0.4002  0.0266
  110MOL   C30046298   6.642   0.868   7.407  0.3343 -0.3075 -0.1104
  110MOL   C30146299   6.662   0.995   7.314  0.6950 -0.0728  0.3647
  110MOL   C30246300   6.699   1.118   7.389 -0.3142 -0.4601 -0.0337
  110MOL   H30346301   7.083   0.755   0.031 -1.2348 -1.4103  0.4951
  110MOL   H30446302   7.039   0.836   7.599 -1.4749  0.1170  0.1870
  110MOL   H30546303   6.891   0.608   0.016  1.8277  0.1339  0.8974
  110MOL   H30646304   6.826   0.658   7.477  1.5870  1.4187  0.6068
  110MOL   H30746305   6.695   0.660   7.577 -1.0661  2.0281 -1.8998
  110MOL   H30846306   6.838   0.900   7.478 -0.7222  1.4806 -1.1701
  110MOL   H30946307   6.705   0.919   7.595  0.1318  1.4966 -1.7911
  110MOL   H31046308   6.536   0.877   7.427  0.0702 -2.2076 -0.6308
  110MOL   H31146309   6.661   0.783   7.342 -0.5749 -0.2627 -0.4420
  110MOL   H31246310   6.744   0.975   7.245 -0.5308 -0.9388 -0.8738
  110MOL   H31346311   6.578   1.017   7.249  1.9340 -3.1474 -2.3861
  110MOL   H31446312   6.805   1.126   7.412 -0.3992  1.7372 -0.2924
  110MOL   H31546313   6.679   1.208   7.331 -2.0987 -1.4804 -1.0520
  110MOL   H31646314   6.641   1.128   7.481  2.4506  0.6020  1.6421
  110MOL   C31746315   6.833   0.801   0.091  0.2186 -0.5530 -0.5376
  110MOL   C31846316   6.681   0.786   0.128 -0.6899  0.2097 -0.3362
  110MOL   C31946317   6.649   0.649   0.201 -0.3509  0.7212 -0.5105
  110MOL   C32046318   6.625   0.514   0.130 -0.1412  0.5949 -0.0023
  110MOL   C32146319   6.596   0.404   0.233  0.3963 -0.7641  0.2376
  110MOL   C32246320   6.589   0.269   0.166  0.0382  0.2742 -0.4250
  110MOL   C32346321   6.596   0.157   0.274  0.0342 -0.1780 -0.0727
  110MOL   H32446322   6.855   0.902   0.058  3.6200 -0.9881  0.2405
  110MOL   H32546323   6.897   0.792   0.179  0.2862  2.0256 -0.2891
  110MOL   H32646324   6.632   0.777   0.031 -0.9957 -3.6100  0.1103
  110MOL   H32746325   6.564   0.671   0.267 -0.2511 -0.9548  0.2014
  110MOL   H32846326   6.724   0.633   0.278  1.6995  0.7631 -2.4746
  110MOL   H32946327   6.714   0.479   0.077 -0.9854 -0.2169 -0.8888
  110MOL   H33046328   6.551   0.529   0.052 -0.9886  0.7744  0.8195
  110MOL   H33146329   6.495   0.414   0.272  0.6090 -0.3420  0.6826
  110MOL   H33246330   6.660   0.408   0.321 -2.4090 -0.3108  2.3285
  110MOL   H33346331   6.664   0.261   0.087  1.7317  0.9257  1.0851
  110MOL   H33446332   6.495   0.255   0.113 -0.7466 -0.5864  1.1742
  110MOL   H33546333   6.516   0.187   0.343 -0.6415 -1.3058 -0.3469
  110MOL   H33646334   6.691   0.142   0.326 -0.7703  0.0664  1.5198
  110MOL   H33746335   6.581   0.065   0.219 -0.1880 -1.2197  1.6837
  110MOL   C33846336   6.641   0.915   0.206  0.5922  0.9369 -0.5210
  110MOL   C33946337   6.492   0.960   0.194  0.0731 -0.2666 -0.2678
  110MOL   C34046338   6.467   1.009   0.050 -0.7254  0.0192  0.2595
  110MOL   C34146339   6.328   1.060   0.015  0.8502  0.3939 -0.2462
  110MOL   C34246340   6.289   1.047   7.584 -0.1975  0.4449  0.5589
  110MOL   C34346341   6.153   1.114   7.554  0.3675  0.4609 -0.4146
  110MOL   C34446342   6.125   1.124   7.405  0.1926  0.4464 -0.1005
  110MOL   H34546343   6.705   0.998   0.178  0.6214  1.2391  0.4138
  110MOL   H34646344   6.656   0.887   0.310 -0.1634  0.1406 -0.6157
  110MOL   H34746345   6.431   0.872   0.213  0.7874 -0.6595  0.2096
  110MOL   H34846346   6.528   1.096   0.025  0.8224 -0.7285  1.3145
  110MOL   H34946347   6.493   0.933   7.689 -1.0973 -0.0133  0.1607
  110MOL   H35046348   6.310   1.165   0.036 -2.1991 -0.8532  4.0385
  110MOL   H35146349   6.259   1.004   0.078  0.2047 -0.8995 -2.0422
  110MOL   H35246350   6.366   1.093   7.522 -0.7539 -0.3627 -0.7515
  110MOL   H35346351   6.283   0.941   7.558  1.5765  0.7768 -1.3477
  110MOL   H35446352   6.086   1.060   7.620  1.0211  0.3104  0.1369
  110MOL   H35546353   6.145   1.214   7.598 -1.8410  1.0559 -2.1283
  110MOL   H35646354   6.021   1.147   7.382  0.3240  1.0792 -0.0695
  110MOL   H35746355   6.158   1.029   7.361 -1.8030 -0.3477  0.0668
  110MOL   H35846356   6.193   1.194   7.356  1.2871  0.7527  1.7861
  110MOL   C35946357   6.466   1.083   0.284  0.3541  0.0768 -0.8113
  110MOL   C36046358   6.442   1.048   0.437  0.3222 -0.3125  0.7944
  110MOL   C36146359   6.420   1.184   0.509  0.7567 -1.4133  0.0773
  110MOL   C36246360   6.430   1.161   0.661  0.9525  0.2641  0.4032
  110MOL   C36346361   6.424   1.295   0.739 -0.1616  0.5527 -0.2506
  110MOL   C36446362   6.297   1.368   0.710  0.5245 -0.1487  0.3419
  110MOL   C36546363   6.284   1.507   0.784  0.3487 -0.0598  0.1583
  110MOL   H36646364   6.383   1.148   0.257 -0.2899 -0.0904  0.6879
  110MOL   H36746365   6.554   1.147   0.277 -0.1860  1.0143  0.5474
  110MOL   H36846366   6.529   0.990   0.464  0.0901 -1.2477 -0.4283
  110MOL   H36946367   6.485   1.268   0.484 -1.7727  0.8910  0.9525
  110MOL   H37046368   6.320   1.216   0.478  0.7213 -0.7283  0.8755
  110MOL   H37146369   6.355   1.095   0.705 -0.8232  0.9500 -1.5365
  110MOL   H37246370   6.521   1.106   0.685 -1.4533 -2.6318  3.5888
  110MOL   H37346371   6.441   1.285   0.846 -0.8860  0.7910 -0.1056
  110MOL   H37446372   6.512   1.352   0.710  0.0253  1.5912  2.2265
  110MOL   H37546373   6.300   1.393   0.604  0.7594 -2.1099 -0.1210
  110MOL   H37646374   6.210   1.308   0.736  1.1374 -1.5337 -0.7444
  110MOL   H37746375   6.282   1.474   0.888 -1.1532 -4.2033 -1.1114
  110MOL   H37846376   6.370   1.575   0.778 -0.4283  1.1706  2.4413
  110MOL   H37946377   6.201   1.563   0.740  1.5259  0.4377 -1.4745
  110MOL   C38046378   6.320   0.955   0.470 -0.4558 -0.2719  0.2521
  110MOL   C38146379   6.346   0.846   0.574  0.7577 -0.5602  0.7030
  110MOL   C38246380   6.216   0.800   0.642 -0.0279  0.4157  0.4650
  110MOL   C38346381   6.111   0.717   0.563 -0.6196  0.1851 -0.2538
  110MOL   C38446382   5.989   0.687   0.655 -0.2776  0.1244 -0.3497
  110MOL   C38546383   5.878   0.616   0.581 -0.2758  0.5741  0.3127
  110MOL   C38646384   5.765   0.578   0.671  0.0943 -0.2286 -0.2664
  110MOL   H38746385   6.230   1.014   0.489  0.0084  0.3207  0.6407
  110MOL   H38846386   6.299   0.901   0.378  0.0878  0.3830 -0.2624
  110MOL   H38946387   6.407   0.902   0.644  0.0107 -1.8840  2.4577
  110MOL   H39046388   6.161   0.882   0.688 -2.1947 -0.5462 -0.3312
  110MOL   H39146389   6.251   0.751   0.733  1.7087 -0.6338 -0.7429
  110MOL   H39246390   6.070   0.780   0.484 -0.5792  0.3627 -0.1324
  110MOL   H39346391   6.140   0.629   0.505 -0.1348  1.1525 -1.5140
  110MOL   H39446392   6.026   0.645   0.749 -1.0752 -0.4018 -0.2684
  110MOL   H39546393   5.945   0.781   0.689  1.7940  0.7914  0.5843
  110MOL   H39646394   5.928   0.530   0.536  1.3285  0.6290  1.9189
  110MOL   H39746395   5.836   0.664   0.493  0.0899  0.3585  0.0177
  110MOL   H39846396   5.678   0.543   0.616  1.0599 -1.0510 -1.3036
  110MOL   H39946397   5.733   0.669   0.722  2.0508 -0.1833  0.9480
  110MOL   H40046398   5.797   0.506   0.746  1.5276 -0.3665 -0.9905
  110MOL   C40146399   6.432   0.732   0.526 -0.2156 -0.4533 -0.1212
  110MOL   C40246400   6.474   0.635   0.644 -0.1467  0.2823 -0.2697
  110MOL   C40346401   6.586   0.545   0.598  0.0238 -0.3161  0.3776
  110MOL   C40446402   6.675   0.473   0.706 -0.1444  0.9723  0.5277
  110MOL   C40546403   6.806   0.426   0.652  0.4227  0.3984 -0.4989
  110MOL   C40646404   6.867   0.334   0.756 -0.2568  0.0878 -0.6289
  110MOL   C40746405   7.009   0.290   0.729 -0.4417  0.8468 -0.2349
  110MOL   H40846406   6.517   0.772   0.471 -0.3706 -0.7049 -0.5415
  110MOL   H40946407   6.381   0.663   0.459 -2.3917 -1.2127  2.2548
  110MOL   H41046408   6.390   0.574   0.678 -1.1039  1.1924 -0.9577
  110MOL   H41146409   6.645   0.621   0.546  0.8478 -1.1375  0.1057
  110MOL   H41246410   6.566   0.472   0.521 -0.3413 -1.7546  1.8120
  110MOL   H41346411   6.608   0.397   0.747  1.7600 -0.1138  1.7457
  110MOL   H41446412   6.696   0.541   0.789  1.8933 -0.5223  1.2781
  110MOL   H41546413   6.788   0.364   0.564 -1.5736 -0.1431  0.2650
  110MOL   H41646414   6.864   0.516   0.634  1.7480 -0.5536 -1.0708
  110MOL   H41746415   6.868   0.379   0.855  0.7431  2.5067 -1.6844
  110MOL   H41846416   6.809   0.242   0.765  1.4600 -0.7633  2.2093
  110MOL   H41946417   7.003   0.213   0.652 -2.0274 -0.0058  0.6867
  110MOL   H42046418   7.055   0.245   0.817 -0.3378  0.5932 -0.4198
  110MOL   H42146419   7.082   0.361   0.692 -0.0152 -0.0503 -1.1372
  110MOL   H42246420   6.520   0.689   0.727  0.3773  1.0813 -1.0781
  111MOL     C146421   7.129   5.451   6.527  0.1853 -0.1903  0.1618
  111MOL     C246422   7.053   5.489   6.656  0.5219 -0.0338 -0.1929
  111MOL     C346423   7.139   5.492   6.781  0.1557  0.1770 -0.0620
  111MOL     C446424   7.241   5.603   6.790  0.5497 -0.1410 -0.1210
  111MOL     C546425   7.317   5.610   6.922 -0.0175 -0.2136  0.0826
  111MOL     C646426   7.461   5.646   6.897 -0.2472  0.3170  0.9437
  111MOL     C746427   7.537   5.665   7.029  0.3248 -0.4316  0.4607
  111MOL     H846428   7.223   5.501   6.504  0.8022 -1.3977  0.0407
  111MOL     H946429   7.065   5.462   6.439 -0.3948 -2.3740  0.2718
  111MOL    H1046430   7.016   5.591   6.647  1.6309  0.4491  0.5464
  111MOL    H1146431   7.078   5.499   6.871  1.2357 -0.2060  0.7035
  111MOL    H1246432   7.194   5.399   6.793  0.0710  0.1846  0.3892
  111MOL    H1346433   7.319   5.584   6.716  1.4602  1.2489  0.4631
  111MOL    H1446434   7.197   5.699   6.763  2.1848  0.6104 -0.1793
  111MOL    H1546435   7.309   5.517   6.978  0.3191  0.1721  0.7765
  111MOL    H1646436   7.276   5.692   6.980  1.9909  2.0240 -1.5641
  111MOL    H1746437   7.473   5.734   6.835 -1.1543 -0.6503 -0.6519
  111MOL    H1846438   7.515   5.569   6.841 -2.1093  0.7323 -1.5225
  111MOL    H1946439   7.642   5.688   7.010  0.6415 -0.5492  2.0170
  111MOL    H2046440   7.535   5.568   7.079  0.9321 -0.2925  0.7572
  111MOL    H2146441   7.487   5.741   7.088 -0.3700  0.0077 -0.6805
  111MOL    H2246442   7.156   5.348   6.551  0.4843 -0.3787 -0.9371
  111MOL    C2346443   6.926   5.414   6.682  0.4623  0.8443 -0.7512
  111MOL    C2446444   6.796   5.456   6.608 -0.2864 -0.0733  0.4295
  111MOL    C2546445   6.661   5.426   6.686  0.1712  0.1090 -0.3478
  111MOL    C2646446   6.597   5.547   6.762  0.0005  0.9906 -0.3582
  111MOL    C2746447   6.450   5.518   6.797 -0.4270 -0.0716  0.2842
  111MOL    C2846448   6.358   5.559   6.677 -0.0723  0.5292  0.5560
  111MOL    C2946449   6.220   5.587   6.712 -0.2843 -0.1914  0.3362
  111MOL    H3046450   6.948   5.308   6.676  1.4023  0.8988  1.4322
  111MOL    H3146451   6.895   5.425   6.786  1.3051  1.8404 -0.6010
  111MOL    H3246452   6.803   5.564   6.598 -0.2294 -0.2648 -1.8336
  111MOL    H3346453   6.671   5.344   6.757  2.5767  1.3779  0.8358
  111MOL    H3446454   6.586   5.380   6.622  1.1651 -3.7912  1.1552
  111MOL    H3546455   6.602   5.646   6.717  2.7018  0.6061 -0.9950
  111MOL    H3646456   6.655   5.547   6.854 -1.4702  1.5980  0.5883
  111MOL    H3746457   6.420   5.573   6.887  0.9441 -0.9111  1.2683
  111MOL    H3846458   6.442   5.416   6.834  1.3409 -0.2680  0.1492
  111MOL    H3946459   6.363   5.471   6.613  1.2739  0.7420  0.3476
  111MOL    H4046460   6.399   5.640   6.616  0.4032  0.2662  0.5168
  111MOL    H4146461   6.160   5.504   6.750  1.5542 -0.9230  1.7154
  111MOL    H4246462   6.216   5.653   6.798 -3.7638 -0.9464  0.8600
  111MOL    H4346463   6.161   5.638   6.636  1.1963  1.9737  0.6096
  111MOL    C4446464   6.771   5.396   6.470  0.1531 -0.2971 -0.6626
  111MOL    C4546465   6.663   5.457   6.380  0.4489  0.4696 -0.4375
  111MOL    C4646466   6.691   5.600   6.327  0.7470  0.3322  0.0745
  111MOL    C4746467   6.807   5.632   6.239 -0.4356  0.2666 -0.6583
  111MOL    C4846468   6.809   5.773   6.179  0.7316  0.2814 -0.6250
  111MOL    C4946469   6.726   5.780   6.048  0.4740 -0.6652  0.1381
  111MOL    C5046470   6.719   5.926   5.994 -0.2775 -0.1631 -0.0521
  111MOL    H5146471   6.761   5.288   6.476 -1.4581 -0.2096 -1.5721
  111MOL    H5246472   6.856   5.403   6.402 -0.3512 -2.1620 -1.4969
  111MOL    H5346473   6.577   5.483   6.442 -2.0562 -1.7020 -2.8639
  111MOL    H5446474   6.713   5.661   6.414  0.5155  1.8511 -0.9028
  111MOL    H5546475   6.599   5.638   6.281 -0.9921 -1.3461  2.0575
  111MOL    H5646476   6.888   5.634   6.312 -0.5270  1.4669 -0.5860
  111MOL    H5746477   6.829   5.546   6.175 -2.5824 -1.8528  1.3782
  111MOL    H5846478   6.914   5.805   6.175  0.3199  1.5408 -1.6418
  111MOL    H5946479   6.761   5.840   6.250 -0.3410  0.1203 -1.1862
  111MOL    H6046480   6.627   5.741   6.069 -0.2541  0.1531 -1.6733
  111MOL    H6146481   6.764   5.706   5.979 -0.2794  0.0006 -1.0050
  111MOL    H6246482   6.649   5.929   5.910 -0.2271 -1.1351 -0.1306
  111MOL    H6346483   6.814   5.973   5.970 -0.7389  0.7077 -0.1952
  111MOL    H6446484   6.673   6.003   6.055 -0.1750 -0.9048  0.9738
  111MOL    C6546485   6.603   5.351   6.282  0.2753 -0.5244 -0.0383
  111MOL    C6646486   6.469   5.379   6.205 -0.2057 -0.0715 -0.0130
  111MOL    C6746487   6.349   5.377   6.298  0.5778  0.4118  0.0158
  111MOL    C6846488   6.258   5.494   6.282 -0.4741 -0.4933 -0.5280
  111MOL    C6946489   6.128   5.479   6.362 -0.2428 -0.1397 -0.4414
  111MOL    C7046490   6.018   5.391   6.293 -0.0346  0.2509  0.1280
  111MOL    C7146491   5.885   5.371   6.368 -0.8366 -0.4043 -0.1647
  111MOL    H7246492   6.682   5.344   6.207 -0.7481  0.4249 -1.2415
  111MOL    H7346493   6.595   5.260   6.341  0.8954 -0.5412  0.0177
  111MOL    H7446494   6.471   5.481   6.167 -1.7975 -0.4078 -1.0480
  111MOL    H7546495   6.298   5.282   6.280  1.7606 -0.0853 -0.8351
  111MOL    H7646496   6.384   5.375   6.401  1.5081  1.1988 -0.2697
  111MOL    H7746497   6.309   5.583   6.317 -0.7968  0.1315 -1.6341
  111MOL    H7846498   6.233   5.512   6.177  0.6907 -1.2825 -0.9553
  111MOL    H7946499   6.147   5.443   6.463 -0.0093  0.4518 -0.2762
  111MOL    H8046500   6.083   5.578   6.362 -2.7750 -1.2417 -0.4003
  111MOL    H8146501   6.047   5.288   6.271 -0.6206 -0.0264  0.6217
  111MOL    H8246502   5.996   5.441   6.199  0.4566  1.4527  0.6433
  111MOL    H8346503   5.834   5.280   6.336 -0.3175 -0.2289 -1.5082
  111MOL    H8446504   5.920   5.356   6.470 -0.7995 -1.3870 -0.3173
  111MOL    H8546505   5.818   5.456   6.354 -0.4387 -0.1581 -0.6126
  111MOL    C8646506   6.448   5.290   6.083  0.0284  0.3579  0.1229
  111MOL    C8746507   6.508   5.342   5.944  0.3069  0.0335 -1.0941
  111MOL    C8846508   6.659   5.372   5.943  0.6287 -0.2306  0.8068
  111MOL    C8946509   6.749   5.246   5.961 -0.3905  0.7175 -0.5795
  111MOL    C9046510   6.898   5.283   5.996  0.2754 -0.4523  0.2823
  111MOL    C9146511   6.962   5.386   5.899  0.4765  0.3721  0.2125
  111MOL    C9246512   6.978   5.335   5.753  0.1003 -0.1880 -0.1997
  111MOL    H9346513   6.461   5.186   6.112  1.5514  0.9998  1.8262
  111MOL    H9446514   6.341   5.282   6.062  0.2028  1.6286 -1.3554
  111MOL    H9546515   6.463   5.440   5.927 -0.4719  0.1580  1.3805
  111MOL    H9646516   6.687   5.435   5.859 -0.2610  0.8922  1.3273
  111MOL    H9746517   6.689   5.449   6.014  1.4250  0.9579 -0.7924
  111MOL    H9846518   6.716   5.178   6.040  2.2727  0.5928  0.4630
  111MOL    H9946519   6.751   5.178   5.877  0.1757 -0.2926  0.2388
  111MOL   H10046520   6.951   5.193   6.026  1.4027  0.2823  0.5266
  111MOL   H10146521   6.885   5.355   6.077 -0.6279  1.2653 -1.3295
  111MOL   H10246522   6.897   5.472   5.887 -0.5264 -0.3014  0.7064
  111MOL   H10346523   7.050   5.429   5.948  0.1424  0.0272  1.1239
  111MOL   H10446524   7.056   5.260   5.738  0.4311 -0.1998  1.4992
  111MOL   H10546525   7.013   5.421   5.697 -0.3907  0.6010  0.6902
  111MOL   H10646526   6.887   5.297   5.707  0.8997  1.3146 -3.1594
  111MOL   C10746527   6.472   5.245   5.833 -0.3015 -0.0006 -0.0069
  111MOL   C10846528   6.501   5.287   5.688  0.0394 -0.5982 -0.9112
  111MOL   C10946529   6.461   5.168   5.595  0.0969 -0.0279 -0.1441
  111MOL   C11046530   6.314   5.125   5.592 -0.0861 -0.5697 -0.0318
  111MOL   C11146531   6.269   5.024   5.488  0.1918 -0.4118 -0.0157
  111MOL   C11246532   6.114   5.019   5.477 -0.1279 -0.2489  0.8581
  111MOL   C11346533   6.068   4.914   5.376  0.4576 -0.2339  0.6929
  111MOL   H11446534   6.367   5.217   5.835 -0.2984 -0.0184 -0.1077
  111MOL   H11546535   6.517   5.152   5.868  2.3747  1.6865  1.1690
  111MOL   H11646536   6.606   5.313   5.674  0.2257 -1.1408 -0.5509
  111MOL   H11746537   6.514   5.082   5.637  0.0390 -0.3107 -0.6481
  111MOL   H11846538   6.503   5.183   5.496  0.4581 -0.4347 -0.0552
  111MOL   H11946539   6.289   5.083   5.690  0.6390  0.9019  0.7972
  111MOL   H12046540   6.252   5.213   5.574 -0.7883 -1.1945 -0.7127
  111MOL   H12146541   6.288   4.919   5.509 -0.2363 -0.7162 -1.1072
  111MOL   H12246542   6.315   5.042   5.391  0.1664 -1.8085 -0.2905
  111MOL   H12346543   6.077   4.986   5.574 -1.5821 -0.0782  0.3625
  111MOL   H12446544   6.073   5.117   5.454 -1.4344 -0.1690  3.2866
  111MOL   H12546545   6.084   4.950   5.274 -1.9518  0.6285  0.5770
  111MOL   H12646546   6.117   4.818   5.386  0.4491 -0.0146  3.0294
  111MOL   H12746547   5.960   4.900   5.371  0.2373  0.7126  2.4305
  111MOL   C12846548   6.428   5.419   5.657 -0.2705 -0.4907 -0.2086
  111MOL   C12946549   6.452   5.471   5.511 -0.7268  0.2075 -0.0904
  111MOL   C13046550   6.603   5.484   5.460  0.5133  0.0750 -0.2648
  111MOL   C13146551   6.685   5.579   5.552  0.7117 -0.0547 -0.1209
  111MOL   C13246552   6.809   5.634   5.488 -0.2206 -0.3465 -0.2079
  111MOL   C13346553   6.883   5.713   5.593 -0.1505  0.1603 -0.0455
  111MOL   C13446554   6.821   5.851   5.620 -0.2516  0.0074  0.3236
  111MOL   H13546555   6.322   5.412   5.680 -0.1614 -0.3045  0.3517
  111MOL   H13646556   6.459   5.498   5.725 -1.5270  1.3885 -1.7751
  111MOL   H13746557   6.413   5.396   5.442  1.8050 -0.7970 -0.4800
  111MOL   H13846558   6.607   5.523   5.359  2.5572  0.3319 -0.0992
  111MOL   H13946559   6.648   5.385   5.455  0.1299 -0.1472  0.4845
  111MOL   H14046560   6.719   5.508   5.626  1.5658  0.3204 -0.1473
  111MOL   H14146561   6.623   5.655   5.600  2.3930  0.6858  0.9315
  111MOL   H14246562   6.793   5.679   5.390 -0.8795  0.1262  0.1136
  111MOL   H14346563   6.869   5.546   5.466 -1.6974 -1.4411  0.0064
  111MOL   H14446564   6.980   5.721   5.545  0.0459  0.3302  0.3738
  111MOL   H14546565   6.903   5.646   5.677  1.1341  0.2314 -0.2767
  111MOL   H14646566   6.713   5.845   5.630 -0.6351  0.1091 -3.1580
  111MOL   H14746567   6.846   5.914   5.535 -3.6494 -0.6395 -1.2476
  111MOL   H14846568   6.860   5.898   5.711  0.9401  1.0242 -0.6847
  111MOL   C14946569   6.370   5.596   5.472  0.3393 -0.3650 -0.0847
  111MOL   C15046570   6.213   5.574   5.475 -0.0092 -0.2236  0.3974
  111MOL   C15146571   6.145   5.625   5.350 -0.1313  0.3677 -0.5724
  111MOL   C15246572   6.179   5.771   5.311 -1.8179  0.0861  0.0111
  111MOL   C15346573   6.070   5.849   5.219  0.4587  0.0436 -0.4697
  111MOL   C15446574   6.136   5.955   5.116  0.9109  0.5304  0.0954
  111MOL   C15546575   6.022   6.031   5.041 -0.1426  0.7856 -0.0542
  111MOL   H15646576   6.401   5.669   5.547 -0.6080 -1.6483  1.5797
  111MOL   H15746577   6.399   5.619   5.369 -0.6533 -1.4397 -0.6068
  111MOL   H15846578   6.191   5.467   5.480 -0.5108 -0.0653  2.0854
  111MOL   H15946579   6.186   5.548   5.285 -0.9788 -1.3843  0.9110
  111MOL   H16046580   6.039   5.600   5.351  0.0919 -0.6021 -0.1724
  111MOL   H16146581   6.271   5.776   5.253 -1.2629 -0.6893  0.8339
  111MOL   H16246582   6.210   5.835   5.393  0.3540  0.3576 -0.9981
  111MOL   H16346583   5.993   5.894   5.281 -0.7966 -0.9201 -1.2977
  111MOL   H16446584   6.014   5.779   5.157  0.7400 -0.2232 -0.4282
  111MOL   H16546585   6.209   5.909   5.050 -0.0745  1.7440 -1.8804
  111MOL   H16646586   6.195   6.025   5.174  1.3692 -0.7246  1.1697
  111MOL   H16746587   5.982   5.965   4.964 -0.3017  1.3582 -0.4650
  111MOL   H16846588   6.058   6.127   5.004 -0.6034  0.9906  0.0226
  111MOL   H16946589   5.943   6.059   5.110 -0.5392  0.8568 -0.5315
  111MOL   C17046590   6.150   5.631   5.600 -0.0255  0.2195 -0.7483
  111MOL   C17146591   5.999   5.595   5.624  0.4149  0.4039  0.2726
  111MOL   C17246592   5.969   5.445   5.649  0.2172 -0.8728 -0.7678
  111MOL   C17346593   6.027   5.394   5.789  0.0945  0.4222 -0.0399
  111MOL   C17446594   6.001   5.235   5.810 -0.1394 -1.1599  0.6882
  111MOL   C17546595   6.052   5.187   5.946 -0.2909 -0.3529 -0.4720
  111MOL   C17646596   6.029   5.034   5.975  0.3118 -0.0657 -0.0878
  111MOL   H17746597   6.156   5.738   5.580  0.1376  0.3142 -0.2000
  111MOL   H17846598   6.212   5.618   5.688 -2.1128 -3.4781  0.2865
  111MOL   H17946599   5.942   5.610   5.532  0.1968 -0.5917  0.2360
  111MOL   H18046600   6.000   5.388   5.561 -2.2817 -2.9539 -0.3447
  111MOL   H18146601   5.864   5.418   5.639  0.4603 -2.7459  1.4940
  111MOL   H18246602   5.971   5.437   5.872 -1.6690  0.4515 -1.2199
  111MOL   H18346603   6.132   5.417   5.806  0.5139 -1.5689  0.1189
  111MOL   H18446604   6.033   5.183   5.720  0.0666  3.1439 -1.8765
  111MOL   H18546605   5.893   5.234   5.794 -0.3598  1.1434  1.6892
  111MOL   H18646606   5.998   5.246   6.020 -2.1799 -2.0848 -0.4313
  111MOL   H18746607   6.159   5.207   5.952 -0.1512 -1.2540  0.2627
  111MOL   H18846608   6.096   4.979   5.909  1.5275 -1.1983  2.0326
  111MOL   H18946609   5.924   5.016   5.953 -0.3197  0.5335  2.2749
  111MOL   H19046610   6.048   5.009   6.080 -1.5659 -1.0102  0.0367
  111MOL   C19146611   5.918   5.677   5.731  0.2026 -0.3535  0.0870
  111MOL   C19246612   5.765   5.694   5.696  0.2116 -0.8751 -0.2850
  111MOL   C19346613   5.679   5.734   5.822 -0.2163 -0.0336 -0.1892
  111MOL   C19446614   5.532   5.750   5.804 -0.3138 -0.7156  0.3060
  111MOL   C19546615   5.464   5.789   5.937 -0.8133 -0.5246  0.5402
  111MOL   C19646616   5.312   5.833   5.917  0.1466 -0.2631 -0.6186
  111MOL   C19746617   5.230   5.861   6.043  0.5182 -0.4410  0.1426
  111MOL   H19846618   5.967   5.774   5.737  3.7742 -1.9062 -2.3179
  111MOL   H19946619   5.934   5.640   5.833  1.4940 -0.5826 -0.1881
  111MOL   H20046620   5.736   5.595   5.661 -2.0462 -0.1038 -0.6477
  111MOL   H20146621   5.724   5.828   5.855  2.3907 -1.3893  0.2978
  111MOL   H20246622   5.710   5.657   5.893  0.0084 -0.8342 -1.1342
  111MOL   H20346623   5.492   5.657   5.762 -1.4251  0.1693 -0.6522
  111MOL   H20446624   5.507   5.827   5.731  0.9036 -1.4968 -0.9660
  111MOL   H20546625   5.470   5.701   6.001  0.5889 -0.6022  0.3311
  111MOL   H20646626   5.526   5.859   5.994 -0.6320  0.8298 -1.2513
  111MOL   H20746627   5.261   5.751   5.868 -0.9430  0.9530 -1.5447
  111MOL   H20846628   5.303   5.917   5.849 -1.9334 -1.6264 -2.0797
  111MOL   H20946629   5.121   5.859   6.031  0.6275 -1.7000 -0.7992
  111MOL   H21046630   5.224   5.965   6.074 -1.0989 -0.8468  1.3310
  111MOL   H21146631   5.253   5.804   6.134 -0.5233 -1.2978 -0.1114
  111MOL   C21246632   5.738   5.783   5.577 -0.1174 -0.3818  0.1011
  111MOL   C21346633   5.624   5.738   5.488  0.2014 -0.0553  0.5472
  111MOL   C21446634   5.561   5.858   5.405  0.0567 -0.4467 -0.2244
  111MOL   C21546635   5.657   5.929   5.302 -0.1104 -0.2188 -0.4567
  111MOL   C21646636   5.581   6.043   5.220 -0.2984 -0.3377 -0.1565
  111MOL   C21746637   5.680   6.115   5.133  0.7822  0.2520 -1.0826
  111MOL   C21846638   5.601   6.210   5.034  0.4566 -0.1732  0.1986
  111MOL   H21946639   5.830   5.796   5.518  0.2966 -0.2613  0.7689
  111MOL   H22046640   5.724   5.886   5.611 -0.8796 -1.0095  1.7319
  111MOL   H22146641   5.542   5.703   5.550 -1.1489 -1.4629 -1.9584
  111MOL   H22246642   5.480   5.821   5.343  1.9373 -3.7128 -0.8592
  111MOL   H22346643   5.529   5.937   5.474 -1.3668 -0.1119 -1.2448
  111MOL   H22446644   5.702   5.861   5.229  0.1100 -1.7921  1.0965
  111MOL   H22546645   5.734   5.974   5.364  2.0115 -1.3646 -2.1983
  111MOL   H22646646   5.502   6.000   5.158 -1.4245 -1.3026  1.8847
  111MOL   H22746647   5.535   6.114   5.288 -0.9400  0.8651 -1.8165
  111MOL   H22846648   5.746   6.188   5.179 -2.0335  0.1735  3.4281
  111MOL   H22946649   5.727   6.042   5.068  1.7439  1.8452 -2.2047
  111MOL   H23046650   5.677   6.275   4.991 -0.0279  0.5469  0.4328
  111MOL   H23146651   5.530   6.271   5.089  0.0356  0.2797 -0.8286
  111MOL   H23246652   5.558   6.151   4.953 -0.2109 -0.5819  0.8474
  111MOL   C23346653   5.668   5.612   5.399 -0.5490 -0.4031  0.0098
  111MOL   C23446654   5.556   5.536   5.322 -0.5665 -0.2418  0.2122
  111MOL   C23546655   5.615   5.456   5.209  0.4253 -0.1938 -0.0911
  111MOL   C23646656   5.718   5.348   5.240 -0.6307  0.5607  0.3556
  111MOL   C23746657   5.791   5.292   5.127  1.0795 -0.1556  0.3285
  111MOL   C23846658   5.895   5.180   5.155  0.3574  0.6393 -0.7422
  111MOL   C23946659   6.035   5.238   5.183 -0.5961  0.2652 -0.6952
  111MOL   H24046660   5.727   5.539   5.454  0.1203  0.5391  0.5514
  111MOL   H24146661   5.739   5.650   5.326  2.3208 -2.5471  1.5769
  111MOL   H24246662   5.492   5.609   5.272  0.2906  0.8056  0.6245
  111MOL   H24346663   5.660   5.539   5.153 -0.2740  2.5598  3.2604
  111MOL   H24446664   5.540   5.416   5.141  1.1591 -2.0676  0.1735
  111MOL   H24546665   5.656   5.265   5.272  1.4904 -0.0385  3.0622
  111MOL   H24646666   5.787   5.364   5.323 -0.6494  0.0486  0.4728
  111MOL   H24746667   5.847   5.371   5.076  1.4975 -1.2973 -1.0078
  111MOL   H24846668   5.725   5.262   5.046  1.5131  0.5931 -0.3077
  111MOL   H24946669   5.874   5.116   5.241  1.7207  1.7466  0.4419
  111MOL   H25046670   5.911   5.137   5.056 -0.4954 -2.7057  0.4967
  111MOL   H25146671   6.108   5.160   5.202 -0.5756  0.2875 -0.6807
  111MOL   H25246672   6.068   5.300   5.100  0.9312 -1.3801 -1.3559
  111MOL   H25346673   6.028   5.313   5.261 -1.5231  1.8214 -2.2239
  111MOL   C25446674   5.476   5.441   5.409 -0.8006  0.1949  0.1949
  111MOL   C25546675   5.322   5.462   5.395 -0.1995 -0.1212  0.0948
  111MOL   C25646676   5.279   5.590   5.468  0.4406  0.0541 -0.6743
  111MOL   C25746677   5.135   5.640   5.426  0.0865 -0.2896 -0.2952
  111MOL   C25846678   5.111   5.793   5.441 -0.0602 -0.0106 -0.5613
  111MOL   C25946679   5.146   5.847   5.578 -0.0785  1.2091  0.0525
  111MOL   C26046680   5.137   6.000   5.575 -0.4158 -0.0990 -0.2353
  111MOL   H26146681   5.497   5.463   5.514 -1.0317 -3.2818  1.0385
  111MOL   H26246682   5.495   5.336   5.388 -2.3780  0.2888 -1.7897
  111MOL   H26346683   5.299   5.471   5.289 -2.2293  2.0866  0.6886
  111MOL   H26446684   5.347   5.668   5.433  0.9785  1.1161  2.5542
  111MOL   H26546685   5.292   5.592   5.577 -4.0095 -1.1263 -0.0507
  111MOL   H26646686   5.115   5.628   5.319  0.0489  2.1470 -0.5981
  111MOL   H26746687   5.058   5.580   5.472  1.5562 -1.2578  0.9354
  111MOL   H26846688   5.008   5.813   5.412  0.0143 -0.2736 -1.0038
  111MOL   H26946689   5.183   5.837   5.372  2.5715 -3.3596 -0.1130
  111MOL   H27046690   5.073   5.799   5.643  0.8498  1.7911  1.5372
  111MOL   H27146691   5.245   5.816   5.609 -0.7018  0.3716  1.2500
  111MOL   H27246692   5.038   6.034   5.545 -0.9654 -0.2694  1.3059
  111MOL   H27346693   5.151   6.044   5.674  0.4963  0.1211 -0.4592
  111MOL   H27446694   5.207   6.047   5.506 -1.3751  1.7690  0.0352
  111MOL   C27546695   5.240   5.345   5.451 -0.5227 -0.1281 -0.1240
  111MOL   C27646696   5.254   5.202   5.390 -0.3825  0.0093  0.4741
  111MOL   C27746697   5.203   5.209   5.243  0.5442  0.0959 -0.0339
  111MOL   C27846698   5.260   5.087   5.164  0.1389  0.2817  0.4586
  111MOL   C27946699   5.408   5.096   5.135 -0.1102  0.0254  0.4514
  111MOL   C28046700   5.458   4.996   5.026  0.9251 -0.0925 -0.0849
  111MOL   C28146701   5.457   4.840   5.060  0.6077 -0.0482  0.8605
  111MOL   H28246702   5.134   5.369   5.442 -0.3515  1.5245  1.9525
  111MOL   H28346703   5.250   5.339   5.559  0.3042  1.6588 -0.0859
  111MOL   H28446704   5.361   5.186   5.401 -0.5564 -0.8182  1.0537
  111MOL   H28546705   5.096   5.191   5.247  0.1272  1.9149 -1.9909
  111MOL   H28646706   5.238   5.295   5.185  1.7464 -1.0649 -1.0562
  111MOL   H28746707   5.211   5.077   5.068 -2.1740 -1.8823  1.8211
  111MOL   H28846708   5.244   4.992   5.214 -0.3597 -0.9660 -1.9830
  111MOL   H28946709   5.468   5.080   5.224  1.7562  3.8492 -0.0302
  111MOL   H29046710   5.425   5.193   5.088 -1.2604  0.1509  0.2597
  111MOL   H29146711   5.402   5.011   4.934  0.7284 -0.1562  0.0243
  111MOL   H29246712   5.558   5.021   4.992  0.6132 -0.1445 -1.0485
  111MOL   H29346713   5.357   4.797   5.069  0.1591  0.4768 -1.2245
  111MOL   H29446714   5.514   4.804   5.145 -0.6724 -1.1272  1.2651
  111MOL   H29546715   5.512   4.790   4.980  1.1446 -1.2526  1.9595
  111MOL   C29646716   5.179   5.093   5.476  0.2891 -1.1337 -0.3818
  111MOL   C29746717   5.211   5.063   5.626 -0.1018 -0.4996  0.3771
  111MOL   C29846718   5.359   5.039   5.651 -0.8019 -0.6300 -0.3596
  111MOL   C29946719   5.422   4.931   5.565  0.5906  0.1418 -0.1633
  111MOL   C30046720   5.559   4.887   5.612  0.2117 -0.3030 -0.8028
  111MOL   C30146721   5.662   5.002   5.616 -0.2239 -0.1156  0.5415
  111MOL   C30246722   5.674   5.082   5.491 -0.2630 -0.3824 -0.7736
  111MOL   H30346723   5.072   5.109   5.465  0.5364  1.5145  0.7167
  111MOL   H30446724   5.195   5.001   5.421  0.6984 -1.7341  0.7268
  111MOL   H30546725   5.177   5.154   5.674 -0.0968 -0.3547  0.1054
  111MOL   H30646726   5.415   5.131   5.644  1.4847 -2.1677 -3.0346
  111MOL   H30746727   5.380   5.013   5.755 -2.4953  2.5253  0.8162
  111MOL   H30846728   5.434   4.962   5.462  0.8225 -0.9664 -0.4829
  111MOL   H30946729   5.365   4.838   5.563 -0.2184  0.5694  1.6898
  111MOL   H31046730   5.599   4.812   5.543  1.1031 -0.0922 -0.5143
  111MOL   H31146731   5.553   4.833   5.706  1.3557 -1.8305 -1.5705
  111MOL   H31246732   5.635   5.071   5.697 -2.2773 -0.6680  0.3570
  111MOL   H31346733   5.757   4.955   5.640 -0.3311  0.8901  3.0960
  111MOL   H31446734   5.649   5.022   5.404 -1.2531 -0.7937 -0.2182
  111MOL   H31546735   5.599   5.161   5.485 -2.2951 -2.1148  1.1355
  111MOL   H31646736   5.777   5.114   5.478 -0.9319  1.5033 -1.6155
  111MOL   C31746737   5.125   4.945   5.682  0.1262  0.2585 -0.8353
  111MOL   C31846738   4.980   4.986   5.717  0.1497 -0.3915  0.1049
  111MOL   C31946739   4.899   4.854   5.692 -0.5077  0.4521  0.0004
  111MOL   C32046740   4.745   4.876   5.709  0.1454  0.5393  0.3752
  111MOL   C32146741   4.688   4.734   5.696  0.3637 -0.4681  0.3437
  111MOL   C32246742   4.537   4.710   5.702 -0.6055 -0.1232 -0.0449
  111MOL   C32346743   4.463   4.743   5.830 -1.2215 -0.3599  0.5037
  111MOL   H32446744   5.176   4.922   5.776 -1.9620 -1.6468 -0.1337
  111MOL   H32546745   5.122   4.852   5.624 -3.0883  1.2079 -2.2847
  111MOL   H32646746   4.944   5.064   5.649  0.0452 -0.5311 -0.0010
  111MOL   H32746747   4.943   4.774   5.752  0.5230  0.8251 -0.2529
  111MOL   H32846748   4.919   4.826   5.589  1.1302 -1.2461  0.7545
  111MOL   H32946749   4.708   4.932   5.623  0.0739 -2.8393 -1.8778
  111MOL   H33046750   4.714   4.926   5.801  1.4370 -0.1658  1.2051
  111MOL   H33146751   4.742   4.667   5.761  2.1143 -1.6335 -2.2144
  111MOL   H33246752   4.733   4.701   5.602 -0.4446  1.5429 -0.7997
  111MOL   H33346753   4.520   4.604   5.682  0.3811 -1.0370  3.6513
  111MOL   H33446754   4.495   4.760   5.614  0.7610 -0.7810 -1.0886
  111MOL   H33546755   4.520   4.708   5.917 -0.3821 -2.2319 -0.7702
  111MOL   H33646756   4.357   4.721   5.821 -0.6360 -2.1283 -2.7879
  111MOL   H33746757   4.482   4.850   5.841  2.9055 -0.9794  0.2156
  111MOL   C33846758   4.958   5.037   5.868 -0.0488 -0.6688  0.4959
  111MOL   C33946759   5.040   5.153   5.922  0.4008 -0.1706 -0.2188
  111MOL   C34046760   5.036   5.152   6.078 -0.3187  0.1542  0.1468
  111MOL   C34146761   4.910   5.172   6.159 -0.1942  0.5979  0.1239
  111MOL   C34246762   4.933   5.166   6.309  0.5144 -0.4810  0.5467
  111MOL   C34346763   4.807   5.202   6.399 -0.7066  0.2301  0.4804
  111MOL   C34446764   4.828   5.226   6.550 -0.0835 -0.8289 -0.4041
  111MOL   H34546765   4.986   4.949   5.927  0.4200 -1.1769 -0.4618
  111MOL   H34646766   4.853   5.058   5.887 -0.4086 -1.2618 -0.7483
  111MOL   H34746767   5.145   5.156   5.893  0.5016  1.7209  0.2567
  111MOL   H34846768   5.091   5.063   6.109 -1.0161 -0.6068 -0.7625
  111MOL   H34946769   5.103   5.234   6.102  0.0790 -0.5052  1.3166
  111MOL   H35046770   4.825   5.114   6.124  0.2947  0.1045 -0.2601
  111MOL   H35146771   4.871   5.272   6.140  1.0712  1.0133 -0.3426
  111MOL   H35246772   4.974   5.068   6.337 -0.3814 -0.9830  0.1205
  111MOL   H35346773   5.016   5.233   6.328  0.3983 -0.8277  2.3322
  111MOL   H35446774   4.750   5.288   6.364 -2.4865 -1.6326 -1.3339
  111MOL   H35546775   4.734   5.123   6.380 -1.3443  1.4077 -2.2253
  111MOL   H35646776   4.872   5.132   6.583  0.5834  0.2012  1.6922
  111MOL   H35746777   4.731   5.226   6.598 -0.1203  2.2856 -0.3857
  111MOL   H35846778   4.895   5.312   6.561  1.3308 -2.1758  1.7868
  111MOL   C35946779   4.981   5.292   5.869  0.5632  0.1294 -0.4429
  111MOL   C36046780   5.069   5.413   5.901  0.6893 -0.2593 -0.3013
  111MOL   C36146781   5.219   5.410   5.851  0.4854 -0.4312  0.6253
  111MOL   C36246782   5.315   5.416   5.968  0.1306  0.2176 -0.1346
  111MOL   C36346783   5.461   5.385   5.929  0.5701  0.1779 -0.1871
  111MOL   C36446784   5.543   5.348   6.059  0.0010  0.1428  0.2131
  111MOL   C36546785   5.692   5.352   6.039  0.0274  0.1772  0.5270
  111MOL   H36646786   4.878   5.310   5.902  0.9143  0.0740  0.7146
  111MOL   H36746787   4.970   5.283   5.761 -0.3476  2.0124 -0.5320
  111MOL   H36846788   5.065   5.426   6.009  0.0071  0.2046 -0.3843
  111MOL   H36946789   5.236   5.317   5.796  0.5120 -0.5861  0.8953
  111MOL   H37046790   5.239   5.492   5.782  0.1189  0.4468  1.5603
  111MOL   H37146791   5.299   5.510   6.020  1.9043  0.4079  0.0978
  111MOL   H37246792   5.280   5.347   6.045  1.2870  0.8890  1.0131
  111MOL   H37346793   5.458   5.308   5.852  0.1750 -0.1757  0.1811
  111MOL   H37446794   5.519   5.461   5.877  1.7985  1.1890  2.5309
  111MOL   H37546795   5.517   5.416   6.140 -2.1111  1.0864 -1.1903
  111MOL   H37646796   5.513   5.256   6.109 -0.7113  0.2788  0.0453
  111MOL   H37746797   5.732   5.453   6.037  2.8092 -0.8829 -1.4935
  111MOL   H37846798   5.742   5.287   6.111 -1.5250 -3.7480 -1.7784
  111MOL   H37946799   5.726   5.316   5.941  0.4316 -0.7692  1.0018
  111MOL   C38046800   5.012   5.549   5.847 -0.0052  0.7353  0.0095
  111MOL   C38146801   4.869   5.591   5.899  0.0688 -0.1082  0.2375
  111MOL   C38246802   4.873   5.642   6.044 -0.0712  0.3089  0.2496
  111MOL   C38346803   4.767   5.579   6.132  0.5703  0.2210 -0.0124
  111MOL   C38446804   4.824   5.549   6.274  0.1544 -0.2971 -0.1095
  111MOL   C38546805   4.874   5.665   6.352 -0.2730  0.5813  0.3953
  111MOL   C38646806   4.885   5.622   6.495 -0.2890  0.3913 -0.0856
  111MOL   H38746807   5.085   5.623   5.882  0.0413  0.7299 -0.0772
  111MOL   H38846808   5.000   5.547   5.739  0.9348  0.5324 -0.1030
  111MOL   H38946809   4.814   5.497   5.895  5.0255 -3.1880 -0.7454
  111MOL   H39046810   4.877   5.750   6.055  0.7188  0.5231 -1.9265
  111MOL   H39146811   4.970   5.608   6.078 -0.8000 -0.7861  1.2873
  111MOL   H39246812   4.673   5.634   6.143  0.4216 -0.2071  0.9425
  111MOL   H39346813   4.741   5.481   6.093  2.1255  1.1020 -3.4332
  111MOL   H39446814   4.746   5.502   6.334 -1.5637  0.8056 -1.4233
  111MOL   H39546815   4.898   5.470   6.259 -1.7176 -2.2870  0.7569
  111MOL   H39646816   4.816   5.756   6.340 -0.1438  0.3870 -1.9843
  111MOL   H39746817   4.968   5.691   6.303 -0.1417 -1.6099 -0.5865
  111MOL   H39846818   4.939   5.527   6.497  1.4486  1.3662  0.9289
  111MOL   H39946819   4.787   5.609   6.541 -0.3173 -1.0517 -0.5297
  111MOL   H40046820   4.948   5.678   6.564  0.3610 -1.3133  0.7403
  111MOL   C40146821   4.791   5.690   5.808  0.1949  0.0436 -0.2341
  111MOL   C40246822   4.738   5.644   5.669  0.5388 -0.2839 -0.4030
  111MOL   C40346823   4.687   5.764   5.581 -0.4061 -0.9629  0.0405
  111MOL   C40446824   4.603   5.735   5.461 -0.1798 -0.5180 -0.1674
  111MOL   C40546825   4.524   5.858   5.398 -0.0817  0.0549  0.5001
  111MOL   C40646826   4.607   5.969   5.326  0.1434  0.1037  0.5676
  111MOL   C40746827   4.718   5.915   5.237  0.0415 -0.3341 -0.0914
  111MOL   H40846828   4.854   5.778   5.794  2.7633 -1.6979  0.0488
  111MOL   H40946829   4.708   5.723   5.870  2.5943  1.6463  2.2388
  111MOL   H41046830   4.661   5.567   5.677 -3.2836  3.5572  2.2557
  111MOL   H41146831   4.770   5.829   5.555 -1.8982  1.3290  0.7721
  111MOL   H41246832   4.619   5.818   5.648 -1.0572 -0.9614 -0.6141
  111MOL   H41346833   4.520   5.682   5.506 -1.3273  0.9123 -0.5534
  111MOL   H41446834   4.652   5.679   5.382  1.8922  0.4585  0.3817
  111MOL   H41546835   4.464   5.808   5.322 -1.3916  0.2527  1.3800
  111MOL   H41646836   4.459   5.915   5.465 -0.3432 -0.9835  1.1458
  111MOL   H41746837   4.547   6.039   5.269 -0.8505 -1.5407 -0.4442
  111MOL   H41846838   4.660   6.018   5.408 -1.6058  2.5569  0.2758
  111MOL   H41946839   4.783   5.864   5.309  0.6028  0.5225  0.0047
  111MOL   H42046840   4.788   5.990   5.200  0.9927 -0.6567  1.0138
  111MOL   H42146841   4.678   5.849   5.160  3.2136 -3.5073  0.8647
  111MOL   H42246842   4.823   5.604   5.615 -1.0608 -0.3427 -2.9970
  112MOL     C146843   5.502   0.219   6.168 -0.3178  0.9574  0.2692
  112MOL     C246844   5.388   0.132   6.115 -0.2541  0.3011  0.4974
  112MOL     C346845   5.434   7.699   6.083 -0.1504  0.0964 -0.4576
  112MOL     C446846   5.459   7.619   6.209 -0.1967  0.6927 -0.1659
  112MOL     C546847   5.494   7.466   6.178  0.5763 -0.2623 -0.2772
  112MOL     C646848   5.491   7.375   6.304  0.0331 -0.1215 -0.4253
  112MOL     C746849   5.580   7.245   6.284  0.5134 -0.6264  0.3826
  112MOL     H846850   5.580   0.233   6.094 -0.0212  1.6233  0.7023
  112MOL     H946851   5.550   0.177   6.256 -0.8635  4.2939  2.2327
  112MOL    H1046852   5.303   0.126   6.183 -0.8827  0.6483 -0.2509
  112MOL    H1146853   5.362   7.644   6.022 -0.3062 -0.0768 -0.1243
  112MOL    H1246854   5.526   7.684   6.026  1.6689 -2.1238  2.8929
  112MOL    H1346855   5.539   7.656   6.272 -1.3716  1.9571  0.6081
  112MOL    H1446856   5.379   7.616   6.282 -0.1893 -1.3197 -0.2165
  112MOL    H1546857   5.586   7.466   6.119  0.7841 -0.6229  0.0472
  112MOL    H1646858   5.414   7.424   6.117 -0.2086 -0.7955  1.1118
  112MOL    H1746859   5.390   7.352   6.337 -0.2243  3.0313  1.1529
  112MOL    H1846860   5.534   7.436   6.384 -0.1358  0.2294 -0.6030
  112MOL    H1946861   5.688   7.262   6.278  0.9161 -2.7364  1.1464
  112MOL    H2046862   5.550   7.180   6.201 -1.9824  0.0559  0.7128
  112MOL    H2146863   5.570   7.179   6.369 -3.4682  0.0512  0.5159
  112MOL    H2246864   5.461   0.316   6.196 -0.6637  0.9138 -0.0832
  112MOL    C2346865   5.328   0.193   5.985  0.3183 -0.5214 -0.7490
  112MOL    C2446866   5.184   0.151   5.964  0.0110  0.2876 -0.1880
  112MOL    C2546867   5.137   0.172   5.817  0.2919 -0.2691 -0.1811
  112MOL    C2646868   5.193   0.068   5.714  0.1111  0.0684  0.5079
  112MOL    C2746869   5.132   0.065   5.571 -0.2219 -0.5810  0.2367
  112MOL    C2846870   5.198   7.679   5.474  1.0100 -0.2450 -0.1434
  112MOL    C2946871   5.128   7.542   5.481  0.2740  0.2574  0.4897
  112MOL    H3046872   5.333   0.299   6.010 -0.8063 -0.7629  0.5529
  112MOL    H3146873   5.397   0.190   5.901  1.2830  0.8376 -0.0295
  112MOL    H3246874   5.180   0.043   5.981 -0.6241  0.3320 -0.0367
  112MOL    H3346875   5.145   0.273   5.778  0.2758  0.4319  1.6143
  112MOL    H3446876   5.030   0.152   5.809  0.1516  0.4168 -0.0462
  112MOL    H3546877   5.192   7.677   5.744 -0.0679 -0.7943 -2.3462
  112MOL    H3646878   5.298   0.096   5.698 -0.3651  0.9016 -1.3167
  112MOL    H3746879   5.151   0.166   5.534 -0.9730 -1.5682 -2.9392
  112MOL    H3846880   5.027   0.054   5.599  0.1369 -0.0338  1.8578
  112MOL    H3946881   5.306   7.671   5.474  1.0302 -0.0698 -0.9678
  112MOL    H4046882   5.191   0.016   5.377 -1.6247 -1.6777 -0.7330
  112MOL    H4146883   5.020   7.555   5.473  0.6003  2.0436 -1.3717
  112MOL    H4246884   5.164   7.481   5.399 -0.9932  1.6073 -1.1107
  112MOL    H4346885   5.149   7.490   5.575 -0.8162  1.2469  1.2957
  112MOL    C4446886   5.093   0.229   6.068  0.6562 -0.1347 -0.8118
  112MOL    C4546887   4.942   0.177   6.059 -0.0267 -0.6538 -0.1193
  112MOL    C4646888   4.928   0.023   6.046  0.0772 -0.4008 -0.8306
  112MOL    C4746889   4.980   7.652   6.163 -0.0942  0.4907  0.5556
  112MOL    C4846890   4.969   7.498   6.133  0.3465  0.5883  0.9598
  112MOL    C4946891   5.018   7.410   6.246  0.5402  0.1064 -0.4275
  112MOL    C5046892   5.015   7.255   6.228 -0.1714 -0.5374  0.2010
  112MOL    H5146893   5.112   0.330   6.032  0.4368 -0.2698 -1.3124
  112MOL    H5246894   5.126   0.221   6.171 -0.8518  0.3023 -0.2749
  112MOL    H5346895   4.906   0.226   5.969  0.0542  0.0936  0.2559
  112MOL    H5446896   4.966   7.687   5.957  0.5885 -2.2764  0.4122
  112MOL    H5546897   4.820   0.012   6.056 -0.0215 -1.1698 -2.5395
  112MOL    H5646898   5.080   7.684   6.194  0.0006 -0.6126  1.4150
  112MOL    H5746899   4.913   7.680   6.245  0.4274  3.0334  0.1724
  112MOL    H5846900   5.026   7.477   6.042 -1.5106  2.0701 -0.5995
  112MOL    H5946901   4.869   7.478   6.094  0.8191  0.3248 -0.1316
  112MOL    H6046902   4.961   7.441   6.334  0.4645 -0.4495 -0.2807
  112MOL    H6146903   5.119   7.438   6.277  0.4968  1.5154 -1.5019
  112MOL    H6246904   5.080   7.209   6.154  0.0249 -1.7895  1.1293
  112MOL    H6346905   4.923   7.218   6.184  0.0553 -0.3633 -0.4379
  112MOL    H6446906   5.036   7.207   6.324 -0.0670 -0.0820  0.4080
  112MOL    C6546907   4.852   0.235   6.174  0.0019 -0.1790 -0.3260
  112MOL    C6646908   4.827   0.390   6.159  0.7719 -0.1698  0.2941
  112MOL    C6746909   4.830   0.454   6.295  0.0197 -0.1138  0.0929
  112MOL    C6846910   4.916   0.577   6.321  0.0815  0.3890  0.4001
  112MOL    C6946911   5.065   0.556   6.318 -0.1958 -0.1639  0.4138
  112MOL    C7046912   5.104   0.438   6.406 -0.2308  0.3059 -0.7238
  112MOL    C7146913   5.254   0.407   6.397 -0.1082  0.2732 -0.0207
  112MOL    H7246914   4.753   0.192   6.191  0.7370 -2.5710 -1.8535
  112MOL    H7346915   4.892   0.211   6.272 -2.8801 -0.4500  0.8286
  112MOL    H7446916   4.918   0.417   6.104  0.3219 -0.8735 -0.8098
  112MOL    H7546917   4.730   0.490   6.319  0.8817 -0.5217  4.7606
  112MOL    H7646918   4.845   0.385   6.378  1.1713 -0.7956 -0.6811
  112MOL    H7746919   4.907   0.652   6.243  0.4838 -3.1825 -3.2221
  112MOL    H7846920   4.893   0.622   6.418 -0.8228 -2.7132  1.6922
  112MOL    H7946921   5.088   0.533   6.214  0.4752  0.6186  0.3779
  112MOL    H8046922   5.115   0.650   6.343 -1.5417  0.8844 -0.7342
  112MOL    H8146923   5.048   0.350   6.376 -1.2048  1.3958 -2.1836
  112MOL    H8246924   5.070   0.455   6.508 -1.4915  4.1289 -1.7033
  112MOL    H8346925   5.310   0.496   6.424  0.6566 -0.1612 -0.1637
  112MOL    H8446926   5.291   0.330   6.464  1.6080 -0.7966 -2.1310
  112MOL    H8546927   5.281   0.386   6.293  0.1196  3.7622 -0.7378
  112MOL    C8646928   4.700   0.420   6.070 -0.5800 -0.6221  0.2938
  112MOL    C8746929   4.701   0.559   5.997 -0.1859  0.2876 -0.0253
  112MOL    C8846930   4.805   0.562   5.879 -0.2329 -0.4322 -0.2182
  112MOL    C8946931   4.761   0.487   5.754  0.6165  0.7143  0.4391
  112MOL    C9046932   4.863   0.491   5.638  0.3945  1.1050  0.0418
  112MOL    C9146933   4.820   0.400   5.522  0.0735 -0.1122 -0.8042
  112MOL    C9246934   4.926   0.386   5.405 -0.6659  0.0401 -0.4037
  112MOL    H9346935   4.695   0.348   5.989 -1.5392  0.4680 -0.6373
  112MOL    H9446936   4.607   0.409   6.126  0.5726 -0.7048  2.2454
  112MOL    H9546937   4.736   0.632   6.069  0.9129 -1.6594  1.4618
  112MOL    H9646938   4.813   0.663   5.839 -1.3833 -0.9075 -1.6964
  112MOL    H9746939   4.908   0.542   5.910 -0.7188  0.1158  1.7929
  112MOL    H9846940   4.748   0.380   5.775  2.5471  0.2684 -0.5315
  112MOL    H9946941   4.665   0.520   5.715  0.9043 -0.5436 -1.3861
  112MOL   H10046942   4.962   0.458   5.669 -0.4624 -2.4748 -0.8268
  112MOL   H10146943   4.861   0.596   5.605 -1.3127  0.7641 -1.0192
  112MOL   H10246944   4.815   0.297   5.558  0.1536  0.1612  0.0051
  112MOL   H10346945   4.727   0.446   5.490  0.7530  1.2050 -0.9366
  112MOL   H10446946   4.888   0.306   5.343 -0.7078 -0.9266  0.8581
  112MOL   H10546947   5.024   0.365   5.448 -0.2303  2.2794 -0.2037
  112MOL   H10646948   4.936   0.482   5.354  2.2267  1.0256  1.8669
  112MOL   C10746949   4.556   0.604   5.951  0.5552 -0.3057  0.4473
  112MOL   C10846950   4.469   0.684   6.053 -0.3995  0.3924 -0.0117
  112MOL   C10946951   4.530   0.821   6.094  0.2794  0.5234 -0.1010
  112MOL   C11046952   4.513   0.927   5.977 -0.3719 -0.7138 -0.5975
  112MOL   C11146953   4.642   1.023   5.960 -1.1009  0.1655  0.6760
  112MOL   C11246954   4.650   1.144   6.054  0.6743 -0.3703 -0.7961
  112MOL   C11346955   4.768   1.233   6.038  0.1465  0.0589  0.0201
  112MOL   H11446956   4.504   0.511   5.928 -0.9484  0.4941  0.5758
  112MOL   H11546957   4.559   0.654   5.855  2.0057  1.6813  1.4993
  112MOL   H11646958   4.471   0.617   6.139 -1.3059  0.5726  0.1477
  112MOL   H11746959   4.637   0.806   6.110  0.1596  0.4652  0.6734
  112MOL   H11846960   4.499   0.859   6.191  1.5184 -1.3130  1.0691
  112MOL   H11946961   4.490   0.880   5.882 -0.9404 -1.3012 -0.1789
  112MOL   H12046962   4.432   0.994   6.004  0.8005  0.4150  0.2051
  112MOL   H12146963   4.642   1.067   5.861 -1.9003  3.3217  2.0133
  112MOL   H12246964   4.732   0.961   5.957 -1.9807 -1.0963 -0.1984
  112MOL   H12346965   4.554   1.193   6.038  0.5165 -1.1333 -2.2004
  112MOL   H12446966   4.640   1.109   6.157 -2.3705 -0.1764 -0.9783
  112MOL   H12546967   4.786   1.269   5.936 -0.6265 -0.8505 -0.4526
  112MOL   H12646968   4.768   1.322   6.100 -0.2094 -1.0043  1.5843
  112MOL   H12746969   4.860   1.184   6.069 -0.0401  0.7240  1.6514
  112MOL   C12846970   4.328   0.686   6.003 -0.5000 -0.4161  0.1194
  112MOL   C12946971   4.222   0.756   6.089  0.4263 -0.3788  0.4217
  112MOL   C13046972   4.179   0.653   6.198  0.5178 -0.3133  0.7732
  112MOL   C13146973   4.109   0.715   6.314 -0.0448 -0.0150 -0.7408
  112MOL   C13246974   4.053   0.605   6.404 -0.3893  0.0793 -0.3556
  112MOL   C13346975   3.956   0.669   6.512 -0.5870 -0.1805  0.4159
  112MOL   C13446976   3.847   0.565   6.557 -0.1034 -0.0754 -0.5017
  112MOL   H13546977   4.324   0.728   5.902  0.2131 -1.0062 -0.1574
  112MOL   H13646978   4.286   0.587   5.987 -3.7844  0.7524  1.1686
  112MOL   H13746979   4.265   0.848   6.129 -0.5364  2.2115 -4.0858
  112MOL   H13846980   4.268   0.600   6.230  0.9611 -1.0846 -1.6033
  112MOL   H13946981   4.117   0.581   6.145  0.3032 -0.3689  1.1019
  112MOL   H14046982   4.025   0.771   6.272 -0.0309  0.7590  0.2489
  112MOL   H14146983   4.168   0.785   6.372 -0.9233 -1.6775  2.2536
  112MOL   H14246984   4.135   0.553   6.453  0.1341  0.1951 -1.0893
  112MOL   H14346985   3.993   0.530   6.352  1.2588 -1.7085  0.3030
  112MOL   H14446986   3.900   0.758   6.485 -1.1832 -0.7190 -0.1273
  112MOL   H14546987   4.032   0.689   6.588  0.7113  0.7491 -1.0854
  112MOL   H14646988   3.895   0.477   6.599  1.3495  1.4409  1.1099
  112MOL   H14746989   3.780   0.533   6.477  0.2160  0.5985 -1.0519
  112MOL   H14846990   3.780   0.604   6.633  0.5262 -1.3816  0.7426
  112MOL   C14946991   4.105   0.798   5.998 -0.2199  0.2413 -0.0122
  112MOL   C15046992   4.123   0.945   5.959  0.4314  0.3482 -0.0891
  112MOL   C15146993   4.075   1.036   6.069 -0.4008  0.8252 -0.0109
  112MOL   C15246994   3.928   1.050   6.074 -0.6456  0.5143 -0.2720
  112MOL   C15346995   3.881   1.126   6.204 -0.4090 -0.0955 -0.5468
  112MOL   C15446996   3.727   1.147   6.205  0.2688  0.2240 -0.1159
  112MOL   C15546997   3.669   1.040   6.299  0.3684 -0.1276  0.1574
  112MOL   H15646998   4.101   0.733   5.911  2.9999  0.5880 -0.4904
  112MOL   H15746999   4.012   0.775   6.050 -0.1964  0.7857  0.2760
  112MOL   H15847000   4.230   0.958   5.945  0.5051 -0.2365 -0.0910
  112MOL   H15947001   4.103   1.000   6.168  0.2151  0.0072 -0.4781
  112MOL   H16047002   4.122   1.134   6.056  1.1861 -0.1841 -2.2769
  112MOL   H16147003   3.887   0.949   6.075  1.5458 -0.3909  0.8830
  112MOL   H16247004   3.884   1.099   5.987 -0.6242 -2.3103 -1.9180
  112MOL   H16347005   3.924   1.226   6.199  1.1747 -0.6760  0.8788
  112MOL   H16447006   3.920   1.074   6.292 -0.4735  0.4997 -0.1703
  112MOL   H16547007   3.689   1.144   6.103 -0.6576  0.2711  0.2260
  112MOL   H16647008   3.693   1.239   6.254 -1.4361 -0.0577 -0.7420
  112MOL   H16747009   3.729   1.042   6.390  0.9966  2.4959 -0.2635
  112MOL   H16847010   3.687   0.944   6.250  1.0942 -0.0204  0.2048
  112MOL   H16947011   3.560   1.040   6.304  0.3272  3.2835  0.6588
  112MOL   C17047012   4.075   0.973   5.815  0.4620 -0.4116 -0.0864
  112MOL   C17147013   4.130   1.108   5.754 -0.1008  0.5699  0.2280
  112MOL   C17247014   4.272   1.089   5.703 -0.5619 -0.0620 -0.0396
  112MOL   C17347015   4.368   1.214   5.706  0.1059  1.0704  0.7870
  112MOL   C17447016   4.506   1.185   5.637  0.9840  0.3754 -0.0609
  112MOL   C17547017   4.599   1.307   5.652 -0.1960  0.3705  0.3262
  112MOL   C17647018   4.732   1.294   5.566  0.3416  0.4839  0.5073
  112MOL   H17747019   3.967   0.957   5.810  0.3844 -0.1309  0.5632
  112MOL   H17847020   4.113   0.895   5.750  0.0392  1.3325 -2.4764
  112MOL   H17947021   4.138   1.184   5.833  2.4744  1.0463 -0.4542
  112MOL   H18047022   4.260   1.054   5.600 -1.4020 -1.1515  0.4163
  112MOL   H18147023   4.328   1.002   5.740 -0.9628 -0.9936 -1.5860
  112MOL   H18247024   4.382   1.240   5.811  2.6013  1.4652  0.4051
  112MOL   H18347025   4.314   1.292   5.652  0.8401  0.9521 -0.1337
  112MOL   H18447026   4.494   1.168   5.530  1.1770 -0.4601  0.0491
  112MOL   H18547027   4.541   1.092   5.681  0.7620  0.5507  0.4969
  112MOL   H18647028   4.630   1.321   5.756  0.9245  0.6684 -0.0349
  112MOL   H18747029   4.532   1.386   5.619 -0.8993  0.7924  2.6260
  112MOL   H18847030   4.813   1.232   5.605  1.6319  2.7375  1.5281
  112MOL   H18947031   4.786   1.388   5.560  0.6580  0.3060  0.5602
  112MOL   H19047032   4.726   1.256   5.464  0.9971 -0.1229  0.6928
  112MOL   C19147033   4.035   1.177   5.647 -0.2504 -0.5609 -0.7881
  112MOL   C19247034   3.900   1.225   5.709  0.5771 -0.1289 -0.0965
  112MOL   C19347035   3.929   1.365   5.782 -0.8695 -0.0403  0.4038
  112MOL   C19447036   3.822   1.411   5.880  0.8540 -0.2230  0.1285
  112MOL   C19547037   3.873   1.497   6.000  0.3589 -0.4009  0.0848
  112MOL   C19647038   3.756   1.560   6.074 -0.3604 -0.3920  0.2330
  112MOL   C19747039   3.795   1.666   6.173 -0.5963  0.4561  0.6701
  112MOL   H19847040   4.016   1.102   5.570  0.1375 -0.3416 -1.0968
  112MOL   H19947041   4.102   1.250   5.603 -1.2799 -0.0119 -1.4582
  112MOL   H20047042   3.854   1.151   5.775  0.7368 -2.2854 -2.3416
  112MOL   H20147043   3.932   1.442   5.705 -0.9715 -0.1515  0.2870
  112MOL   H20247044   4.028   1.376   5.826  0.3727 -2.2838 -1.6881
  112MOL   H20347045   3.778   1.320   5.921 -0.4427 -0.2481 -1.2778
  112MOL   H20447046   3.736   1.453   5.829  2.1965 -1.6738 -3.5243
  112MOL   H20547047   3.936   1.433   6.062  0.6399 -0.8108 -0.6190
  112MOL   H20647048   3.925   1.586   5.965 -1.2292  1.7666  2.9620
  112MOL   H20747049   3.698   1.485   6.128 -0.3497 -0.6852 -0.1622
  112MOL   H20847050   3.683   1.616   6.016 -1.8122 -0.9273  1.5107
  112MOL   H20947051   3.722   1.669   6.254 -0.0255  0.4900  1.1886
  112MOL   H21047052   3.797   1.760   6.118  0.6068  0.2352  0.3362
  112MOL   H21147053   3.891   1.649   6.222 -0.0543  1.9566  0.1806
  112MOL   C21247054   3.793   1.242   5.592 -0.3777  0.7303  0.1667
  112MOL   C21347055   3.729   1.109   5.544 -0.5716 -0.4630  0.5923
  112MOL   C21447056   3.683   1.011   5.656 -0.0362  0.1696  0.0627
  112MOL   C21547057   3.579   1.075   5.753 -0.2913  0.1941 -0.1280
  112MOL   C21647058   3.554   1.004   5.889  0.2203 -0.8106  0.1325
  112MOL   C21747059   3.463   1.087   5.977 -0.0426 -0.0116  0.4880
  112MOL   C21847060   3.320   1.088   5.928  0.3468 -0.1434 -0.7033
  112MOL   H21947061   3.843   1.293   5.509 -0.6847 -2.1974 -1.9095
  112MOL   H22047062   3.728   1.315   5.641 -0.5399 -0.1091  1.2038
  112MOL   H22147063   3.816   1.061   5.498  0.3152  0.4364  1.3350
  112MOL   H22247064   3.633   0.927   5.608  3.6022 -1.9097 -0.2088
  112MOL   H22347065   3.773   0.976   5.705  0.1456  0.9200  0.2713
  112MOL   H22447066   3.483   1.070   5.700 -0.7428 -1.0867  0.7731
  112MOL   H22547067   3.599   1.179   5.774 -0.8743  0.5761 -1.4102
  112MOL   H22647068   3.512   0.906   5.868  2.3926 -1.9278  0.8094
  112MOL   H22747069   3.648   0.992   5.944 -0.2163  1.3311  1.4049
  112MOL   H22847070   3.471   1.044   6.077 -0.4783  1.0720  1.0031
  112MOL   H22947071   3.502   1.189   5.973 -0.4299  0.0881 -0.9755
  112MOL   H23047072   3.297   0.993   5.880  4.3050 -1.2407 -0.5900
  112MOL   H23147073   3.313   1.172   5.858 -0.8973  1.4425  1.2683
  112MOL   H23247074   3.248   1.116   6.006  0.6520  0.0066 -0.4758
  112MOL   C23347075   3.600   1.131   5.450 -0.1292 -0.5667  0.3724
  112MOL   C23447076   3.620   1.181   5.306 -0.2783 -0.3340 -0.0738
  112MOL   C23547077   3.649   1.079   5.192  0.3536  0.1915  0.4364
  112MOL   C23647078   3.765   0.976   5.212  0.4002  0.0659  0.3056
  112MOL   C23747079   3.733   0.855   5.292  0.3840  0.3351 -0.2294
  112MOL   C23847080   3.857   0.777   5.333 -0.1684 -0.1408 -0.1897
  112MOL   C23947081   3.828   0.648   5.405  0.8500  0.2508  0.2877
  112MOL   H24047082   3.529   1.184   5.513  0.0036 -0.7266  0.6570
  112MOL   H24147083   3.550   1.034   5.443 -0.4180 -0.5135  1.5287
  112MOL   H24247084   3.708   1.243   5.321  0.6880 -1.8334  0.6733
  112MOL   H24347085   3.672   1.135   5.101  0.3754 -2.3766 -1.1798
  112MOL   H24447086   3.559   1.024   5.166  0.9996  0.2956 -2.0860
  112MOL   H24547087   3.849   1.030   5.254 -0.6010  2.2102 -0.3637
  112MOL   H24647088   3.794   0.943   5.112  0.2400  2.7674 -0.7023
  112MOL   H24747089   3.654   0.793   5.249  0.2173  0.2781  0.1530
  112MOL   H24847090   3.682   0.879   5.386 -0.4997  0.8741 -0.8397
  112MOL   H24947091   3.907   0.741   5.242  0.6984  0.3449  0.0906
  112MOL   H25047092   3.919   0.841   5.396  0.0640 -0.3955 -0.1550
  112MOL   H25147093   3.759   0.661   5.488  2.4792  1.2662  1.5375
  112MOL   H25247094   3.779   0.573   5.343  1.7726 -1.1604  1.2466
  112MOL   H25347095   3.916   0.596   5.445  0.9467  0.2099  0.0232
  112MOL   C25447096   3.507   1.274   5.257 -0.0636 -0.1616  0.4038
  112MOL   C25547097   3.477   1.412   5.339  0.9561 -0.0438 -0.3685
  112MOL   C25647098   3.326   1.440   5.357  0.1973 -0.2988  0.1589
  112MOL   C25747099   3.262   1.338   5.461  0.1934  0.4136  0.2890
  112MOL   C25847100   3.121   1.392   5.519 -1.0306 -0.4001 -0.3584
  112MOL   C25947101   3.037   1.276   5.574 -0.1755 -0.1388 -0.5125
  112MOL   C26047102   2.904   1.319   5.623  0.3326 -0.7749  0.3328
  112MOL   H26147103   3.413   1.220   5.249 -0.4674  0.6026 -0.1791
  112MOL   H26247104   3.528   1.301   5.153 -0.8530  0.3275  0.3656
  112MOL   H26347105   3.514   1.401   5.441 -1.4030 -1.6541  0.3539
  112MOL   H26447106   3.275   1.429   5.261 -0.3409  0.9336  0.2918
  112MOL   H26547107   3.309   1.536   5.406  2.4579 -0.6853  1.7696
  112MOL   H26647108   3.253   1.235   5.428  1.3276 -0.4018  2.4152
  112MOL   H26747109   3.339   1.329   5.538 -0.2479  0.0380  0.6880
  112MOL   H26847110   3.076   1.458   5.445  1.3255  0.3783 -1.1348
  112MOL   H26947111   3.151   1.465   5.595 -1.5008 -1.3231  0.7318
  112MOL   H27047112   3.014   1.206   5.493  0.1677 -0.6671 -0.1542
  112MOL   H27147113   3.089   1.219   5.651 -0.7839  1.5125  1.1641
  112MOL   H27247114   2.910   1.391   5.705  1.2176 -1.8818  1.2650
  112MOL   H27347115   2.843   1.370   5.549 -1.5178  0.1914  2.4829
  112MOL   H27447116   2.841   1.237   5.657 -0.4358 -0.5799 -0.6015
  112MOL   C27547117   3.531   1.543   5.272 -0.1328 -0.2228  0.5848
  112MOL   C27647118   3.683   1.554   5.270  0.4086 -0.7813  0.5668
  112MOL   C27747119   3.727   1.690   5.337  0.3430 -0.3390  1.2537
  112MOL   C27847120   3.719   1.678   5.488  0.1137  0.1963  0.2643
  112MOL   C27947121   3.780   1.795   5.570  0.0086 -0.4582  0.3234
  112MOL   C28047122   3.781   1.787   5.724 -0.0858 -0.2113  0.0284
  112MOL   C28147123   3.841   1.911   5.783  0.2462  0.6227  0.4185
  112MOL   H28247124   3.480   1.627   5.318 -1.3550 -0.6119 -0.0267
  112MOL   H28347125   3.488   1.536   5.171 -3.1558 -1.4867  1.8936
  112MOL   H28447126   3.711   1.472   5.335 -0.5430 -1.3582  0.2750
  112MOL   H28547127   3.829   1.714   5.309 -0.1798 -0.8508 -1.1552
  112MOL   H28647128   3.672   1.774   5.294  2.5795  0.4003 -0.2006
  112MOL   H28747129   3.777   1.590   5.515 -1.6155 -1.1931 -0.4555
  112MOL   H28847130   3.621   1.657   5.531 -0.1621  0.1760 -0.3792
  112MOL   H28947131   3.710   1.877   5.554  0.3885 -0.1663  0.1663
  112MOL   H29047132   3.877   1.820   5.528 -0.8724  0.0216 -1.4625
  112MOL   H29147133   3.681   1.767   5.762 -0.7178  0.5054 -1.2468
  112MOL   H29247134   3.833   1.695   5.749  2.5134  0.7903 -1.4984
  112MOL   H29347135   3.877   1.894   5.884  0.9993 -2.5121 -0.3302
  112MOL   H29447136   3.770   1.994   5.779 -0.3768  0.1482  1.4218
  112MOL   H29547137   3.923   1.951   5.724  0.3181 -0.3076 -0.1057
  112MOL   C29647138   3.750   1.539   5.127  0.5115 -0.7048 -0.7051
  112MOL   C29747139   3.902   1.522   5.132 -0.2223  0.1013 -1.1070
  112MOL   C29847140   3.949   1.514   4.990 -0.2403 -0.5123  0.4193
  112MOL   C29947141   3.971   1.650   4.918 -0.2277  0.0834 -0.1018
  112MOL   C30047142   4.003   1.636   4.773  0.7014  0.3375  0.4116
  112MOL   C30147143   3.865   1.645   4.699 -0.6097 -0.2507 -0.1915
  112MOL   C30247144   3.889   1.639   4.547 -0.3830  0.4869  0.6542
  112MOL   H30347145   3.712   1.443   5.092 -0.3397 -0.1968 -1.1958
  112MOL   H30447146   3.726   1.624   5.063  1.6083  1.0768  1.2150
  112MOL   H30547147   3.954   1.607   5.174 -0.8709 -0.1640  0.2809
  112MOL   H30647148   4.043   1.460   4.985  0.3385  0.3500  1.9256
  112MOL   H30747149   3.879   1.452   4.934  1.8962 -2.2219 -0.4409
  112MOL   H30847150   4.047   1.711   4.967 -3.3498  2.9505  1.3248
  112MOL   H30947151   3.884   1.712   4.939  0.5244  1.2303 -0.2872
  112MOL   H31047152   4.051   1.542   4.743  0.7731 -0.0200  1.6103
  112MOL   H31147153   4.069   1.708   4.725  0.4821 -0.4749 -1.1433
  112MOL   H31247154   3.788   1.582   4.743 -1.8455  1.9331  0.8541
  112MOL   H31347155   3.824   1.745   4.713 -2.9164 -1.3008  0.7175
  112MOL   H31447156   3.796   1.615   4.495  0.5883  0.6828 -1.2123
  112MOL   H31547157   3.925   1.735   4.510  0.9261 -0.2097  0.1047
  112MOL   H31647158   3.968   1.573   4.510 -2.2411 -0.2942 -2.0505
  112MOL   C31747159   3.959   1.395   5.202 -0.0251 -0.2786  0.7796
  112MOL   C31847160   4.100   1.403   5.268 -0.0308 -0.3071  0.2929
  112MOL   C31947161   4.088   1.481   5.400 -0.5221  0.0062 -0.2882
  112MOL   C32047162   4.219   1.534   5.449 -0.4849  0.2682  0.0690
  112MOL   C32147163   4.213   1.577   5.595  0.5538 -0.9791  0.0586
  112MOL   C32247164   4.123   1.703   5.624 -0.0766  0.8916  0.5031
  112MOL   C32347165   4.150   1.774   5.762 -0.1351  0.2987 -0.2558
  112MOL   H32447166   3.943   1.307   5.140  0.8748  1.0430 -1.3610
  112MOL   H32547167   3.889   1.389   5.285 -0.4572 -2.8021  0.2834
  112MOL   H32647168   4.165   1.456   5.197  0.7667 -1.7525 -0.0737
  112MOL   H32747169   4.041   1.420   5.477 -0.8656  0.3637 -0.2168
  112MOL   H32847170   4.020   1.566   5.396 -1.1808 -0.5543 -1.4049
  112MOL   H32947171   4.229   1.626   5.391  1.4364  0.5183  0.7734
  112MOL   H33047172   4.304   1.469   5.428 -1.7523 -1.0095 -1.2900
  112MOL   H33147173   4.316   1.598   5.625  0.0276 -0.0234  1.2551
  112MOL   H33247174   4.199   1.486   5.654 -0.2775 -0.4368  0.7028
  112MOL   H33347175   4.021   1.665   5.621  0.6405 -0.9707 -0.5927
  112MOL   H33447176   4.131   1.778   5.545 -0.3247  0.8211  0.4108
  112MOL   H33547177   4.065   1.768   5.830  0.3474  1.7210  0.4916
  112MOL   H33647178   4.171   1.880   5.754 -3.4465  0.9823 -0.4679
  112MOL   H33747179   4.234   1.731   5.818 -0.4734  0.5988  0.4971
  112MOL   C33847180   4.167   1.266   5.289 -0.2490  0.1771  0.5696
  112MOL   C33947181   4.210   1.194   5.156 -0.2639 -0.1287  0.3900
  112MOL   C34047182   4.155   1.053   5.148  0.7402  0.2096  0.4366
  112MOL   C34147183   4.221   0.959   5.045  0.8346  0.7009  0.2358
  112MOL   C34247184   4.138   0.827   5.040  0.0868  0.1371 -0.3282
  112MOL   C34347185   4.216   0.710   4.986  0.7352 -0.3544 -0.7794
  112MOL   C34447186   4.233   0.713   4.830 -0.2893  0.3131 -0.6670
  112MOL   H34547187   4.094   1.215   5.352 -0.6234 -3.2913 -2.5672
  112MOL   H34647188   4.252   1.282   5.356  0.5870 -0.4840 -0.3281
  112MOL   H34747189   4.156   1.241   5.074 -1.1432  2.0569  2.1609
  112MOL   H34847190   4.165   1.001   5.243  0.2052  0.3147  0.5528
  112MOL   H34947191   4.051   1.055   5.118  1.1834 -3.1828 -1.4722
  112MOL   H35047192   4.325   0.939   5.071  0.4935  0.5192  1.4825
  112MOL   H35147193   4.223   1.007   4.947  0.0970 -0.2428 -0.2453
  112MOL   H35247194   4.095   0.807   5.138 -1.5425  1.0755 -0.8115
  112MOL   H35347195   4.056   0.835   4.969  1.4461 -2.2771 -2.2263
  112MOL   H35447196   4.313   0.694   5.033 -0.0635 -0.2911  0.9169
  112MOL   H35547197   4.163   0.618   5.012  0.3196  0.5570  1.7522
  112MOL   H35647198   4.275   0.811   4.806 -0.4064 -0.2906 -3.5608
  112MOL   H35747199   4.138   0.714   4.777 -0.9876  1.0365  0.5798
  112MOL   H35847200   4.303   0.636   4.799  0.7804  2.0449 -2.7123
  112MOL   C35947201   4.361   1.201   5.141 -0.2661 -0.2244 -0.6364
  112MOL   C36047202   4.429   1.335   5.138 -0.0954 -0.9455  0.3758
  112MOL   C36147203   4.576   1.325   5.179 -0.0132 -0.5812 -0.2319
  112MOL   C36247204   4.680   1.247   5.095 -0.0170 -0.3809  0.1033
  112MOL   C36347205   4.818   1.218   5.150 -0.3066  0.0003 -0.6434
  112MOL   C36447206   4.893   1.338   5.204  0.1140 -0.4579 -0.2778
  112MOL   C36547207   5.045   1.309   5.235  0.3628 -1.2407 -0.5249
  112MOL   H36647208   4.390   1.147   5.050  1.6873 -0.9862  0.4209
  112MOL   H36747209   4.413   1.143   5.217  1.0340 -0.3606 -1.6035
  112MOL   H36847210   4.379   1.401   5.210  2.2934  1.3850  0.0001
  112MOL   H36947211   4.609   1.428   5.179 -2.9404  0.3946  0.2236
  112MOL   H37047212   4.580   1.298   5.285  1.7231 -1.9371 -0.6052
  112MOL   H37147213   4.643   1.148   5.068  0.4696 -0.6608  0.4774
  112MOL   H37247214   4.677   1.298   4.998 -1.4471 -0.8740 -0.1282
  112MOL   H37347215   4.811   1.130   5.214  2.2373  0.3768  0.1911
  112MOL   H37447216   4.873   1.181   5.064 -0.0235 -0.1496 -0.3983
  112MOL   H37547217   4.888   1.425   5.140 -0.3346 -1.4493 -1.6187
  112MOL   H37647218   4.851   1.373   5.299  0.9724 -0.9210  0.2865
  112MOL   H37747219   5.112   1.318   5.149  0.3409 -0.6146 -0.4788
  112MOL   H37847220   5.082   1.392   5.295 -1.2552 -1.6030  1.0039
  112MOL   H37947221   5.061   1.214   5.285 -0.0965 -1.4233 -0.7232
  112MOL   C38047222   4.407   1.407   5.002 -0.5108 -0.4269 -0.2559
  112MOL   C38147223   4.460   1.557   4.985 -0.3243  0.4633 -0.4225
  112MOL   C38247224   4.474   1.594   4.838  0.1712  0.3303 -0.1873
  112MOL   C38347225   4.566   1.707   4.802  0.5217  0.2010  0.1628
  112MOL   C38447226   4.565   1.751   4.657  0.1293  0.4596  0.4595
  112MOL   C38547227   4.668   1.850   4.598 -0.7501 -0.5914 -0.1470
  112MOL   C38647228   4.690   1.832   4.447  0.2355  0.1574 -0.1825
  112MOL   H38747229   4.453   1.340   4.929 -1.0365 -0.8830 -0.1710
  112MOL   H38847230   4.299   1.404   4.983 -0.5690 -0.6415  0.0955
  112MOL   H38947231   4.561   1.559   5.025 -0.5957 -1.4839  0.4005
  112MOL   H39047232   4.379   1.619   4.791  0.0573 -1.0630 -0.7249
  112MOL   H39147233   4.510   1.504   4.787 -0.8640 -0.9344  1.2473
  112MOL   H39247234   4.554   1.803   4.852  1.4953  1.1018 -1.2741
  112MOL   H39347235   4.665   1.677   4.835 -0.1735 -1.8458  0.4187
  112MOL   H39447236   4.568   1.663   4.593 -0.2165  1.2321 -0.6399
  112MOL   H39547237   4.463   1.789   4.650 -0.8691 -2.0190  0.9084
  112MOL   H39647238   4.762   1.844   4.654  0.9014  1.5576 -2.5426
  112MOL   H39747239   4.636   1.951   4.622  2.6340  0.9266 -1.6270
  112MOL   H39847240   4.680   1.729   4.414  0.7542  0.2886 -0.7640
  112MOL   H39947241   4.786   1.874   4.417 -0.6159  2.2539 -0.1337
  112MOL   H40047242   4.605   1.877   4.395  0.8076  0.6174 -0.7227
  112MOL   C40147243   4.379   1.661   5.067  0.0703  0.1884  0.8785
  112MOL   C40247244   4.456   1.775   5.134  0.3776 -0.1900 -0.3924
  112MOL   C40347245   4.506   1.748   5.275 -0.7847 -0.2184  0.7765
  112MOL   C40447246   4.593   1.863   5.333 -0.2455 -0.0829  0.1646
  112MOL   C40547247   4.650   1.828   5.468 -0.0875 -0.5281  0.4363
  112MOL   C40647248   4.541   1.787   5.570  0.2554  0.5032 -0.3998
  112MOL   C40747249   4.451   1.908   5.594  0.3853  0.0768 -0.2587
  112MOL   H40847250   4.309   1.603   5.128 -1.4193 -1.9705 -2.7417
  112MOL   H40947251   4.316   1.720   5.001  0.4093 -0.1850  0.2228
  112MOL   H41047252   4.397   1.867   5.132 -0.6982 -0.7868  2.2548
  112MOL   H41147253   4.550   1.649   5.260  1.7816  1.2232 -1.5190
  112MOL   H41247254   4.417   1.730   5.336 -0.8859 -3.1560 -0.1299
  112MOL   H41347255   4.536   1.955   5.322  0.7013  0.1843 -3.0514
  112MOL   H41447256   4.672   1.867   5.258  0.0687  0.2801  0.5123
  112MOL   H41547257   4.730   1.756   5.452  1.0727  1.0166 -0.8929
  112MOL   H41647258   4.702   1.915   5.508  0.6831 -1.0298  0.5343
  112MOL   H41747259   4.483   1.703   5.529 -1.0570  2.1166 -1.9404
  112MOL   H41847260   4.580   1.761   5.668  2.0008 -0.0584 -1.2348
  112MOL   H41947261   4.526   1.981   5.621  1.5225 -1.4805  0.9111
  112MOL   H42047262   4.383   1.905   5.679 -0.4186  4.9177 -0.6031
  112MOL   H42147263   4.383   1.948   5.518 -0.6492  0.0186  0.6170
  112MOL   H42247264   4.540   1.798   5.068 -0.2404 -0.6117 -1.3363
  113MOL     C147265   3.161   7.709   7.471  0.2018 -0.5989 -0.3424
  113MOL     C247266   3.289   7.642   7.533 -0.8996 -0.0218 -0.1074
  113MOL     C347267   3.353   0.030   7.637 -0.2751  0.3616  0.4431
  113MOL     C447268   3.252   0.072   0.040 -0.3928  1.0926  0.0148
  113MOL     C547269   3.227   7.674   0.138 -0.6207  1.1656 -0.1448
  113MOL     C647270   3.152   0.003   0.263  0.6659 -0.2260  0.6733
  113MOL     C747271   3.251   0.046   0.370 -0.3196 -0.0920 -0.2394
  113MOL     H847272   3.190   0.086   7.417  0.3457 -1.9364 -2.5383
  113MOL     H947273   3.093   0.020   7.552  1.7017 -2.4894  1.5760
  113MOL    H1047274   3.265   7.550   7.587 -0.5433  0.3248  0.6465
  113MOL    H1147275   3.436   7.686   7.679 -1.6244 -2.0715 -0.1341
  113MOL    H1247276   3.395   0.113   7.580  1.0158 -0.7789 -0.3064
  113MOL    H1347277   3.292   0.162   0.087  0.3897  1.0259 -0.4936
  113MOL    H1447278   3.155   0.106   0.005 -1.4606 -1.2398  0.6317
  113MOL    H1547279   3.326   7.639   0.167 -0.7407  1.3641  0.5071
  113MOL    H1647280   3.176   7.588   0.094 -3.0673  1.9728  1.0226
  113MOL    H1747281   3.099   7.632   0.306 -3.1473  0.9142 -1.5693
  113MOL    H1847282   3.070   0.073   0.251  1.0362  0.0126 -0.5517
  113MOL    H1947283   3.309   0.134   0.342  1.2418 -0.8453  0.5582
  113MOL    H2047284   3.330   7.688   0.391 -1.7006 -1.5765  0.0640
  113MOL    H2147285   3.207   0.068   0.467 -2.8278 -1.9285 -0.9067
  113MOL    H2247286   3.105   7.650   7.399 -1.9531  0.2946  0.5662
  113MOL    C2347287   3.393   7.596   7.428  0.2066 -0.1458  0.0880
  113MOL    C2447288   3.346   7.488   7.333 -0.5904  0.4889  0.2870
  113MOL    C2547289   3.452   7.379   7.320 -0.0528 -0.0254  0.8583
  113MOL    C2647290   3.403   7.248   7.254  0.5396  0.5835  0.3476
  113MOL    C2747291   3.500   7.132   7.301 -0.8192 -0.3775  0.2855
  113MOL    C2847292   3.470   7.000   7.226 -0.1008  0.1869  0.5782
  113MOL    C2947293   3.324   6.949   7.235  0.4043  0.0211 -0.0874
  113MOL    H3047294   3.426   7.680   7.367  0.5059 -1.4430 -1.5941
  113MOL    H3147295   3.481   7.569   7.486 -0.5610 -2.0814  0.4021
  113MOL    H3247296   3.271   7.434   7.390 -1.9060  1.2571 -0.6757
  113MOL    H3347297   3.469   7.356   7.425 -0.8378  0.1871  1.0386
  113MOL    H3447298   3.547   7.418   7.283 -0.0954 -0.7971 -0.0797
  113MOL    H3547299   3.420   7.247   7.147 -0.2895  0.4307  0.2109
  113MOL    H3647300   3.296   7.227   7.258  1.3275 -3.5904  2.2148
  113MOL    H3747301   3.494   7.118   7.409 -0.4187 -0.8275  0.2497
  113MOL    H3847302   3.602   7.166   7.283 -0.7332 -0.3185  0.8635
  113MOL    H3947303   3.534   6.920   7.261  1.1308  0.0991 -1.7962
  113MOL    H4047304   3.499   7.002   7.121 -0.9437  3.0905  0.3323
  113MOL    H4147305   3.277   6.934   7.332  0.5090  0.2862  0.0067
  113MOL    H4247306   3.264   7.021   7.180 -2.9437 -2.0615  0.7532
  113MOL    H4347307   3.314   6.850   7.190  0.0548 -1.3073  2.8497
  113MOL    C4447308   3.285   7.537   7.192 -0.5213 -0.2727 -0.4077
  113MOL    C4547309   3.343   7.665   7.114  0.2486 -0.0378  0.0610
  113MOL    C4647310   3.486   7.643   7.074 -0.2940  0.4292 -0.2423
  113MOL    C4747311   3.515   7.520   6.988 -0.6584 -0.5328 -0.2416
  113MOL    C4847312   3.665   7.507   6.956 -0.8173 -0.0362 -0.3513
  113MOL    C4947313   3.686   7.389   6.860 -0.5760  0.8090  0.5744
  113MOL    C5047314   3.830   7.404   6.800 -0.1741 -0.5507  0.1555
  113MOL    H5147315   3.178   7.548   7.214 -0.1704  1.6572  0.4564
  113MOL    H5247316   3.271   7.452   7.125 -1.6184  0.5507 -1.2461
  113MOL    H5347317   3.340   0.036   7.183 -1.2827 -0.0100 -0.0175
  113MOL    H5447318   3.549   7.629   7.162 -0.5587  0.9201  0.0249
  113MOL    H5547319   3.512   0.029   7.036  0.5229 -0.4554 -2.0475
  113MOL    H5647320   3.483   7.426   7.033  0.7539  0.5530  3.1446
  113MOL    H5747321   3.448   7.509   6.902 -2.9227 -1.1748  1.5492
  113MOL    H5847322   3.700   7.492   7.058 -1.1629 -0.7662 -0.3366
  113MOL    H5947323   3.702   7.604   6.924  1.6107 -0.0051  2.4339
  113MOL    H6047324   3.622   7.396   6.772 -1.7904 -1.6298  1.2089
  113MOL    H6147325   3.659   7.294   6.906 -0.0064  0.6797  0.6356
  113MOL    H6247326   3.856   7.334   6.720  1.1483  0.2885 -0.1588
  113MOL    H6347327   3.914   7.394   6.869  1.7032 -0.2726 -2.0092
  113MOL    H6447328   3.848   7.496   6.745  0.7696 -1.7611 -1.6139
  113MOL    C6547329   3.260   7.711   7.000  0.3577 -0.1516  0.8393
  113MOL    C6647330   3.184   0.138   7.013  0.1182  0.3014 -0.1497
  113MOL    C6747331   3.067   0.141   7.114  0.2716 -0.3478 -0.2087
  113MOL    C6847332   3.008   0.272   7.165 -0.0798 -0.0506  0.6970
  113MOL    C6947333   2.890   0.253   7.273  0.8857  0.3101  0.3690
  113MOL    C7047334   2.749   0.253   7.208 -0.8566  0.2285  0.0252
  113MOL    C7147335   2.647   0.225   7.317  0.1092  0.0428 -0.3569
  113MOL    H7247336   3.314   7.702   6.906 -0.5737  0.9860  0.1823
  113MOL    H7347337   3.191   7.633   6.967  0.1625 -0.0225  0.9418
  113MOL    H7447338   3.251   0.214   7.055  0.0328 -1.1328  2.6890
  113MOL    H7547339   2.985   0.078   7.081 -0.4931 -0.0185  1.0054
  113MOL    H7647340   3.110   0.089   7.200 -1.2575  2.0845  2.0946
  113MOL    H7747341   3.094   0.325   7.206 -0.6462  0.9117  0.6347
  113MOL    H7847342   2.977   0.333   7.080 -1.1626  0.8914  1.7605
  113MOL    H7947343   2.916   0.164   7.330  1.9000  1.0023  1.0112
  113MOL    H8047344   2.884   0.333   7.348  1.0845 -0.0901  0.8106
  113MOL    H8147345   2.742   0.166   7.143 -0.2231  1.6135 -1.9245
  113MOL    H8247346   2.720   0.350   7.167 -0.8195  0.0217 -0.4862
  113MOL    H8347347   2.663   0.295   7.399 -0.7061  0.0022 -0.1538
  113MOL    H8447348   2.552   0.263   7.281 -0.4622  0.2867  1.3246
  113MOL    H8547349   2.649   0.122   7.353 -0.8485  1.0478  2.7722
  113MOL    C8647350   3.144   0.195   6.871 -0.2069  0.2111 -0.0914
  113MOL    C8747351   3.263   0.237   6.775  0.3787 -0.4717 -0.8633
  113MOL    C8847352   3.205   0.266   6.633  0.4880 -0.1406 -0.1354
  113MOL    C8947353   3.318   0.264   6.518 -0.1597  0.2261 -0.2346
  113MOL    C9047354   3.253   0.271   6.375  0.3455  0.5379 -0.1120
  113MOL    C9147355   3.348   0.294   6.262 -0.3883 -0.4556  0.0634
  113MOL    C9247356   3.422   0.163   6.232 -0.4622 -0.5637  0.5207
  113MOL    H9347357   3.093   0.105   6.835 -1.7882  1.3076 -0.6182
  113MOL    H9447358   3.064   0.268   6.874  1.0114  1.5809 -0.5724
  113MOL    H9547359   3.323   0.148   6.764  0.9871  0.0709 -2.0334
  113MOL    H9647360   3.123   0.197   6.612  0.0543  0.0298  0.9667
  113MOL    H9747361   3.159   0.364   6.646  0.0384 -0.4381  0.5264
  113MOL    H9847362   3.389   0.347   6.525 -0.9013  0.7145  1.6700
  113MOL    H9947363   3.380   0.175   6.526 -0.8122 -0.1932  0.1727
  113MOL   H10047364   3.180   0.353   6.372 -1.8710 -1.3287  1.1097
  113MOL   H10147365   3.185   0.186   6.364 -0.6586  1.2484  0.4637
  113MOL   H10247366   3.292   0.318   6.172  2.2853  0.6068 -1.3649
  113MOL   H10347367   3.410   0.382   6.276 -1.6996  0.6483 -0.8596
  113MOL   H10447368   3.519   0.173   6.184 -0.9226 -1.7360 -0.6989
  113MOL   H10547369   3.361   0.104   6.164 -1.9201  0.1721  1.1633
  113MOL   H10647370   3.447   0.103   6.319 -0.3267 -0.1076  0.8007
  113MOL   C10747371   3.344   0.364   6.816 -0.0760 -0.3150  0.1669
  113MOL   C10847372   3.489   0.341   6.886 -0.4455  0.2488  0.0508
  113MOL   C10947373   3.594   0.294   6.781 -0.3790 -0.4005  0.2191
  113MOL   C11047374   3.733   0.256   6.838  0.1949 -0.9814  0.4790
  113MOL   C11147375   3.839   0.196   6.738 -0.2796  0.0780  0.1741
  113MOL   C11247376   3.978   0.175   6.799 -0.3555 -0.1354  0.2412
  113MOL   C11347377   3.982   0.064   6.904 -0.9032  0.0913  0.6100
  113MOL   H11447378   3.282   0.419   6.887  1.7448 -0.7787  2.2034
  113MOL   H11547379   3.362   0.435   6.735  0.3740 -0.7497 -0.1116
  113MOL   H11647380   3.483   0.269   6.967 -1.4587  1.1842  0.8318
  113MOL   H11747381   3.612   0.361   6.696 -1.8343 -0.0158  0.1982
  113MOL   H11847382   3.553   0.204   6.736 -2.3338  0.5184  0.1089
  113MOL   H11947383   3.773   0.342   6.892 -1.2059  1.2802 -1.9561
  113MOL   H12047384   3.716   0.185   6.919 -0.4767 -0.0012  1.2081
  113MOL   H12147385   3.835   0.257   6.648  2.2244 -1.0779 -0.7542
  113MOL   H12247386   3.802   0.100   6.701  0.3155 -0.3996  0.8093
  113MOL   H12347387   4.054   0.142   6.728 -1.2285  2.0309 -1.7646
  113MOL   H12447388   4.012   0.271   6.837  1.0588  0.5682 -2.6484
  113MOL   H12547389   4.080   0.046   6.948 -0.8672  0.3332  0.6276
  113MOL   H12647390   3.913   0.066   6.989  1.4398  0.1956  2.5752
  113MOL   H12747391   3.961   7.682   6.856  1.6359 -0.4221  0.4793
  113MOL   C12847392   3.529   0.472   6.958  0.1884  0.1095 -0.5755
  113MOL   C12947393   3.613   0.466   7.083  0.0021  0.0211 -0.1056
  113MOL   C13047394   3.546   0.409   7.208 -0.3336 -0.2430  0.0343
  113MOL   C13147395   3.417   0.476   7.257  0.7263  0.4950  0.1877
  113MOL   C13247396   3.358   0.390   7.368  0.0950 -0.1835 -0.2818
  113MOL   C13347397   3.250   0.465   7.447  0.4319 -0.0625  0.3182
  113MOL   C13447398   3.162   0.390   7.544  0.1328  0.4559 -0.2795
  113MOL   H13547399   3.569   0.533   6.877  1.1676  2.0178  1.2884
  113MOL   H13647400   3.442   0.535   6.978  0.0161 -0.9167  2.1307
  113MOL   H13747401   3.693   0.392   7.075 -1.3454 -1.4838  0.2076
  113MOL   H13847402   3.611   0.420   7.294 -0.1622  0.5494 -0.1910
  113MOL   H13947403   3.514   0.307   7.191  0.6750 -0.3499 -1.2878
  113MOL   H14047404   3.347   0.498   7.176 -1.8329  1.2940  2.5496
  113MOL   H14147405   3.444   0.570   7.306  1.1665  0.1349  0.6501
  113MOL   H14247406   3.435   0.353   7.436 -0.3539 -1.4447 -0.4401
  113MOL   H14347407   3.307   0.310   7.315  0.3655  0.8121 -2.0703
  113MOL   H14447408   3.182   0.512   7.375 -0.3833  0.7101  1.5588
  113MOL   H14547409   3.288   0.544   7.512 -0.5377  0.7637 -0.1001
  113MOL   H14647410   3.210   0.336   7.626 -3.2380  1.6258  2.5652
  113MOL   H14747411   3.109   0.311   7.489  1.2087 -0.5775  0.1437
  113MOL   H14847412   3.088   0.458   7.584 -0.2424 -1.1843  1.8855
  113MOL   C14947413   3.686   0.600   7.111 -0.2977 -0.1091 -0.1713
  113MOL   C15047414   3.801   0.644   7.023 -0.2614  0.3770  0.0247
  113MOL   C15147415   3.935   0.574   7.048  0.4324  0.1104  0.3502
  113MOL   C15247416   4.019   0.574   6.922  0.2155  0.7244 -0.0020
  113MOL   C15347417   4.165   0.533   6.934 -0.0796 -0.4417  0.0134
  113MOL   C15447418   4.235   0.533   6.794  0.4297  0.1025 -0.5944
  113MOL   C15547419   4.206   0.416   6.694  0.0119 -0.5392 -0.0668
  113MOL   H15647420   3.611   0.678   7.117 -0.5186 -0.4293  1.4646
  113MOL   H15747421   3.720   0.600   7.215  1.1419  0.5004 -0.6271
  113MOL   H15847422   3.760   0.625   6.924 -2.5763  3.0700  0.3881
  113MOL   H15947423   4.004   0.623   7.117  0.4206 -2.6908  2.4283
  113MOL   H16047424   3.914   0.478   7.097 -1.4800  1.6046  2.5829
  113MOL   H16147425   4.015   0.672   6.874 -2.6116  1.1564  1.0002
  113MOL   H16247426   3.960   0.510   6.856  0.0916 -1.0075  1.7416
  113MOL   H16347427   4.173   0.441   6.993  1.0908  0.2346  0.9315
  113MOL   H16447428   4.224   0.599   6.997 -1.2974 -0.3282  1.0533
  113MOL   H16547429   4.341   0.519   6.811  0.5173  2.0789  0.6218
  113MOL   H16647430   4.222   0.627   6.740  1.1467 -1.0021 -2.7182
  113MOL   H16747431   4.097   0.413   6.686 -0.1900 -0.8464  2.5024
  113MOL   H16847432   4.243   0.318   6.724  0.0871 -0.4358  0.1805
  113MOL   H16947433   4.257   0.437   6.600  0.1362 -1.8748 -0.3100
  113MOL   C17047434   3.815   0.798   7.030  0.1456  0.6907 -0.2323
  113MOL   C17147435   3.777   0.873   6.904 -0.0037 -1.5710 -0.2987
  113MOL   C17247436   3.629   0.850   6.867  0.3234 -0.6148 -0.1607
  113MOL   C17347437   3.590   0.903   6.724 -0.3698  0.2805  0.2197
  113MOL   C17447438   3.437   0.928   6.705 -0.1017  0.1614 -0.2898
  113MOL   C17547439   3.358   0.801   6.708  0.2356  0.4210 -0.0374
  113MOL   C17647440   3.208   0.814   6.672  0.2941 -0.2816 -0.2965
  113MOL   H17747441   3.914   0.837   7.056  1.5427 -0.6509 -3.1821
  113MOL   H17847442   3.754   0.829   7.115  0.6677 -0.0976  0.4392
  113MOL   H17947443   3.846   0.838   6.827 -0.5101 -0.7142 -1.1547
  113MOL   H18047444   3.567   0.894   6.945  1.7300 -0.6037  0.9570
  113MOL   H18147445   3.610   0.742   6.864  0.7378 -0.6838 -0.2959
  113MOL   H18247446   3.631   0.832   6.652 -1.8227  0.7423 -1.1022
  113MOL   H18347447   3.635   0.999   6.700 -1.2227  0.7423  0.4822
  113MOL   H18447448   3.435   0.964   6.602 -0.7224 -0.0303 -0.3418
  113MOL   H18547449   3.403   1.010   6.769 -1.4655  0.0517 -0.8613
  113MOL   H18647450   3.378   0.745   6.800  1.4975  1.4679  0.3250
  113MOL   H18747451   3.389   0.732   6.629 -0.2795 -3.2280  2.7970
  113MOL   H18847452   3.162   0.851   6.764  1.9893 -0.7979  0.7855
  113MOL   H18947453   3.172   0.712   6.657 -2.1222  0.2378  1.6278
  113MOL   H19047454   3.208   0.871   6.579  0.1539 -1.6535 -1.1433
  113MOL   C19147455   3.818   1.028   6.922  0.0750 -0.1473 -0.0908
  113MOL   C19247456   3.965   1.077   6.886  0.3070  0.8283 -0.0885
  113MOL   C19347457   4.072   1.019   6.980 -0.0823  0.4569  0.3230
  113MOL   C19447458   4.200   1.089   6.988  0.4395  0.0024  0.5325
  113MOL   C19547459   4.307   1.007   7.065  0.2092  0.7429 -0.2810
  113MOL   C19647460   4.296   1.016   7.223  0.3007 -0.1269 -0.2352
  113MOL   C19747461   4.408   0.944   7.291 -0.2078  0.0793 -0.3867
  113MOL   H19847462   3.796   1.054   7.025 -0.0956 -2.6845  0.5644
  113MOL   H19947463   3.755   1.085   6.855 -1.1022 -0.7015  0.5347
  113MOL   H20047464   3.966   1.185   6.902  0.0889  0.7662  0.3499
  113MOL   H20147465   4.095   0.916   6.951 -1.7738  0.5543 -1.4914
  113MOL   H20247466   4.038   1.011   7.083  2.1809  2.8890  1.3154
  113MOL   H20347467   4.174   1.177   7.047 -1.8039 -0.6451  0.5740
  113MOL   H20447468   4.240   1.135   6.898  0.5968 -1.3405 -0.1026
  113MOL   H20547469   4.317   0.902   7.037  0.1568  0.9087 -0.9238
  113MOL   H20647470   4.405   1.045   7.038  0.5624 -0.3269 -0.5228
  113MOL   H20747471   4.199   0.984   7.262 -1.6607  1.0634 -3.8621
  113MOL   H20847472   4.300   1.122   7.249  1.2398 -0.5008  1.2392
  113MOL   H20947473   4.500   1.002   7.283  0.2608 -0.7767 -1.3552
  113MOL   H21047474   4.426   0.843   7.256  0.0667  0.9772 -2.9186
  113MOL   H21147475   4.389   0.947   7.398  2.5034  0.4662  0.1287
  113MOL   C21247476   4.004   1.063   6.730 -0.2451 -0.7340  0.7938
  113MOL   C21347477   3.975   1.190   6.650 -0.0085  0.0628  0.4075
  113MOL   C21447478   4.057   1.191   6.511  0.0333  0.4401  0.1660
  113MOL   C21547479   4.208   1.215   6.526  0.3167 -0.2811  0.9786
  113MOL   C21647480   4.276   1.176   6.400 -0.2156  0.6194  0.4001
  113MOL   C21747481   4.431   1.201   6.397 -0.2151  0.6087 -0.1415
  113MOL   C21847482   4.462   1.327   6.308 -0.0297  0.6386  0.4123
  113MOL   H21947483   3.941   0.985   6.686 -1.1587  0.6221 -0.3236
  113MOL   H22047484   4.104   1.024   6.708 -0.2005 -2.0564  3.2116
  113MOL   H22147485   4.023   1.273   6.702 -0.3687  0.7578 -0.3585
  113MOL   H22247486   4.031   1.098   6.460 -0.7751  1.9610 -2.3143
  113MOL   H22347487   4.017   1.270   6.447  0.2120 -1.1852 -2.0289
  113MOL   H22447488   4.254   1.170   6.613  0.1926 -1.3749  0.4904
  113MOL   H22547489   4.232   1.318   6.549 -0.9176 -0.0846  1.4079
  113MOL   H22647490   4.252   1.072   6.377 -1.3737  1.5477 -2.8051
  113MOL   H22747491   4.233   1.228   6.314 -1.2411 -2.1935 -0.8392
  113MOL   H22847492   4.477   1.198   6.496 -0.0332  2.6296 -0.1424
  113MOL   H22947493   4.478   1.122   6.338 -2.6019 -1.9145  1.2545
  113MOL   H23047494   4.420   1.320   6.208  2.0397 -1.1924 -0.3513
  113MOL   H23147495   4.569   1.333   6.289 -0.3880  3.7420 -1.0057
  113MOL   H23247496   4.424   1.415   6.361  0.3811  0.8733  0.3147
  113MOL   C23347497   3.825   1.233   6.625 -0.2786  0.3710  0.5897
  113MOL   C23447498   3.799   1.376   6.640 -0.2202 -1.0864 -0.4105
  113MOL   C23547499   3.682   1.415   6.551 -0.2505  0.3984  0.8609
  113MOL   C23647500   3.553   1.338   6.573  0.2449  0.3406  0.6804
  113MOL   C23747501   3.434   1.393   6.488  0.0611 -0.3090  0.3348
  113MOL   C23847502   3.298   1.323   6.513  0.0175  0.4732 -0.0904
  113MOL   C23947503   3.242   1.347   6.653  0.0184  0.3057 -0.1066
  113MOL   H24047504   3.750   1.193   6.692 -2.5165  2.6458 -0.4816
  113MOL   H24147505   3.795   1.189   6.530 -0.1274 -0.0728  0.7466
  113MOL   H24247506   3.888   1.428   6.603 -0.1462  1.3336  2.9814
  113MOL   H24347507   3.718   1.408   6.448  1.1330  1.2368  1.2830
  113MOL   H24447508   3.651   1.520   6.559  0.2003  0.5923  0.1654
  113MOL   H24547509   3.521   1.335   6.677  0.8658 -1.5312  0.8270
  113MOL   H24647510   3.563   1.234   6.542 -0.2395  0.2732  0.7481
  113MOL   H24747511   3.457   1.394   6.382 -2.1870  2.5954 -0.1921
  113MOL   H24847512   3.423   1.500   6.505  0.0906 -0.3030  0.3153
  113MOL   H24947513   3.224   1.353   6.439  0.2192  1.0588 -0.0641
  113MOL   H25047514   3.319   1.216   6.511 -1.4115  0.1737 -4.1071
  113MOL   H25147515   3.240   1.454   6.672  0.4480  0.5916 -1.5661
  113MOL   H25247516   3.142   1.302   6.655 -0.0792  0.3519 -2.4865
  113MOL   H25347517   3.289   1.288   6.731  0.8016 -2.2224 -2.4118
  113MOL   C25447518   3.772   1.417   6.790  0.4728  0.6526  0.2276
  113MOL   C25547519   3.775   1.570   6.820  0.8636 -0.4914 -0.0201
  113MOL   C25647520   3.916   1.633   6.811  0.2134  0.1018  0.0552
  113MOL   C25747521   4.019   1.560   6.901 -0.0739  0.2798  0.3015
  113MOL   C25847522   4.143   1.641   6.937  0.2845  0.0141  0.8826
  113MOL   C25947523   4.238   1.564   7.029  0.0248  0.4050 -0.1627
  113MOL   C26047524   4.361   1.640   7.068 -0.0250 -0.8532  0.7506
  113MOL   H26147525   3.842   1.362   6.853  0.7003 -1.6891 -1.9548
  113MOL   H26247526   3.676   1.374   6.820  0.7186  0.6193  0.9714
  113MOL   H26347527   3.723   1.635   6.749  1.9054  0.8444  0.4168
  113MOL   H26447528   3.919   1.740   6.830 -0.1074  0.0824  0.2179
  113MOL   H26547529   3.962   1.618   6.713 -0.6741 -2.3913 -0.0220
  113MOL   H26647530   3.975   1.530   6.997  1.4717 -0.2803  0.8443
  113MOL   H26747531   4.050   1.465   6.856 -0.3785  0.1081  0.4501
  113MOL   H26847532   4.117   1.737   6.983 -0.4706  0.7394 -1.0315
  113MOL   H26947533   4.194   1.670   6.845  0.0455 -1.8541  0.1516
  113MOL   H27047534   4.179   1.531   7.115  0.3283 -1.6148 -0.7261
  113MOL   H27147535   4.275   1.477   6.976  0.4924  1.7356 -2.0459
  113MOL   H27247536   4.438   1.655   6.992 -0.8483 -0.1147  0.0450
  113MOL   H27347537   4.319   1.738   7.089 -0.5108 -0.5853 -1.3511
  113MOL   H27447538   4.400   1.592   7.157 -0.0051  0.9173  1.7206
  113MOL   C27547539   3.708   1.607   6.955  0.7793  0.5224 -0.9113
  113MOL   C27647540   3.558   1.570   6.978  0.8461 -0.0285  0.4052
  113MOL   C27747541   3.527   1.434   7.043  0.1369 -0.0741  0.4586
  113MOL   C27847542   3.384   1.435   7.117 -0.1453  0.2293 -0.2281
  113MOL   C27947543   3.363   1.301   7.194 -0.4247  0.2846  0.3111
  113MOL   C28047544   3.226   1.284   7.255  0.3878 -0.3697  0.9569
  113MOL   C28147545   3.111   1.295   7.150  0.0660 -0.3042 -0.1332
  113MOL   H28247546   3.712   1.715   6.967 -0.3989  0.6428 -1.5460
  113MOL   H28347547   3.758   1.560   7.040 -0.0798  1.2422 -0.0167
  113MOL   H28447548   3.517   1.642   7.048  1.1263  1.2374 -0.7156
  113MOL   H28547549   3.520   1.360   6.963  2.3559 -2.2238  2.1503
  113MOL   H28647550   3.612   1.406   7.105 -0.1851 -1.5806  0.2426
  113MOL   H28747551   3.312   1.441   7.035  1.6038 -1.1631 -1.9259
  113MOL   H28847552   3.365   1.516   7.187 -1.1871  0.6134 -0.9476
  113MOL   H28947553   3.437   1.316   7.273 -0.4902 -0.7012  0.5600
  113MOL   H29047554   3.403   1.218   7.136 -2.1144 -0.1775 -0.2048
  113MOL   H29147555   3.218   1.190   7.310 -1.9052 -1.8718 -1.8042
  113MOL   H29247556   3.218   1.370   7.320  1.2295 -0.3821  1.0805
  113MOL   H29347557   3.090   1.398   7.122 -1.8788 -0.2493  1.4307
  113MOL   H29447558   3.017   1.260   7.192  0.2561  0.0166  0.5703
  113MOL   H29547559   3.121   1.233   7.061  1.4257 -1.7822  1.0158
  113MOL   C29647560   3.465   1.591   6.854  0.3860 -0.8896 -0.2903
  113MOL   C29747561   3.459   1.743   6.814 -0.6029 -0.4326 -0.1071
  113MOL   C29847562   3.336   1.822   6.869  0.0841  0.0001 -0.3446
  113MOL   C29947563   3.302   1.806   7.014  0.3067  0.3960 -0.2639
  113MOL   C30047564   3.192   1.906   7.048  0.2483  0.2248 -0.4210
  113MOL   C30147565   3.143   1.876   7.197  0.5792 -0.1210  0.1608
  113MOL   C30247566   3.014   1.950   7.240 -0.0623  1.1073  0.1519
  113MOL   H30347567   3.503   1.526   6.775  0.4447 -1.6681  0.3627
  113MOL   H30447568   3.369   1.545   6.877  1.8648 -3.7266  0.4553
  113MOL   H30547569   3.547   1.795   6.851 -0.9482  0.2984 -0.3020
  113MOL   H30647570   3.351   1.927   6.846  1.7771  0.3136  1.9444
  113MOL   H30747571   3.249   1.787   6.814  0.5276 -0.7410 -0.5790
  113MOL   H30847572   3.385   1.836   7.078  0.0815 -2.1010  1.2863
  113MOL   H30947573   3.275   1.703   7.039 -0.7143  0.6967 -0.1265
  113MOL   H31047574   3.106   1.893   6.982 -0.8133  1.2420  0.7594
  113MOL   H31147575   3.225   2.007   7.027  3.6946 -1.0146 -1.4074
  113MOL   H31247576   3.126   1.769   7.212  1.4575 -0.1847  0.7335
  113MOL   H31347577   3.215   1.901   7.275  2.5532 -1.4327 -1.1903
  113MOL   H31447578   3.034   2.056   7.219  1.3562  0.6122 -1.1027
  113MOL   H31547579   2.937   1.914   7.171  0.2876 -1.9514  1.3005
  113MOL   H31647580   2.994   1.924   7.343 -1.1877 -0.6373 -0.4953
  113MOL   C31747581   3.470   1.752   6.663  0.3692  0.2835 -0.5392
  113MOL   C31847582   3.493   1.887   6.597 -0.6075 -0.4948  0.3207
  113MOL   C31947583   3.634   1.943   6.633 -0.1851  0.1810 -0.7282
  113MOL   C32047584   3.687   2.074   6.569  0.2679 -0.5445 -0.1535
  113MOL   C32147585   3.608   2.196   6.609 -0.4936  0.0378 -0.0144
  113MOL   C32247586   3.686   2.321   6.563  0.4196  0.2939 -0.6236
  113MOL   C32347587   3.784   2.372   6.675  0.4841 -0.3085  0.2242
  113MOL   H32447588   3.371   1.715   6.634 -0.4908  0.8573  1.5896
  113MOL   H32547589   3.542   1.682   6.620 -0.2038 -0.8596  0.3179
  113MOL   H32647590   3.417   1.957   6.633  1.1450  1.7685 -0.2845
  113MOL   H32747591   3.709   1.871   6.599 -2.3675 -1.6703 -1.7550
  113MOL   H32847592   3.644   1.944   6.741 -1.6983 -0.0843 -0.5678
  113MOL   H32947593   3.697   2.070   6.461  1.0920  0.3288 -0.1156
  113MOL   H33047594   3.790   2.089   6.604  0.7149 -2.9038 -0.3416
  113MOL   H33147595   3.598   2.196   6.718  1.5313 -0.2892  0.1881
  113MOL   H33247596   3.515   2.197   6.551 -0.5145 -0.4160  0.0121
  113MOL   H33347597   3.616   2.401   6.539  0.2512  0.5968  0.8676
  113MOL   H33447598   3.734   2.294   6.468 -1.4337 -1.2420 -1.1599
  113MOL   H33547599   3.846   2.451   6.634  0.5938  0.4178  1.7755
  113MOL   H33647600   3.853   2.291   6.702  2.3408  1.0573 -0.3439
  113MOL   H33747601   3.734   2.408   6.765 -0.0922  0.4177 -0.3860
  113MOL   C33847602   3.472   1.872   6.436 -0.0974 -0.1318  1.0008
  113MOL   C33947603   3.322   1.869   6.386 -0.1077  0.1950 -0.2104
  113MOL   C34047604   3.314   1.840   6.237  0.5090 -0.0585 -0.3858
  113MOL   C34147605   3.317   1.692   6.198  0.1534  0.3347 -0.1672
  113MOL   C34247606   3.300   1.680   6.046  0.8914  0.2870  0.0107
  113MOL   C34347607   3.302   1.537   5.986 -0.1412 -0.6156 -0.1135
  113MOL   C34447608   3.348   1.529   5.842 -0.6322 -0.1046  0.3191
  113MOL   H34547609   3.529   1.790   6.392  0.1326  0.8455 -0.5642
  113MOL   H34647610   3.522   1.957   6.391 -1.0154 -0.8861 -1.5443
  113MOL   H34747611   3.268   1.788   6.435  1.6786 -1.0147 -0.2224
  113MOL   H34847612   3.214   1.865   6.201 -0.7465 -0.3635  2.6925
  113MOL   H34947613   3.383   1.901   6.179  0.9534  1.4360  1.6582
  113MOL   H35047614   3.244   1.632   6.253  0.3176  2.1404  2.0732
  113MOL   H35147615   3.414   1.651   6.225  0.4748  1.0851 -0.1761
  113MOL   H35247616   3.209   1.733   6.020  0.9283  1.7668  2.7892
  113MOL   H35347617   3.376   1.744   6.002  1.2430  0.6018  1.0668
  113MOL   H35447618   3.374   1.476   6.040  1.3407  0.4434 -0.8630
  113MOL   H35547619   3.203   1.494   6.000  0.5673 -2.4053 -0.5621
  113MOL   H35647620   3.449   1.567   5.831 -0.9759  0.5297 -0.6981
  113MOL   H35747621   3.296   1.584   5.763  0.0426  0.5803  0.3558
  113MOL   H35847622   3.350   1.425   5.808 -1.1099  0.5539 -1.7573
  113MOL   C35947623   3.255   2.010   6.411 -0.7002 -0.1081 -0.2025
  113MOL   C36047624   3.110   2.007   6.448 -0.2534  0.2275 -0.0301
  113MOL   C36147625   3.063   2.141   6.495 -0.2300  0.3557 -0.1311
  113MOL   C36247626   2.966   2.144   6.618  0.0939  0.0226  0.1607
  113MOL   C36347627   3.035   2.124   6.752  0.0234 -0.4760  0.2562
  113MOL   C36447628   2.944   2.118   6.877  0.0970 -0.2853 -0.4032
  113MOL   C36547629   2.835   1.998   6.888 -0.4386 -0.4389  0.3777
  113MOL   H36647630   3.270   2.083   6.332 -2.5666 -1.2468 -1.6422
  113MOL   H36747631   3.311   2.060   6.491 -0.3848 -0.0768 -0.4403
  113MOL   H36847632   3.095   1.943   6.535 -2.6110 -1.6991 -1.8043
  113MOL   H36947633   3.144   2.207   6.527  0.2724  0.3516 -1.3948
  113MOL   H37047634   3.011   2.190   6.412 -0.3217 -2.5839 -1.8572
  113MOL   H37147635   2.904   2.234   6.621 -1.1637 -0.8582  1.0826
  113MOL   H37247636   2.903   2.055   6.610 -1.1132  0.5930  2.7348
  113MOL   H37347637   3.111   2.046   6.748  0.3294 -0.1987  0.5454
  113MOL   H37447638   3.107   2.205   6.763  1.8004 -1.9333 -0.4517
  113MOL   H37547639   2.993   2.114   6.975 -0.7960 -0.3108  0.0497
  113MOL   H37647640   2.883   2.208   6.875 -1.4177 -1.3116 -1.3778
  113MOL   H37747641   2.880   1.903   6.917 -0.1767 -0.3114  0.3913
  113MOL   H37847642   2.769   2.013   6.974  0.9475 -1.7045  1.6998
  113MOL   H37947643   2.766   1.981   6.805  2.3647 -2.1922 -1.6449
  113MOL   C38047644   3.012   1.968   6.339 -0.4931 -0.0412 -0.8047
  113MOL   C38147645   2.986   1.816   6.335 -0.1480  0.1076 -0.0250
  113MOL   C38247646   2.884   1.775   6.446  0.0389  0.7022  0.3446
  113MOL   C38347647   2.952   1.692   6.560 -0.3622  0.3217  0.0595
  113MOL   C38447648   2.861   1.645   6.672 -0.1995  0.3764  0.2251
  113MOL   C38547649   2.926   1.556   6.781  0.6530 -0.2783  0.1868
  113MOL   C38647650   2.805   1.507   6.863 -1.4655 -0.0346  0.1613
  113MOL   H38747651   2.914   2.015   6.343 -1.3953 -2.0053  1.3206
  113MOL   H38847652   3.065   1.996   6.248 -0.5061 -0.6275 -0.9958
  113MOL   H38947653   3.070   1.747   6.342  0.0414  0.4219  0.9594
  113MOL   H39047654   2.801   1.713   6.412  0.1027 -0.2422  1.8261
  113MOL   H39147655   2.846   1.870   6.485  1.0336  1.2874 -0.0873
  113MOL   H39247656   3.006   1.608   6.516 -1.2191 -0.3766  0.3123
  113MOL   H39347657   3.029   1.754   6.604  0.7257  0.0022 -1.3645
  113MOL   H39447658   2.812   1.730   6.719  0.0096  0.3596  0.4704
  113MOL   H39547659   2.796   1.576   6.618 -0.1172  0.3378  0.1745
  113MOL   H39647660   2.991   1.618   6.842 -1.5984  2.1170  0.2253
  113MOL   H39747661   2.973   1.466   6.742  2.3371  0.8328 -0.3752
  113MOL   H39847662   2.731   1.466   6.794 -0.2577 -0.9125 -0.6157
  113MOL   H39947663   2.749   1.582   6.918 -1.1398  0.0979  0.3117
  113MOL   H40047664   2.846   1.430   6.927 -0.7055  0.6053  0.4521
  113MOL   C40147665   2.916   1.792   6.198 -0.4908 -0.7544  0.2302
  113MOL   C40247666   2.912   1.641   6.152 -0.2273 -0.0570  0.7989
  113MOL   C40347667   2.845   1.602   6.016 -0.3086  0.6133  0.1954
  113MOL   C40447668   2.845   1.448   5.974  0.3310 -0.0824 -0.4933
  113MOL   C40547669   2.761   1.353   6.066  0.1001 -0.0162 -0.6603
  113MOL   C40647670   2.769   1.203   6.031 -0.7939 -0.4909 -0.2681
  113MOL   C40747671   2.905   1.143   6.038 -1.3312  0.3035 -0.6270
  113MOL   H40847672   2.968   1.844   6.118 -3.2488  0.8495 -0.6012
  113MOL   H40947673   2.813   1.829   6.196 -0.1910  0.0833  0.3834
  113MOL   H41047674   2.874   1.584   6.237  2.2925  1.3980  2.9530
  113MOL   H41147675   2.906   1.657   5.944  1.7607 -2.4654 -0.5244
  113MOL   H41247676   2.743   1.639   6.013 -0.6990 -0.2650  2.0982
  113MOL   H41347677   2.949   1.416   5.968  0.2275 -0.1391 -2.5197
  113MOL   H41447678   2.801   1.439   5.875 -0.5599  1.7565 -0.2863
  113MOL   H41547679   2.797   1.368   6.167  1.1039  1.0238 -1.1567
  113MOL   H41647680   2.655   1.377   6.056  0.0475 -0.2235 -0.5982
  113MOL   H41747681   2.702   1.138   6.087 -0.9744 -1.4867 -1.6303
  113MOL   H41847682   2.740   1.188   5.927 -0.3041  1.1345 -0.6628
  113MOL   H41947683   2.932   1.134   6.144  0.9687 -1.8521 -1.3457
  113MOL   H42047684   2.981   1.190   5.976 -0.6266 -0.6880 -0.5285
  113MOL   H42147685   2.902   1.042   5.997  1.8992  0.5129 -1.4666
  113MOL   H42247686   3.014   1.603   6.146  0.1639  1.1668 -0.6512
  114MOL     C147687   7.284   5.263   2.399  0.3117 -0.0695 -0.2390
  114MOL     C247688   7.180   5.335   2.492 -0.0318  0.1351  0.5219
  114MOL     C347689   7.042   5.361   2.428  0.5767  0.4609 -0.2983
  114MOL     C447690   7.044   5.461   2.313 -0.7538 -0.3565 -0.3452
  114MOL     C547691   6.911   5.500   2.249  0.0951  1.3147  0.1155
  114MOL     C647692   6.805   5.556   2.350  0.0718 -0.2235 -0.2022
  114MOL     C747693   6.700   5.650   2.293 -0.2738  0.7204 -0.2237
  114MOL     H847694   7.364   5.234   2.468 -0.0826  2.1616  1.2331
  114MOL     H947695   7.323   5.330   2.322 -2.5436  1.8584 -0.0738
  114MOL    H1047696   7.166   5.267   2.577 -0.0121  2.2962  2.3064
  114MOL    H1147697   7.009   5.266   2.386  0.0181  0.3364  0.4005
  114MOL    H1247698   6.964   5.392   2.498  0.5971  1.1732 -0.5889
  114MOL    H1347699   7.094   5.554   2.341  0.0773 -0.7620 -0.4886
  114MOL    H1447700   7.098   5.427   2.225 -0.3825 -0.5081 -0.0575
  114MOL    H1547701   6.873   5.412   2.197  2.1452 -0.2070  1.1070
  114MOL    H1647702   6.948   5.574   2.177  0.8948 -0.4003 -1.2777
  114MOL    H1747703   6.850   5.611   2.433 -0.7473  1.9634 -1.1690
  114MOL    H1847704   6.745   5.473   2.385  0.4906 -0.1031  0.7956
  114MOL    H1947705   6.639   5.591   2.224  0.9204 -1.1838  0.3256
  114MOL    H2047706   6.725   5.735   2.229  1.1130 -0.2628 -1.0164
  114MOL    H2147707   6.635   5.701   2.364  1.7320  0.2939  1.9784
  114MOL    H2247708   7.260   5.164   2.361  2.7805  0.7359 -4.1135
  114MOL    C2347709   7.242   5.460   2.560 -0.0997  0.0633  0.2004
  114MOL    C2447710   7.148   5.535   2.661 -0.4219  0.8499 -0.1779
  114MOL    C2547711   7.203   5.675   2.683 -0.8115  0.7445  0.7042
  114MOL    C2647712   7.339   5.688   2.743  0.1101 -0.6221 -0.3058
  114MOL    C2747713   7.368   5.823   2.808 -0.2572  0.3856 -0.2165
  114MOL    C2847714   7.522   5.855   2.839  0.8445 -0.5264  0.5194
  114MOL    C2947715   7.546   5.994   2.895 -0.6410 -0.0549 -0.2582
  114MOL    H3047716   7.339   5.436   2.605 -0.1987  0.2323  0.5057
  114MOL    H3147717   7.271   5.519   2.473  0.6473 -1.8740 -0.9250
  114MOL    H3247718   7.046   5.543   2.624 -0.7898  0.1869  0.6834
  114MOL    H3347719   7.138   5.728   2.753 -1.4968  1.3780 -0.3947
  114MOL    H3447720   7.197   5.730   2.589 -2.3758  0.2363  0.4849
  114MOL    H3547721   7.397   5.664   2.654  0.8959  1.2955 -0.3210
  114MOL    H3647722   7.362   5.605   2.809 -1.9585  0.4602  1.8682
  114MOL    H3747723   7.317   5.818   2.904  1.1237 -1.6762  0.4467
  114MOL    H3847724   7.328   5.906   2.750  0.2004  0.7202 -0.0542
  114MOL    H3947725   7.560   5.843   2.738 -0.9452  0.7108 -0.3285
  114MOL    H4047726   7.560   5.779   2.908  0.3395 -2.4220 -1.2498
  114MOL    H4147727   7.501   6.008   2.994 -1.0013 -0.3065 -0.3880
  114MOL    H4247728   7.654   6.002   2.911 -0.5956 -1.1471  0.0216
  114MOL    H4347729   7.507   6.077   2.836  1.1727 -1.0592 -2.9581
  114MOL    C4447730   7.138   5.447   2.795 -0.1680  0.3626 -0.2361
  114MOL    C4547731   7.031   5.493   2.892  0.2511  0.3692  0.0511
  114MOL    C4647732   6.891   5.475   2.835 -0.9169 -0.8412 -0.2927
  114MOL    C4747733   6.787   5.543   2.921  0.6068 -0.1656  0.0184
  114MOL    C4847734   6.657   5.541   2.841 -0.1911 -0.2549 -0.0007
  114MOL    C4947735   6.642   5.665   2.743 -0.2951  0.3180 -0.8968
  114MOL    C5047736   6.507   5.667   2.673  0.0794  0.2911  0.0804
  114MOL    H5147737   7.232   5.443   2.850 -0.6150  0.2664  0.5402
  114MOL    H5247738   7.121   5.343   2.768 -0.5934 -0.0129  1.3979
  114MOL    H5347739   7.053   5.599   2.908 -1.1734  0.5810  0.6894
  114MOL    H5447740   6.881   5.366   2.830  2.4653 -1.2955  1.3613
  114MOL    H5547741   6.889   5.508   2.731  1.3817  1.0845  0.2411
  114MOL    H5647742   6.775   5.485   3.013 -0.9997 -1.6419 -1.0934
  114MOL    H5747743   6.810   5.643   2.960 -0.0334 -1.2059  3.2358
  114MOL    H5847744   6.579   5.547   2.917 -0.2380 -1.4203  0.0569
  114MOL    H5947745   6.629   5.452   2.785 -2.8241  1.7845 -2.0426
  114MOL    H6047746   6.723   5.670   2.669  0.3645  0.0991 -0.1965
  114MOL    H6147747   6.648   5.756   2.802 -0.8445  0.8930 -1.7143
  114MOL    H6247748   6.499   5.578   2.611 -0.1759  1.5174 -1.6920
  114MOL    H6347749   6.490   5.756   2.612 -0.7105 -0.0791 -0.2518
  114MOL    H6447750   6.421   5.657   2.739 -0.9178  1.1439 -1.0516
  114MOL    C6547751   7.045   5.410   3.023  0.4752 -0.2709 -0.4185
  114MOL    C6647752   7.066   5.494   3.150 -0.1391 -0.3658  0.5464
  114MOL    C6747753   7.196   5.580   3.137 -1.0747 -0.2266  0.2282
  114MOL    C6847754   7.216   5.675   3.260 -0.2417 -0.3977  0.3824
  114MOL    C6947755   7.314   5.798   3.232  0.0475 -0.4598  0.1209
  114MOL    C7047756   7.352   5.869   3.361 -0.4181  0.0759  0.0353
  114MOL    C7147757   7.453   5.979   3.339  0.8530  0.6819  0.1789
  114MOL    H7247758   6.952   5.359   3.046  2.2089 -3.7385 -0.8613
  114MOL    H7347759   7.121   5.335   3.001  0.9080  0.1951 -0.5290
  114MOL    H7447760   6.979   5.559   3.160 -1.3159 -1.1769 -3.5110
  114MOL    H7547761   7.286   5.519   3.134 -1.2796 -0.5254  0.0990
  114MOL    H7647762   7.204   5.633   3.042 -0.6104 -1.1152 -0.2364
  114MOL    H7747763   7.115   5.715   3.271 -0.7991 -1.5961 -0.3238
  114MOL    H7847764   7.248   5.625   3.351 -1.2173 -2.0374 -0.1480
  114MOL    H7947765   7.408   5.753   3.201 -0.1470 -0.8290  0.0666
  114MOL    H8047766   7.271   5.871   3.164 -1.1048  0.4209  1.7411
  114MOL    H8147767   7.403   5.805   3.433 -1.0277 -0.8918 -0.3751
  114MOL    H8247768   7.272   5.915   3.419 -1.8281 -3.2118  0.7943
  114MOL    H8347769   7.416   6.045   3.260 -1.1698  0.5290  0.9697
  114MOL    H8447770   7.452   6.045   3.426 -1.7464 -2.3900  2.5515
  114MOL    H8547771   7.552   5.942   3.311  0.3321 -0.5046 -0.1236
  114MOL    C8647772   7.078   5.400   3.272  0.2157 -0.6269  0.4029
  114MOL    C8747773   6.979   5.436   3.390 -0.4941  0.1983  0.6808
  114MOL    C8847774   6.831   5.441   3.349  0.7996 -0.3144 -0.0064
  114MOL    C8947775   6.739   5.496   3.460  0.0492 -0.1559  1.2266
  114MOL    C9047776   6.602   5.546   3.405 -0.5283 -0.1527 -0.2192
  114MOL    C9147777   6.513   5.600   3.518 -0.3076  0.3380  0.0908
  114MOL    C9247778   6.385   5.664   3.471  0.3657 -0.1511  0.8556
  114MOL    H9347779   7.049   5.303   3.232 -1.1667  0.6016 -1.6657
  114MOL    H9447780   7.181   5.393   3.307  0.7600 -0.5907 -1.1619
  114MOL    H9547781   7.000   5.538   3.423  1.2445  0.2208 -0.4271
  114MOL    H9647782   6.823   5.496   3.256  0.2797 -1.3608 -0.5852
  114MOL    H9747783   6.814   5.338   3.318  3.0505 -0.2792 -1.5461
  114MOL    H9847784   6.735   5.434   3.549 -1.2582 -1.8247  0.0354
  114MOL    H9947785   6.788   5.584   3.503 -2.8216  2.7693 -1.2197
  114MOL   H10047786   6.547   5.463   3.361  1.0037 -1.7150  0.7567
  114MOL   H10147787   6.623   5.622   3.330 -1.5916 -1.4942 -1.9290
  114MOL   H10247788   6.480   5.519   3.584  0.4040 -0.8753 -1.0075
  114MOL   H10347789   6.567   5.671   3.580  0.8112 -1.3197  1.0854
  114MOL   H10447790   6.341   5.704   3.563  0.8608 -1.2669  1.5859
  114MOL   H10547791   6.315   5.599   3.419 -0.2115  0.9268  0.2659
  114MOL   H10647792   6.412   5.748   3.407  1.1808  0.3676  1.8519
  114MOL   C10747793   7.004   5.338   3.511  0.3469  0.5851 -0.6650
  114MOL   C10847794   7.149   5.316   3.564 -1.1301  0.4378  0.1061
  114MOL   C10947795   7.214   5.441   3.638  0.3125 -0.1404 -0.1048
  114MOL   C11047796   7.369   5.442   3.656 -0.1778 -0.2571  0.0429
  114MOL   C11147797   7.454   5.449   3.529  0.0146  0.5526  0.4770
  114MOL   C11247798   7.594   5.502   3.551 -0.7916 -0.5047  0.8834
  114MOL   C11347799   7.676   5.523   3.431  0.3934  0.2940 -0.6748
  114MOL   H11447800   6.944   5.248   3.501 -0.5966  1.1570 -0.2358
  114MOL   H11547801   6.958   5.389   3.595  1.7349 -0.4071  0.7195
  114MOL   H11647802   7.214   5.291   3.480 -1.3888  1.6702 -0.4604
  114MOL   H11747803   7.169   5.459   3.735 -0.5106  1.9060 -0.8339
  114MOL   H11847804   7.179   5.521   3.572  0.9571 -1.5737 -2.2241
  114MOL   H11947805   7.389   5.538   3.703 -0.0450 -0.0017 -0.5290
  114MOL   H12047806   7.382   5.363   3.729 -0.5742 -0.5291 -0.1790
  114MOL   H12147807   7.415   5.528   3.465  0.7283  1.4025  1.0639
  114MOL   H12247808   7.461   5.355   3.474 -4.0257  0.8005 -0.6208
  114MOL   H12347809   7.583   5.598   3.603 -3.5570  1.0097 -2.2704
  114MOL   H12447810   7.652   5.441   3.620  3.5927  1.4155 -0.8883
  114MOL   H12547811   0.057   5.566   3.465  0.1399 -1.3301  2.2748
  114MOL   H12647812   7.698   5.427   3.386 -3.4138 -0.5577 -0.9210
  114MOL   H12747813   7.624   5.599   3.372 -0.1824  1.7162  1.5756
  114MOL   C12847814   7.155   5.195   3.658 -0.5005 -0.2426  0.6752
  114MOL   C12947815   7.130   5.055   3.589  0.6761  0.1668 -0.7522
  114MOL   C13047816   7.109   4.945   3.698  0.0601  0.4682 -0.5471
  114MOL   C13147817   6.974   4.954   3.782 -0.4480 -0.2847  0.2841
  114MOL   C13247818   6.862   4.872   3.727  0.1632 -0.7076  0.3246
  114MOL   C13347819   6.725   4.897   3.803  0.2460  0.0374 -0.8364
  114MOL   C13447820   6.616   4.797   3.759 -0.3609 -0.4539 -0.0451
  114MOL   H13547821   7.260   5.188   3.686 -0.7826 -1.5069  1.4089
  114MOL   H13647822   7.096   5.223   3.745  1.2727 -0.1529  1.8699
  114MOL   H13747823   7.039   5.055   3.529  1.1611 -2.8041 -1.5714
  114MOL   H13847824   7.189   4.947   3.772 -0.4161 -1.3255  0.0497
  114MOL   H13947825   7.111   4.845   3.654 -1.6960 -0.4129  1.3440
  114MOL   H14047826   6.941   5.057   3.782  1.1818  0.2606 -0.5313
  114MOL   H14147827   7.010   4.928   3.882  0.4772 -2.0913 -0.5018
  114MOL   H14247828   6.895   4.768   3.722  0.9752 -0.3764 -1.7092
  114MOL   H14347829   6.839   4.893   3.623  1.1853 -1.8441 -0.1349
  114MOL   H14447830   6.695   5.000   3.784  0.5891  0.3396  0.2256
  114MOL   H14547831   6.742   4.899   3.911  0.3813  3.0704 -0.8788
  114MOL   H14647832   6.517   4.831   3.789 -1.4829 -1.6294 -2.2853
  114MOL   H14747833   6.638   4.696   3.792  1.7973 -0.1500 -0.4634
  114MOL   H14847834   6.623   4.785   3.651 -2.7081  0.4568 -0.3342
  114MOL   C14947835   7.257   5.008   3.503 -0.1247 -0.7773 -0.4623
  114MOL   C15047836   7.243   5.017   3.346  0.2227  0.1571 -0.3598
  114MOL   C15147837   7.145   4.907   3.292  0.0465  0.2863  0.2633
  114MOL   C15247838   7.091   4.937   3.149 -0.5768 -0.3403 -0.6240
  114MOL   C15347839   6.982   4.840   3.094 -0.1501  0.6144  0.0505
  114MOL   C15447840   6.980   4.869   2.943  0.6080 -0.4447  0.0729
  114MOL   C15547841   6.872   4.779   2.870 -0.2115 -0.4980  0.5048
  114MOL   H15647842   7.347   5.061   3.534 -0.2322 -0.9482  0.1490
  114MOL   H15747843   7.276   4.901   3.515 -2.7193 -1.2908 -0.5888
  114MOL   H15847844   7.208   5.118   3.324 -2.6779 -0.4558  1.1878
  114MOL   H15947845   7.200   4.813   3.287 -1.4837 -0.6392  0.5366
  114MOL   H16047846   7.062   4.889   3.359 -1.5822 -0.9051 -2.0034
  114MOL   H16147847   7.173   4.942   3.077 -1.0148  0.9192 -1.0330
  114MOL   H16247848   7.049   5.037   3.151 -0.0353 -0.1257  1.7367
  114MOL   H16347849   6.882   4.853   3.137  0.4481 -0.3583  1.7920
  114MOL   H16447850   7.007   4.735   3.106  1.0709  1.0304  1.3574
  114MOL   H16547851   7.077   4.849   2.898  0.8160  0.7098  0.0097
  114MOL   H16647852   6.957   4.972   2.915  0.0338 -1.2334 -2.6005
  114MOL   H16747853   6.771   4.819   2.872  0.0233  0.0400  2.2789
  114MOL   H16847854   6.865   4.681   2.916  0.0353 -0.3603  0.8388
  114MOL   H16947855   6.900   4.762   2.766  1.8035  3.0788  0.3650
  114MOL   C17047856   7.382   5.006   3.268  0.3648  0.0510 -0.1898
  114MOL   C17147857   7.478   4.885   3.298  0.5961 -0.3742 -0.0441
  114MOL   C17247858   7.568   4.856   3.170  0.5589  0.1761  0.2211
  114MOL   C17347859   7.535   4.729   3.087  0.4932 -0.2346 -0.2415
  114MOL   C17447860   7.655   4.712   2.989 -0.3371  0.4747 -0.2780
  114MOL   C17547861   7.631   4.605   2.886  0.4917 -0.2591 -0.2127
  114MOL   C17647862   0.034   4.580   2.791  0.1195  0.0207 -0.1349
  114MOL   H17747863   7.428   5.100   3.300 -0.8187  0.6282 -0.1455
  114MOL   H17847864   7.359   5.014   3.162  1.7294 -0.4834 -0.5367
  114MOL   H17947865   7.408   4.802   3.311  0.0724  0.1258  0.3004
  114MOL   H18047866   7.670   4.847   3.209  0.2841  0.5800  1.0461
  114MOL   H18147867   7.566   4.942   3.104 -0.0116  0.6599  0.8629
  114MOL   H18247868   7.441   4.747   3.034  0.2374 -1.1851 -0.1150
  114MOL   H18347869   7.509   4.648   3.155 -1.6720 -0.0891 -0.8724
  114MOL   H18447870   0.035   4.698   3.043  0.7135  1.8484 -1.6870
  114MOL   H18547871   7.669   4.805   2.933 -3.4576  0.5877 -0.9488
  114MOL   H18647872   7.545   4.628   2.823 -0.9007 -0.7509  1.4687
  114MOL   H18747873   7.604   4.511   2.935  1.6446  0.3436  1.6206
  114MOL   H18847874   0.019   4.486   2.740  0.0331 -0.4963  0.8252
  114MOL   H18947875   0.119   4.571   2.860  0.5216  1.4629 -0.4238
  114MOL   H19047876   0.054   4.664   2.724  0.4742  0.4875  0.5377
  114MOL   C19147877   7.573   4.895   3.426 -0.9815  0.2857  0.0329
  114MOL   C19247878   7.644   4.771   3.469  0.4442  0.0775 -0.6522
  114MOL   C19347879   0.056   4.806   3.554  0.5285  0.1812 -0.3966
  114MOL   C19447880   0.176   4.873   3.489  0.5930 -0.1128  0.6176
  114MOL   C19547881   0.290   4.913   3.582 -1.1196 -0.2744 -0.0454
  114MOL   C19647882   0.414   4.985   3.515 -0.3955 -0.4893 -0.2194
  114MOL   C19747883   0.508   5.042   3.621 -0.6787 -0.0725  0.0388
  114MOL   H19847884   7.515   4.931   3.511 -0.0245  1.0641  0.3630
  114MOL   H19947885   7.640   4.979   3.405 -1.8813  0.6969 -1.2281
  114MOL   H20047886   7.676   4.721   3.378 -0.8575 -0.5825 -0.7603
  114MOL   H20147887   0.096   4.712   3.590 -1.1284 -0.3816  0.0266
  114MOL   H20247888   0.023   4.865   3.639 -1.4829  2.4168 -2.6296
  114MOL   H20347889   0.154   4.956   3.421  0.9545 -1.9572 -1.8399
  114MOL   H20447890   0.205   4.795   3.419 -2.5762 -0.9397  0.1626
  114MOL   H20547891   0.247   4.978   3.658 -3.6236 -0.3044 -1.3845
  114MOL   H20647892   0.315   4.821   3.634 -1.6785  0.5380  1.6972
  114MOL   H20747893   0.393   5.074   3.456 -0.8721 -0.1534  0.4489
  114MOL   H20847894   0.475   4.915   3.458  1.6880  0.6907  0.4724
  114MOL   H20947895   0.614   5.042   3.592 -0.7312  0.4520 -0.1565
  114MOL   H21047896   0.488   4.992   3.715  1.2409  1.8959  1.5482
  114MOL   H21147897   0.488   5.147   3.639 -1.0655  0.2504 -2.1084
  114MOL   C21247898   7.540   4.685   3.549  0.4449 -0.8002  0.5736
  114MOL   C21347899   7.579   4.541   3.586 -0.1166 -0.6581 -0.4713
  114MOL   C21447900   7.474   4.464   3.661 -0.0913  0.9535  0.6834
  114MOL   C21547901   7.432   4.535   3.788  0.3191  0.0591 -0.4003
  114MOL   C21647902   7.344   4.456   3.888  0.0473 -0.7282  0.3163
  114MOL   C21747903   7.262   4.554   3.979 -0.4122  0.0140 -0.5850
  114MOL   C21847904   7.176   4.658   3.900 -0.1620 -0.5947 -0.7789
  114MOL   H21947905   7.447   4.685   3.493  0.6072 -0.7196  0.3046
  114MOL   H22047906   7.525   4.742   3.641  0.2342 -1.1650  0.7689
  114MOL   H22147907   7.663   4.545   3.656 -1.6053 -4.3050  1.6531
  114MOL   H22247908   7.389   4.440   3.597  0.4945  2.1568 -0.5626
  114MOL   H22347909   7.510   4.368   3.698  2.5357  0.5577 -2.6447
  114MOL   H22447910   7.376   4.623   3.755  2.0699  1.2738 -0.1759
  114MOL   H22547911   7.520   4.566   3.844  1.3763 -2.4927 -0.5581
  114MOL   H22647912   7.276   4.385   3.842  0.1297  0.0579 -1.0239
  114MOL   H22747913   7.414   4.404   3.954  2.1691  0.9965 -0.4982
  114MOL   H22847914   7.198   4.492   4.041 -0.4260  1.7345  1.1496
  114MOL   H22947915   7.328   4.615   4.041 -3.0267  1.1806  1.1116
  114MOL   H23047916   7.226   4.751   3.873 -0.2401 -0.7444 -1.4347
  114MOL   H23147917   7.099   4.693   3.968  0.8625 -0.1743  0.1888
  114MOL   H23247918   7.130   4.606   3.817  1.0686 -2.1575 -0.5061
  114MOL   C23347919   7.630   4.462   3.460  0.4498 -0.1092  0.1687
  114MOL   C23447920   7.695   4.326   3.474 -0.5370  0.8082 -0.0136
  114MOL   C23547921   0.018   4.258   3.334 -0.1875 -0.0904 -0.0683
  114MOL   C23647922   0.145   4.318   3.264 -0.1513 -0.3624  0.3196
  114MOL   C23747923   0.182   4.249   3.133 -0.9164 -0.5089 -0.1282
  114MOL   C23847924   0.106   4.304   3.015 -0.3414  0.1106  0.0629
  114MOL   C23947925   0.157   4.241   2.891  0.7734  0.1514 -0.2117
  114MOL   H24047926   7.706   4.527   3.417 -0.2140  1.0237  0.6636
  114MOL   H24147927   7.553   4.455   3.382  0.2165 -2.3385  0.5852
  114MOL   H24247928   7.611   4.261   3.500 -0.4579  0.3695 -0.8457
  114MOL   H24347929   7.644   4.259   3.269  0.8549  1.5934 -1.4885
  114MOL   H24447930   0.047   4.155   3.354 -1.7610 -0.3393  1.0185
  114MOL   H24547931   0.233   4.327   3.327  0.9308  0.7692 -1.3084
  114MOL   H24647932   0.131   4.424   3.242  0.7103 -0.4692 -0.7665
  114MOL   H24747933   0.182   4.140   3.139  0.2977 -0.4850  0.4580
  114MOL   H24847934   0.289   4.264   3.118 -1.3270  0.5389 -2.1042
  114MOL   H24947935   7.712   4.283   3.013 -0.5174  0.9985 -0.0418
  114MOL   H25047936   0.129   4.411   3.017  0.1170  0.0257 -0.3802
  114MOL   H25147937   0.264   4.219   2.896  0.6905 -0.2587 -0.1995
  114MOL   H25247938   0.101   4.149   2.876  1.6722 -0.5000  0.3580
  114MOL   H25347939   0.144   4.308   2.806 -4.9906 -1.6704 -1.0055
  114MOL   C25447940   0.100   4.326   3.579  0.1318  0.6677  0.0557
  114MOL   C25547941   0.137   4.193   3.640  0.0773  0.3421  0.1341
  114MOL   C25647942   0.024   4.128   3.717  0.5849 -0.4264  0.2443
  114MOL   C25747943   0.052   3.981   3.764  0.4340 -0.5182  0.4006
  114MOL   C25847944   0.051   3.880   3.652 -0.0945 -0.0825 -0.0223
  114MOL   C25947945   0.117   3.749   3.690  0.5934  0.2596  0.0594
  114MOL   C26047946   0.111   3.655   3.567  0.2358 -0.8821  0.7496
  114MOL   H26147947   0.090   4.394   3.663  0.7139 -0.5938  1.1823
  114MOL   H26247948   0.190   4.371   3.538 -0.2696 -1.2069 -3.0511
  114MOL   H26347949   0.162   4.121   3.561 -1.9747 -2.1962  1.7094
  114MOL   H26447950   7.643   4.124   3.662  0.3664 -2.3153  0.7036
  114MOL   H26547951   0.010   4.190   3.806 -0.4588 -0.7886  0.3428
  114MOL   H26647952   0.142   3.988   3.825  0.0254  0.7018  0.8854
  114MOL   H26747953   7.689   3.948   3.835 -0.8899  3.0333  0.7501
  114MOL   H26847954   0.101   3.923   3.566  2.8604 -3.8422 -0.3294
  114MOL   H26947955   7.659   3.867   3.624 -0.2041 -1.1182  0.8183
  114MOL   H27047956   0.222   3.761   3.718  0.2122 -0.5980  1.9455
  114MOL   H27147957   0.065   3.697   3.771 -0.3667  0.3639 -0.4806
  114MOL   H27247958   0.145   3.559   3.607  2.6184 -0.5211 -0.3228
  114MOL   H27347959   0.005   3.646   3.540  1.0023 -2.4383 -1.8967
  114MOL   H27447960   0.168   3.700   3.486 -0.7308  1.0627  1.1223
  114MOL   C27547961   0.255   4.216   3.737 -0.2407 -0.1452  1.3851
  114MOL   C27647962   0.378   4.139   3.702 -0.2590  0.6041  0.2447
  114MOL   C27747963   0.474   4.134   3.821  0.3312  0.3423 -0.0604
  114MOL   C27847964   0.423   4.026   3.931  0.3548 -0.8580  0.2883
  114MOL   C27947965   0.514   4.040   4.056  0.2954  0.0412  0.0520
  114MOL   C28047966   0.660   4.010   4.050 -0.1311 -0.4160 -0.2684
  114MOL   C28147967   0.692   3.864   4.087  0.2359  0.4056 -0.4876
  114MOL   H28247968   0.231   4.194   3.841  0.4008 -2.2643  1.1072
  114MOL   H28347969   0.287   4.320   3.739  2.9485 -1.0325 -0.7723
  114MOL   H28447970   0.350   4.038   3.669  0.3435  0.8752 -1.1449
  114MOL   H28547971   0.581   4.124   3.805  0.4090  0.3268  0.4381
  114MOL   H28647972   0.477   4.234   3.864  1.0497  0.9711 -1.5528
  114MOL   H28747973   0.435   3.925   3.892 -1.4407 -1.3914  1.0697
  114MOL   H28847974   0.321   4.037   3.967 -0.0252  0.4529 -1.1530
  114MOL   H28947975   0.473   3.982   4.139  1.5717 -1.2434 -0.1781
  114MOL   H29047976   0.507   4.136   4.107 -0.9452  0.3718 -0.7286
  114MOL   H29147977   0.714   4.035   3.959  2.8203  3.5984  2.4741
  114MOL   H29247978   0.702   4.075   4.126 -1.1909 -1.0870  0.9071
  114MOL   H29347979   0.618   3.824   4.155 -1.4828  0.2412 -2.3925
  114MOL   H29447980   0.779   3.865   4.152  0.1776 -1.6315 -0.3727
  114MOL   H29547981   0.708   3.796   4.003 -0.3046 -1.9242  1.2697
  114MOL   C29647982   0.442   4.218   3.588 -0.4926  0.4140 -0.1207
  114MOL   C29747983   0.553   4.141   3.512  0.8746 -0.4943 -0.1977
  114MOL   C29847984   0.680   4.232   3.484 -0.5082  0.1268  0.5124
  114MOL   C29947985   0.767   4.277   3.607  0.7464 -0.5665  0.0071
  114MOL   C30047986   0.830   4.150   3.664  0.4360 -0.5209  0.0034
  114MOL   C30147987   0.967   4.107   3.611  0.5049  0.4427  0.2431
  114MOL   C30247988   1.001   3.957   3.641  0.6953 -0.9347 -0.3639
  114MOL   H30347989   0.372   4.256   3.513 -0.2711  2.4222  0.6416
  114MOL   H30447990   0.484   4.314   3.619 -1.4242  0.2800  1.6283
  114MOL   H30547991   0.581   4.061   3.580 -1.1256  1.4734  3.0602
  114MOL   H30647992   0.744   4.179   3.414 -0.9732  0.8698 -0.4822
  114MOL   H30747993   0.648   4.323   3.434  0.7171 -0.3032 -1.0664
  114MOL   H30847994   0.719   4.326   3.690  0.4417 -3.0092  1.3235
  114MOL   H30947995   0.843   4.344   3.566 -0.4429  0.9391  0.2398
  114MOL   H31047996   0.761   4.066   3.671 -2.4073  1.8071  1.5665
  114MOL   H31147997   0.840   4.172   3.770  0.2885 -0.1144 -0.0636
  114MOL   H31247998   0.964   4.130   3.505 -1.1637 -0.5583  0.0586
  114MOL   H31347999   1.051   4.169   3.643 -1.3617  2.5868  1.1094
  114MOL   H31448000   1.108   3.940   3.651  0.5837 -1.3710  0.0856
  114MOL   H31548001   0.966   3.916   3.736  1.2418 -2.0102 -0.6222
  114MOL   H31648002   0.968   3.884   3.567 -0.6281 -3.8319  2.9064
  114MOL   C31748003   0.488   4.084   3.379  0.6409 -0.7297 -0.3132
  114MOL   C31848004   0.552   3.955   3.322  0.1229 -0.3897  0.0166
  114MOL   C31948005   0.488   3.831   3.393 -0.3146 -0.1131  0.0655
  114MOL   C32048006   0.601   3.727   3.438 -0.2517  0.1545  0.0885
  114MOL   C32148007   0.694   3.755   3.558  0.1848  0.5982  0.6364
  114MOL   C32248008   0.618   3.771   3.690 -0.8879 -0.0749 -0.8668
  114MOL   C32348009   0.522   3.660   3.725 -0.2024 -0.1962  0.1891
  114MOL   H32448010   0.496   4.169   3.311  0.3124  0.8316  1.5561
  114MOL   H32548011   0.384   4.058   3.399 -0.1172  1.3154 -1.4488
  114MOL   H32648012   0.661   3.957   3.330  0.0554  1.6600  0.6668
  114MOL   H32748013   0.426   3.777   3.322 -1.0576  1.2120 -0.3183
  114MOL   H32848014   0.430   3.863   3.481 -2.2232 -3.3489  0.0662
  114MOL   H32948015   0.663   3.709   3.350 -0.2864 -0.6743  0.2325
  114MOL   H33048016   0.559   3.631   3.466  2.0308 -0.4791  1.5351
  114MOL   H33148017   0.755   3.842   3.529 -0.4492  1.0006  0.4978
  114MOL   H33248018   0.761   3.669   3.562 -2.0576 -1.0911  2.6187
  114MOL   H33348019   0.564   3.866   3.696 -1.2155 -0.2413 -1.1251
  114MOL   H33448020   0.693   3.765   3.768 -3.7662  2.3566  2.2441
  114MOL   H33548021   0.499   3.671   3.831  0.3049  0.8253  0.1958
  114MOL   H33648022   0.554   3.556   3.722 -3.7399 -1.3730  1.2542
  114MOL   H33748023   0.435   3.663   3.659  1.6031  0.0434 -2.2499
  114MOL   C33848024   0.517   3.955   3.168 -0.3576 -0.0737  0.4031
  114MOL   C33948025   0.564   3.836   3.084  0.0787 -0.1075  0.0035
  114MOL   C34048026   0.715   3.860   3.060 -0.0953  0.2144  0.0907
  114MOL   C34148027   0.798   3.745   2.994 -0.0108 -1.0793  0.4356
  114MOL   C34248028   0.951   3.778   2.999  0.3545  0.4497  0.2617
  114MOL   C34348029   1.049   3.668   2.950 -0.0501 -0.2172  0.0163
  114MOL   C34448030   1.195   3.695   2.986 -0.2372  0.1777 -0.4902
  114MOL   H34548031   0.569   4.040   3.122 -0.3305 -0.4280 -0.2250
  114MOL   H34648032   0.410   3.942   3.154  0.0789 -1.6584 -1.6139
  114MOL   H34748033   0.549   3.749   3.148  0.2681 -0.6392 -0.6653
  114MOL   H34848034   0.733   3.944   2.993  0.0612  0.7347  0.7795
  114MOL   H34948035   0.757   3.897   3.153 -1.4893  1.3107  0.2967
  114MOL   H35048036   0.772   3.730   2.889  0.2282 -1.6718  0.4626
  114MOL   H35148037   0.785   3.660   3.061  5.0819 -1.7506  0.7133
  114MOL   H35248038   0.974   3.876   2.957  0.7169 -0.0735 -0.7791
  114MOL   H35348039   0.985   3.787   3.102 -0.0017  2.5160  0.2217
  114MOL   H35448040   1.029   3.577   3.007 -0.3413 -0.0677  0.1493
  114MOL   H35548041   1.040   3.634   2.847  1.0477 -1.9350  0.4574
  114MOL   H35648042   1.204   3.677   3.093  1.9229 -3.5653 -1.2069
  114MOL   H35748043   1.213   3.802   2.972 -1.5382  0.2124 -2.0686
  114MOL   H35848044   1.266   3.626   2.941 -1.1319 -1.2919  0.3318
  114MOL   C35948045   0.485   3.803   2.951  0.1804 -0.0357 -0.9595
  114MOL   C36048046   0.335   3.750   2.968  0.3058 -1.5847  0.1966
  114MOL   C36148047   0.280   3.718   2.825 -0.0111 -0.1238 -0.2717
  114MOL   C36248048   0.221   3.843   2.757 -0.6234  0.2981 -0.1448
  114MOL   C36348049   0.164   3.810   2.619  0.2571 -0.2352  0.5626
  114MOL   C36448050   0.161   3.937   2.535 -0.6370  0.0213 -0.0801
  114MOL   C36548051   0.041   4.034   2.568 -0.7401 -0.1395  1.2878
  114MOL   H36648052   0.545   3.733   2.893  0.6993  0.0064 -0.4743
  114MOL   H36748053   0.479   3.897   2.895 -2.6912 -0.4424 -1.4416
  114MOL   H36848054   0.269   3.825   3.012  0.3871 -0.9546 -0.7316
  114MOL   H36948055   0.360   3.670   2.768 -0.9611 -1.7347 -0.2875
  114MOL   H37048056   0.196   3.649   2.833  1.3128 -1.5478  1.9135
  114MOL   H37148057   0.140   3.872   2.824 -0.1917  1.8279 -0.2709
  114MOL   H37248058   0.291   3.927   2.760 -2.0341  1.4364  1.4471
  114MOL   H37348059   0.225   3.735   2.569  1.9374  1.7031 -0.3661
  114MOL   H37448060   0.068   3.759   2.624 -0.3361  0.8949  0.8118
  114MOL   H37548061   0.253   3.993   2.553 -1.1091  1.6714 -2.5777
  114MOL   H37648062   0.169   3.916   2.429  1.0125 -1.3861  0.3050
  114MOL   H37748063   7.663   3.980   2.543  0.5279 -1.0361 -1.5788
  114MOL   H37848064   0.031   4.051   2.675  1.7714 -0.2399  1.5613
  114MOL   H37948065   0.041   4.130   2.517  1.0235 -0.4112  0.7422
  114MOL   C38048066   0.322   3.621   3.055 -0.8662  0.0357 -0.1915
  114MOL   C38148067   0.189   3.564   3.090  0.1400 -0.1930 -0.3255
  114MOL   C38248068   0.205   3.415   3.118  0.3873 -0.7193  0.2807
  114MOL   C38348069   0.231   3.332   2.994 -0.1990 -0.0808 -0.5634
  114MOL   C38448070   0.232   3.182   3.021  0.2666  0.3142 -0.1291
  114MOL   C38548071   0.256   3.089   2.905 -0.6227 -0.4234  0.4200
  114MOL   C38648072   0.393   3.085   2.830  0.3727  0.1392  0.0357
  114MOL   H38748073   0.402   3.562   3.011 -0.6522  0.8763 -0.9666
  114MOL   H38848074   0.363   3.649   3.152 -0.3273  0.9221 -0.6604
  114MOL   H38948075   0.133   3.574   2.997  0.4914 -0.3184 -0.5490
  114MOL   H39048076   0.123   3.375   3.178 -0.3511 -1.7847 -1.3838
  114MOL   H39148077   0.293   3.407   3.181 -1.5377 -0.9350  2.9985
  114MOL   H39248078   0.158   3.354   2.916 -0.3871 -3.1336 -1.2914
  114MOL   H39348079   0.324   3.356   2.943 -0.8229 -0.8413 -2.0891
  114MOL   H39448080   0.314   3.161   3.090  2.2153  1.8176 -1.8942
  114MOL   H39548081   0.139   3.152   3.069 -0.2249  0.8297 -0.7422
  114MOL   H39648082   0.165   3.107   2.847  0.5401  0.0439 -1.2941
  114MOL   H39748083   0.242   2.992   2.952  0.9206 -1.0126 -0.3155
  114MOL   H39848084   0.418   3.182   2.786  0.1810 -0.3049 -1.0561
  114MOL   H39948085   0.383   3.022   2.742 -2.4150  0.1577  0.2908
  114MOL   H40048086   0.471   3.044   2.894  2.2180  2.5099 -0.6019
  114MOL   C40148087   0.116   3.637   3.200 -0.0236  0.6250  0.3000
  114MOL   C40248088   0.051   3.775   3.156 -0.7462  0.5002 -0.1076
  114MOL   C40348089   7.662   3.803   3.268 -0.3998 -0.5297 -0.0679
  114MOL   C40448090   7.574   3.928   3.252  0.2715  0.0525  0.4942
  114MOL   C40548091   7.473   3.949   3.362 -0.1310  0.0727  0.7397
  114MOL   C40648092   7.377   4.070   3.333  0.3536 -0.5134 -1.1013
  114MOL   C40748093   7.273   4.097   3.450 -0.0574  0.2020  0.3325
  114MOL   H40848094   0.188   3.662   3.278  0.2464  1.0267 -0.0693
  114MOL   H40948095   0.040   3.572   3.242  0.8043 -0.4091  0.2137
  114MOL   H41048096   7.708   3.766   3.063 -1.4396 -0.0333  0.3533
  114MOL   H41148097   7.703   3.805   3.369  0.7960 -2.3693 -0.4845
  114MOL   H41248098   7.586   3.725   3.269 -0.1263 -0.8016 -0.5823
  114MOL   H41348099   7.521   3.928   3.157  0.5027  3.2919  0.3273
  114MOL   H41448100   7.638   4.013   3.234 -0.4058  0.1921 -1.3729
  114MOL   H41548101   7.404   3.865   3.371 -2.0096  1.4705 -0.2480
  114MOL   H41648102   7.516   3.973   3.459  1.1929 -0.0535  0.1946
  114MOL   H41748103   7.447   4.152   3.316 -0.0374  0.4136  1.6320
  114MOL   H41848104   7.317   4.051   3.244 -2.0718  1.0967  0.1477
  114MOL   H41948105   7.201   4.179   3.442  0.0996  0.2709 -0.4613
  114MOL   H42048106   7.335   4.121   3.536  0.8441  0.6079 -0.4172
  114MOL   H42148107   7.222   4.005   3.478 -0.0315 -0.2275 -1.0167
  114MOL   H42248108   0.108   3.867   3.159 -1.5630  1.0578 -1.4554
  115MOL     C148109   7.234   1.606   6.949 -0.2681 -0.4084  0.7068
  115MOL     C248110   7.161   1.695   7.050 -0.4382  0.8339  0.1786
  115MOL     C348111   7.006   1.715   7.023 -0.3672  0.8334  0.0991
  115MOL     C448112   6.925   1.588   7.002 -0.8164 -0.5932  0.5499
  115MOL     C548113   6.777   1.608   6.987 -0.3076 -0.0520  0.2499
  115MOL     C648114   6.705   1.474   6.985  0.5200 -0.1214  0.0116
  115MOL     C748115   6.707   1.403   7.121 -0.0158 -0.2319  0.3765
  115MOL     H848116   7.220   1.655   6.852 -0.4688 -0.3531  0.7621
  115MOL     H948117   7.181   1.511   6.944 -0.2137 -0.3716 -0.8492
  115MOL    H1048118   7.167   1.647   7.147 -1.5312  0.0871 -0.1131
  115MOL    H1148119   6.965   1.760   7.114  1.2177  1.5604  0.4762
  115MOL    H1248120   6.993   1.785   6.941  0.1112 -0.4423 -1.0668
  115MOL    H1348121   6.954   1.537   6.910  1.7907  1.2003  0.3227
  115MOL    H1448122   6.939   1.510   7.077  0.7609 -1.2197 -0.3627
  115MOL    H1548123   6.773   1.660   6.891  1.4296  1.6529  1.0605
  115MOL    H1648124   6.741   1.663   7.073 -0.6281 -1.7241  1.2095
  115MOL    H1748125   6.758   1.416   6.910 -1.1501 -0.3916 -0.9875
  115MOL    H1848126   6.600   1.481   6.956  0.7896  0.5713 -0.8252
  115MOL    H1948127   6.697   1.295   7.110  0.8652 -0.3281  0.4768
  115MOL    H2048128   6.624   1.434   7.184 -0.3673 -0.2377 -0.0819
  115MOL    H2148129   6.799   1.413   7.180 -0.4732 -0.4877  1.1385
  115MOL    H2248130   7.335   1.599   6.989 -0.2799  1.8256  1.2108
  115MOL    C2348131   7.223   1.837   7.069  0.3723  0.3318 -0.6774
  115MOL    C2448132   7.364   1.854   7.134  0.1278 -0.1295  0.8162
  115MOL    C2548133   7.372   1.793   7.277 -0.3576 -0.1888  0.3644
  115MOL    C2648134   7.513   1.778   7.334  0.1063  0.0470 -0.2191
  115MOL    C2748135   7.509   1.770   7.491 -0.4312 -0.1608  0.2584
  115MOL    C2848136   7.642   1.769   7.556  0.2904 -0.2164  0.0489
  115MOL    C2948137   7.628   1.803   7.703 -0.1663  0.8070  0.4440
  115MOL    H3048138   7.238   1.897   6.980  0.5004  1.7100  0.2524
  115MOL    H3148139   7.150   1.888   7.133  0.2712 -0.1192 -0.4288
  115MOL    H3248140   7.437   1.799   7.075 -0.1100 -0.2164  0.6007
  115MOL    H3348141   7.324   1.695   7.282 -0.0570 -0.2954  1.4496
  115MOL    H3448142   7.311   1.856   7.343  2.3078  2.9914 -0.0841
  115MOL    H3548143   7.579   1.857   7.298  2.1337 -1.2468  0.5752
  115MOL    H3648144   7.566   1.689   7.300  1.5694 -0.4790  3.2062
  115MOL    H3748145   7.459   1.680   7.526 -2.4744  0.3340 -1.3097
  115MOL    H3848146   7.461   1.860   7.528  1.6271  0.9115  0.3916
  115MOL    H3948147   7.706   1.841   7.505  0.6331 -0.6742 -0.1704
  115MOL    H4048148   7.671   1.666   7.534 -0.0845 -0.1547 -0.7579
  115MOL    H4148149   7.582   1.719   0.042  0.9104  0.8288  1.4438
  115MOL    H4248150   0.014   1.812   0.033  0.0750 -0.8284  0.2706
  115MOL    H4348151   7.567   1.887   0.024 -1.9862 -0.3085 -0.0012
  115MOL    C4448152   7.402   2.004   7.128 -0.2768 -0.0564 -0.4814
  115MOL    C4548153   7.480   2.052   7.004  0.0091  0.0288  0.0446
  115MOL    C4648154   7.437   2.196   6.964 -0.3917  0.3317  0.0611
  115MOL    C4748155   7.483   2.310   7.056  0.1580  0.4164  0.1964
  115MOL    C4848156   7.395   2.431   7.032  0.4245 -0.5654 -0.0199
  115MOL    C4948157   7.448   2.561   7.097 -0.0578  0.7995  0.3902
  115MOL    C5048158   7.421   2.684   7.010  0.2152 -0.1804 -0.0555
  115MOL    H5148159   7.465   2.036   7.212 -0.7736 -0.6622  0.1274
  115MOL    H5248160   7.319   2.073   7.139 -0.1037  0.5719 -2.9467
  115MOL    H5348161   7.450   1.988   6.921  3.0879  0.3828 -1.3933
  115MOL    H5448162   7.329   2.188   6.952 -0.1578 -1.7470 -1.0266
  115MOL    H5548163   7.456   2.224   6.860 -2.6387  2.6556  0.2444
  115MOL    H5648164   7.492   2.270   7.157 -2.1480 -0.7130 -0.0181
  115MOL    H5748165   7.585   2.335   7.026  0.5340 -1.1851  0.0939
  115MOL    H5848166   7.292   2.413   7.061  0.7175  0.6532  1.8511
  115MOL    H5948167   7.388   2.449   6.925 -0.5521 -4.2146 -0.6387
  115MOL    H6048168   7.555   2.551   7.117 -0.1487 -0.8009  0.1706
  115MOL    H6148169   7.400   2.579   7.194  1.7414 -1.8276  1.8413
  115MOL    H6248170   7.501   2.695   6.937  1.5546  1.3686  1.5938
  115MOL    H6348171   7.440   2.774   7.069  1.2160 -0.2939 -0.1865
  115MOL    H6448172   7.321   2.692   6.968 -0.7132 -1.0277  1.9394
  115MOL    C6548173   7.633   2.042   7.014  0.2313 -0.7945 -0.0230
  115MOL    C6648174   7.695   1.898   7.022 -0.2824  0.3806 -0.1425
  115MOL    C6748175   0.121   1.895   7.094  0.6276  0.4132  0.0309
  115MOL    C6848176   0.234   1.975   7.030 -0.0745 -0.1372  0.0775
  115MOL    C6948177   0.349   2.005   7.129 -0.2946 -0.0508  0.2393
  115MOL    C7048178   0.311   2.123   7.221  0.1497 -0.3781 -0.3131
  115MOL    C7148179   0.405   2.124   7.341 -0.0217 -0.0102 -1.1287
  115MOL    H7248180   7.670   2.085   6.921 -0.3444 -1.2323 -0.4606
  115MOL    H7348181   7.667   2.097   7.102 -0.8547  2.5683 -1.6058
  115MOL    H7448182   7.623   1.852   7.091 -0.1627 -0.2693 -0.4514
  115MOL    H7548183   0.105   1.934   7.195 -0.8635  0.7167 -0.3070
  115MOL    H7648184   0.163   1.796   7.110  1.0568  0.4946 -0.5962
  115MOL    H7748185   0.278   1.920   6.946  0.5306 -0.2879  0.4846
  115MOL    H7848186   0.187   2.066   6.995 -2.0429 -0.4818  1.7260
  115MOL    H7948187   0.359   1.908   7.178 -0.9018 -1.7406 -2.8497
  115MOL    H8048188   0.435   2.045   7.074 -0.4237  2.1316  1.5616
  115MOL    H8148189   0.208   2.117   7.258  0.3756 -0.7219  0.2687
  115MOL    H8248190   0.312   2.219   7.170  0.1684  1.0470  2.2599
  115MOL    H8348191   0.391   2.027   7.389 -0.6987  0.2165 -0.8681
  115MOL    H8448192   0.512   2.133   7.324  0.5658 -0.1448  2.1921
  115MOL    H8548193   0.384   2.201   7.416  0.5535 -2.2138  1.3744
  115MOL    C8648194   7.706   1.832   6.889  0.5720 -0.0185  0.3032
  115MOL    C8748195   0.018   1.678   6.862 -0.3606  0.1727 -0.4811
  115MOL    C8848196   7.645   1.570   6.936  0.2474  0.0983  0.3146
  115MOL    C8948197   7.697   1.538   7.071  0.5574  0.0480 -0.2382
  115MOL    C9048198   7.625   1.418   7.129 -0.6957 -0.1394  0.4280
  115MOL    C9148199   7.658   1.385   7.276 -0.7866 -0.4084  0.9664
  115MOL    C9248200   7.564   1.288   7.333 -0.2484  0.5576 -0.5464
  115MOL    H9348201   7.611   1.855   6.840  0.2054  0.4245  1.2114
  115MOL    H9448202   0.073   1.884   6.838  0.9719 -1.1644 -0.2658
  115MOL    H9548203   0.123   1.665   6.888 -0.1125  1.2524 -0.9411
  115MOL    H9648204   7.542   1.597   6.960 -0.1000 -2.1581  1.5286
  115MOL    H9748205   7.643   1.479   6.876 -1.5274  0.3399 -0.0365
  115MOL    H9848206   0.087   1.508   7.055  0.5051 -0.3102  0.0932
  115MOL    H9948207   7.696   1.631   7.129  1.0609  0.1405 -0.3752
  115MOL   H10048208   7.664   1.336   7.069  0.3730 -0.3897  1.4400
  115MOL   H10148209   7.517   1.422   7.113 -0.8059 -0.0741  1.1643
  115MOL   H10248210   0.046   1.348   7.290 -0.8634 -1.0699 -0.1091
  115MOL   H10348211   7.651   1.481   7.327  1.4261 -0.5922  1.6683
  115MOL   H10448212   7.461   1.325   7.324 -1.0952 -1.8479 -1.1369
  115MOL   H10548213   7.572   1.278   7.441  0.6624  1.6454 -0.5066
  115MOL   H10648214   7.582   1.188   7.294 -1.4226 -0.5177  1.5592
  115MOL   C10748215   0.004   1.641   6.712  0.4608 -0.0423 -0.0375
  115MOL   C10848216   7.589   1.671   6.629 -0.0480 -0.1602 -0.4975
  115MOL   C10948217   7.599   1.802   6.555  0.1886  0.3403 -0.5408
  115MOL   C11048218   7.469   1.865   6.513  0.8743 -0.0177 -0.7467
  115MOL   C11148219   7.484   2.015   6.474 -0.1105 -0.3467  0.0655
  115MOL   C11248220   7.472   2.113   6.592  0.2396  0.0590  0.5364
  115MOL   C11348221   7.480   2.260   6.543  0.5228 -0.1737  0.3361
  115MOL   H11448222   0.035   1.540   6.683 -2.5952 -1.0456  0.0682
  115MOL   H11548223   0.087   1.690   6.661  0.0653  2.4452  1.6559
  115MOL   H11648224   7.504   1.675   6.698 -0.3575  0.1268 -0.8988
  115MOL   H11748225   7.672   1.798   6.474 -0.7597 -1.1300 -1.3385
  115MOL   H11848226   7.648   1.869   6.627 -1.1265  0.6589  0.0765
  115MOL   H11948227   7.425   1.803   6.435  1.2324 -1.6927  0.3489
  115MOL   H12048228   7.395   1.856   6.593  1.0882 -1.8652 -0.7306
  115MOL   H12148229   7.420   2.052   6.393  3.2780  2.0081 -1.6607
  115MOL   H12248230   7.578   2.034   6.422  0.8708  0.4896  2.1053
  115MOL   H12348231   7.379   2.079   6.639  0.5406 -0.8192  0.5099
  115MOL   H12448232   7.550   2.102   6.667 -0.3738 -1.3017  1.0008
  115MOL   H12548233   7.559   2.272   6.468  2.6731  0.1972  2.5866
  115MOL   H12648234   7.378   2.284   6.513  0.0595  0.0598  2.0715
  115MOL   H12748235   7.513   2.332   6.618  1.6259 -2.0570  1.7073
  115MOL   C12848236   7.554   1.555   6.526 -1.0306  0.0186 -0.2187
  115MOL   C12948237   7.409   1.505   6.538  0.1669  0.0444  0.5535
  115MOL   C13048238   7.374   1.444   6.674  0.2940  0.2846  0.1028
  115MOL   C13148239   7.437   1.302   6.698 -0.5791 -0.0003 -0.5052
  115MOL   C13248240   7.423   1.249   6.846  0.2471  0.0528  0.3058
  115MOL   C13348241   7.497   1.109   6.865  0.1761  0.0645  0.2386
  115MOL   C13448242   7.500   1.072   7.012  0.3225 -0.6654 -0.2592
  115MOL   H13548243   7.576   1.577   6.421 -1.6567  0.1278 -0.3301
  115MOL   H13648244   7.621   1.473   6.552 -0.8587  0.0118 -0.6768
  115MOL   H13748245   7.348   1.593   6.519  0.7493  0.1536 -0.8991
  115MOL   H13848246   7.268   1.434   6.697  0.4158 -0.5328  0.3190
  115MOL   H13948247   7.404   1.505   6.759 -0.9199  2.4621 -0.9825
  115MOL   H14048248   7.544   1.311   6.680 -0.1579 -1.1460  1.3624
  115MOL   H14148249   7.401   1.226   6.629  2.5279 -2.6387  0.6679
  115MOL   H14248250   7.316   1.229   6.857  0.2087 -1.0772 -1.8763
  115MOL   H14348251   7.447   1.318   6.926  1.0308  0.4064 -0.2255
  115MOL   H14448252   7.598   1.119   6.825  1.2942 -1.9066  2.4587
  115MOL   H14548253   7.458   1.029   6.801  1.8216 -1.6684  1.3577
  115MOL   H14648254   7.520   1.156   7.078 -1.8233  1.9860 -2.9083
  115MOL   H14748255   7.574   0.997   7.041 -1.0022 -2.4522 -1.4118
  115MOL   H14848256   7.401   1.037   7.039  0.5242 -1.2698 -0.2860
  115MOL   C14948257   7.376   1.415   6.414  0.0776 -0.0558  0.0845
  115MOL   C15048258   7.230   1.376   6.395 -0.0978 -0.7235  0.2032
  115MOL   C15148259   7.193   1.241   6.333  0.0656 -0.4696 -0.4813
  115MOL   C15248260   7.259   1.117   6.399  0.2328  0.1423  0.1334
  115MOL   C15348261   7.235   0.988   6.319 -0.0910 -0.8959  0.6963
  115MOL   C15448262   7.229   0.863   6.405 -0.3465  0.5330  0.3416
  115MOL   C15548263   7.364   0.801   6.429 -0.2059  0.1303  0.0974
  115MOL   H15648264   7.397   1.465   6.319  0.4742  0.1995  0.3063
  115MOL   H15748265   7.434   1.323   6.420  0.2513  0.1006  0.8622
  115MOL   H15848266   7.190   1.376   6.497  2.2365  0.8995  1.1636
  115MOL   H15948267   7.087   1.223   6.347 -0.0605 -0.1181 -0.9782
  115MOL   H16048268   7.220   1.234   6.227 -0.8784 -0.8358 -0.7012
  115MOL   H16148269   7.222   1.107   6.502 -0.1164 -0.4577 -0.0466
  115MOL   H16248270   7.365   1.139   6.410 -0.1043  1.3827  1.0281
  115MOL   H16348271   7.298   0.971   6.232 -0.5054  0.8661  0.0079
  115MOL   H16448272   7.136   1.000   6.274  0.6845 -1.4243 -1.2135
  115MOL   H16548273   7.166   0.792   6.350  0.3487 -0.1194  0.3797
  115MOL   H16648274   7.174   0.886   6.496 -1.0490 -0.9341  0.2997
  115MOL   H16748275   7.352   0.719   6.499 -1.7221  0.5250  0.3366
  115MOL   H16848276   7.421   0.881   6.475  1.7285 -1.4199  0.4407
  115MOL   H16948277   7.411   0.774   6.334 -0.0931  2.2847 -0.4851
  115MOL   C17048278   7.154   1.482   6.323 -0.1679  0.0323 -0.2576
  115MOL   C17148279   7.001   1.492   6.376 -0.0997  0.2625 -0.5275
  115MOL   C17248280   6.980   1.570   6.509 -0.2130  0.6142  0.9129
  115MOL   C17348281   7.028   1.716   6.496 -0.5741  0.4191  0.0971
  115MOL   C17448282   6.991   1.802   6.620 -0.1361  0.1845 -0.0062
  115MOL   C17548283   7.045   1.943   6.607  0.5409  0.3059  0.3713
  115MOL   C17648284   7.058   2.016   6.736  0.5789  0.1917 -0.0230
  115MOL   H17748285   7.160   1.461   6.216 -1.4730 -0.1880 -0.2974
  115MOL   H17848286   7.200   1.580   6.334 -2.4050  1.0817  0.0804
  115MOL   H17948287   6.960   1.394   6.398  1.7376 -0.4653 -0.2248
  115MOL   H18048288   7.024   1.525   6.597 -3.3500 -0.3686  2.0566
  115MOL   H18148289   6.875   1.570   6.541 -0.5929 -1.4048 -0.2394
  115MOL   H18248290   6.998   1.757   6.400 -0.5084 -0.0047 -0.1047
  115MOL   H18348291   7.136   1.707   6.482 -0.6915  1.7683 -1.9106
  115MOL   H18448292   7.036   1.759   6.709  1.7524 -0.6044 -1.3114
  115MOL   H18548293   6.887   1.799   6.652 -0.4180  0.3612 -0.8878
  115MOL   H18648294   6.969   1.995   6.549  0.9630  2.0941  1.3731
  115MOL   H18748295   7.142   1.939   6.557 -0.0968  0.3698 -0.8976
  115MOL   H18848296   7.076   2.121   6.715 -3.1526  0.5126 -2.1131
  115MOL   H18948297   7.136   1.973   6.798  0.9438  1.8102  0.6618
  115MOL   H19048298   6.965   2.005   6.793  1.0741 -0.3943  0.6812
  115MOL   C19148299   6.909   1.558   6.266 -0.0400  0.5005 -1.1909
  115MOL   C19248300   6.853   1.461   6.161 -0.8199 -0.1320 -0.0496
  115MOL   C19348301   6.718   1.380   6.197 -0.9490  0.2949 -0.2323
  115MOL   C19448302   6.686   1.271   6.100 -0.2121  0.4711  0.3409
  115MOL   C19548303   6.588   1.168   6.164 -0.8762 -0.3102 -0.2358
  115MOL   C19648304   6.537   1.062   6.069  0.2081 -0.0714  0.8012
  115MOL   C19748305   6.636   0.941   6.057 -0.1785 -0.0202 -0.2302
  115MOL   H19848306   6.975   1.632   6.221  1.8661  0.1457  0.9463
  115MOL   H19948307   6.831   1.609   6.322  1.0291 -0.4202  1.2618
  115MOL   H20048308   6.922   1.379   6.143  0.0107  0.5154  0.1788
  115MOL   H20148309   6.633   1.448   6.198  1.1797  3.1087 -1.4760
  115MOL   H20248310   6.716   1.340   6.298 -2.4699  2.1669  0.5108
  115MOL   H20348311   6.776   1.221   6.065 -0.1688  0.0629  1.0367
  115MOL   H20448312   6.645   1.314   6.008  1.9208  1.7281 -0.0460
  115MOL   H20548313   6.625   1.120   6.254  0.3697  1.1572  0.0549
  115MOL   H20648314   6.507   1.232   6.200  0.0634 -0.0774  1.5144
  115MOL   H20748315   6.516   1.098   5.969  0.8084  1.4983  1.2132
  115MOL   H20848316   6.439   1.026   6.100  0.3742  0.1935  1.6535
  115MOL   H20948317   6.674   0.894   6.148 -0.5068 -0.4700 -0.3257
  115MOL   H21048318   6.720   0.989   6.008 -1.3407  0.0981 -2.1574
  115MOL   H21148319   6.596   0.862   5.994 -1.2771  0.4666 -0.1651
  115MOL   C21248320   6.830   1.540   6.028 -0.0739 -0.7007 -0.2027
  115MOL   C21348321   6.955   1.539   5.943  0.0366  0.8983  0.5419
  115MOL   C21448322   6.951   1.437   5.828 -0.3314 -0.0904 -0.3282
  115MOL   C21548323   7.082   1.385   5.773  0.3352 -0.1776 -0.7497
  115MOL   C21648324   7.051   1.308   5.645  0.8094 -1.0356 -0.5791
  115MOL   C21748325   7.165   1.236   5.579  0.3439  0.0639  0.1487
  115MOL   C21848326   7.127   1.158   5.451  0.2624 -0.0877  0.8157
  115MOL   H21948327   6.795   1.639   6.055  0.0271 -0.8352  0.4188
  115MOL   H22048328   6.748   1.493   5.974  0.1183 -2.8630  1.2937
  115MOL   H22148329   7.044   1.517   6.002  1.0717 -0.4170 -1.4347
  115MOL   H22248330   6.913   1.352   5.885  0.3216 -0.1568  0.0013
  115MOL   H22348331   6.886   1.464   5.744  1.5819  1.4720 -1.3385
  115MOL   H22448332   7.129   1.323   5.849 -1.2970  0.2681  0.6768
  115MOL   H22548333   7.144   1.468   5.737 -1.2102  1.7157  0.7904
  115MOL   H22648334   6.977   1.231   5.664  1.7762 -1.7433  0.3496
  115MOL   H22748335   6.995   1.371   5.575  2.1751  0.6853 -0.1530
  115MOL   H22848336   7.244   1.307   5.554  1.5057 -0.8061  1.2716
  115MOL   H22948337   7.209   1.163   5.648 -0.4836 -0.9201 -0.3579
  115MOL   H23048338   7.212   1.093   5.429 -0.1220 -1.3717  3.0196
  115MOL   H23148339   7.114   1.222   5.364 -0.5704  1.8487  2.3235
  115MOL   H23248340   7.038   1.105   5.486  1.1054 -1.2705  1.2041
  115MOL   C23348341   6.979   1.685   5.886 -0.0130 -0.2483 -0.4114
  115MOL   C23448342   7.061   1.777   5.976 -0.3910 -0.3821  0.1798
  115MOL   C23548343   7.211   1.746   5.942 -0.7983 -0.2531  0.3879
  115MOL   C23648344   7.305   1.755   6.067  0.2065  0.1132 -0.0497
  115MOL   C23748345   7.451   1.746   6.037 -1.1057  0.5563 -0.4403
  115MOL   C23848346   7.542   1.744   6.162 -0.4780  0.5428 -0.1016
  115MOL   C23948347   7.684   1.693   6.144  0.3547  0.8334  0.0599
  115MOL   H24048348   6.886   1.738   5.863  1.1137  2.5285  1.1228
  115MOL   H24148349   7.018   1.674   5.785  0.0420  0.8710 -0.5224
  115MOL   H24248350   7.039   1.752   6.079 -0.3249 -1.8270 -0.1477
  115MOL   H24348351   7.248   1.800   5.855  0.9739 -1.1182  0.5849
  115MOL   H24448352   7.236   1.646   5.904  0.8484  0.6717 -1.0820
  115MOL   H24548353   7.269   1.678   6.135 -0.1047 -0.0028 -0.3415
  115MOL   H24648354   7.286   1.846   6.125  2.4162  0.7504 -0.2768
  115MOL   H24748355   7.479   1.829   5.973 -0.8348  1.1666  0.4727
  115MOL   H24848356   7.469   1.652   5.983 -3.2029 -0.4963  0.6270
  115MOL   H24948357   7.545   1.842   6.209  0.7301  0.7191 -0.5341
  115MOL   H25048358   7.505   1.686   6.247  0.2463 -0.0635 -0.1915
  115MOL   H25148359   0.024   1.760   6.077 -0.7218  0.4101 -1.2468
  115MOL   H25248360   0.014   1.686   6.244  0.5601  1.1977 -0.0071
  115MOL   H25348361   7.689   1.591   6.105  1.9198  0.1012  2.1027
  115MOL   C25448362   7.035   1.926   5.946 -0.0289  0.5584 -0.6175
  115MOL   C25548363   6.905   1.982   6.012 -0.1589 -0.9278  0.0919
  115MOL   C25648364   6.849   2.093   5.924 -0.2815  0.8330  0.2713
  115MOL   C25748365   6.748   2.038   5.822  0.1584 -0.9086 -0.1813
  115MOL   C25848366   6.682   2.136   5.721  0.0944 -0.0110 -0.7658
  115MOL   C25948367   6.573   2.220   5.794 -0.0686 -0.2607 -0.7136
  115MOL   C26048368   6.517   2.334   5.699 -0.6911 -0.1887 -0.0642
  115MOL   H26148369   7.031   1.943   5.839  2.4861 -1.3578 -1.0585
  115MOL   H26248370   7.119   1.984   5.983 -2.6757  2.5033  2.6922
  115MOL   H26348371   6.832   1.900   6.015 -0.7514 -0.4531 -1.0323
  115MOL   H26448372   6.924   2.143   5.863 -0.0469  1.4552  1.0556
  115MOL   H26548373   6.800   2.176   5.974  1.4773  1.6356  0.7000
  115MOL   H26648374   6.794   1.958   5.765 -0.8334 -1.2114 -0.5697
  115MOL   H26748375   6.668   1.984   5.874  0.0136  0.1311  0.7038
  115MOL   H26848376   6.637   2.078   5.641 -3.6899 -3.0500  3.3293
  115MOL   H26948377   6.760   2.204   5.688 -0.1744  0.9716  0.5718
  115MOL   H27048378   6.492   2.153   5.824 -0.8703  0.4301 -1.3084
  115MOL   H27148379   6.612   2.281   5.875  0.0330 -1.0806 -0.1275
  115MOL   H27248380   6.446   2.388   5.760  0.5499  0.2304  1.0397
  115MOL   H27348381   6.600   2.402   5.677 -1.2171 -0.1332 -1.9953
  115MOL   H27448382   6.482   2.306   5.599  3.4054 -0.3778 -1.5698
  115MOL   C27548383   6.901   2.023   6.161 -0.1243 -0.1586 -0.5257
  115MOL   C27648384   6.762   2.022   6.227 -0.4555  0.0292 -0.4040
  115MOL   C27748385   6.739   2.136   6.333  0.2133 -0.7165 -0.3390
  115MOL   C27848386   6.759   2.281   6.286  0.0485 -0.3770 -0.0839
  115MOL   C27948387   6.726   2.388   6.395 -0.5393 -0.2092 -0.6552
  115MOL   C28048388   6.577   2.430   6.395 -0.4773  0.4779  0.9440
  115MOL   C28148389   6.546   2.550   6.477  0.5995 -0.5075  0.4977
  115MOL   H28248390   6.952   2.119   6.166  1.4480 -1.0666  1.3838
  115MOL   H28348391   6.965   1.962   6.224 -0.7051  1.6584  1.9388
  115MOL   H28448392   6.681   2.045   6.157 -1.8677 -1.3329  0.7472
  115MOL   H28548393   6.639   2.134   6.375  0.5013  3.5694  0.7692
  115MOL   H28648394   6.808   2.122   6.417 -1.6778  1.0546  1.5728
  115MOL   H28748395   6.692   2.286   6.200 -0.9738 -0.5783  0.6914
  115MOL   H28848396   6.854   2.302   6.235 -0.9501  1.2631 -1.3353
  115MOL   H28948397   6.779   2.479   6.365  1.7152 -1.8344 -1.7865
  115MOL   H29048398   6.761   2.359   6.494  3.3002  0.8879 -1.5961
  115MOL   H29148399   6.571   2.461   6.291  4.3041  1.9949  0.9900
  115MOL   H29248400   6.515   2.343   6.416 -0.8789  0.3517 -0.7515
  115MOL   H29348401   6.438   2.568   6.479  0.8232  1.6773 -2.9956
  115MOL   H29448402   6.599   2.642   6.453  0.8072 -1.0756 -1.2908
  115MOL   H29548403   6.561   2.518   6.580  0.0595  0.0532  0.7554
  115MOL   C29648404   6.737   1.886   6.297  0.0615  0.1040 -0.2487
  115MOL   C29748405   6.606   1.813   6.287 -0.0599  0.2160 -0.5013
  115MOL   C29848406   6.546   1.809   6.146 -0.4558  0.1627  0.1406
  115MOL   C29948407   6.414   1.731   6.120  0.2532  0.0042  0.4034
  115MOL   C30048408   6.386   1.707   5.972  1.0186 -0.3967 -0.1438
  115MOL   C30148409   6.464   1.579   5.926  0.0548 -0.5236 -0.1420
  115MOL   C30248410   6.410   1.528   5.794  0.2135 -0.5023 -0.3543
  115MOL   H30348411   6.807   1.811   6.260 -0.2169 -0.3691  0.1703
  115MOL   H30448412   6.769   1.887   6.401  2.8769 -1.9486 -1.0528
  115MOL   H30548413   6.625   1.707   6.307  1.3723  0.3315 -1.1821
  115MOL   H30648414   6.508   1.909   6.123 -0.7188  0.4001  1.5775
  115MOL   H30748415   6.624   1.779   6.076 -0.5738  0.5098 -0.1402
  115MOL   H30848416   6.326   1.776   6.167 -0.8745 -2.6109  0.9143
  115MOL   H30948417   6.433   1.637   6.172 -1.9439  0.8344  2.7968
  115MOL   H31048418   6.398   1.799   5.915 -0.2871  0.7672  1.4242
  115MOL   H31148419   6.280   1.682   5.973  1.3242 -1.7164  1.7719
  115MOL   H31248420   6.558   1.631   5.907  0.0088  0.0564  1.1794
  115MOL   H31348421   6.478   1.496   5.995 -1.4666  1.2759  2.3956
  115MOL   H31448422   6.335   1.449   5.802 -0.7083  0.3247 -0.7564
  115MOL   H31548423   6.351   1.603   5.742  0.2774  2.0117  3.0743
  115MOL   H31648424   6.478   1.477   5.725  3.1392  0.8388  1.4684
  115MOL   C31748425   6.502   1.874   6.394  0.3414 -0.7341 -0.4435
  115MOL   C31848426   6.408   1.773   6.472 -0.5380  0.7362 -0.4472
  115MOL   C31948427   6.498   1.686   6.566  0.4156 -0.4921 -0.0713
  115MOL   C32048428   6.495   1.541   6.523  0.8183  0.0994  0.1254
  115MOL   C32148429   6.593   1.441   6.587 -0.4450  0.1940 -0.3036
  115MOL   C32248430   6.536   1.299   6.596 -0.0250  1.0095 -0.6403
  115MOL   C32348431   6.647   1.210   6.657  0.1146 -0.8489 -0.3004
  115MOL   H32448432   6.446   1.954   6.345 -0.4999 -0.2745  1.2198
  115MOL   H32548433   6.547   1.929   6.477  0.1679  0.6924 -1.2639
  115MOL   H32648434   6.368   1.703   6.399  0.9585 -0.5214 -0.0987
  115MOL   H32748435   6.463   1.694   6.669 -0.5116  1.3115 -0.5204
  115MOL   H32848436   6.600   1.725   6.561  0.2778  0.6362  4.1744
  115MOL   H32948437   6.521   1.531   6.417  0.0684  2.0775 -0.2622
  115MOL   H33048438   6.394   1.507   6.546  0.1947  3.1224  2.1395
  115MOL   H33148439   6.617   1.479   6.687 -0.1631  1.0323 -0.6809
  115MOL   H33248440   6.690   1.438   6.539 -0.7082 -2.6402 -0.7061
  115MOL   H33348441   6.512   1.260   6.497  0.6558 -0.0943 -0.3810
  115MOL   H33448442   6.448   1.306   6.660 -0.2113 -0.4355 -0.7099
  115MOL   H33548443   6.618   1.105   6.658  0.7685 -1.0248  0.9253
  115MOL   H33648444   6.666   1.230   6.763  0.6911 -3.6481  0.1536
  115MOL   H33748445   6.741   1.213   6.602  0.2380 -1.3799 -0.1209
  115MOL   C33848446   6.296   1.850   6.547  0.1090 -0.3719  0.1960
  115MOL   C33948447   6.186   1.766   6.618 -0.2721  0.4856  0.0105
  115MOL   C34048448   6.071   1.725   6.518  0.3220 -0.9919 -0.7734
  115MOL   C34148449   6.115   1.664   6.389  0.1152 -0.3040  0.0009
  115MOL   C34248450   5.994   1.590   6.315 -0.1091  0.3116 -0.0127
  115MOL   C34348451   6.042   1.534   6.177 -0.3692 -0.2444  0.0768
  115MOL   C34448452   6.140   1.417   6.189  0.0737  0.3737  0.2274
  115MOL   H34548453   6.242   1.915   6.477  0.1683 -1.1122 -0.5458
  115MOL   H34648454   6.346   1.905   6.626  1.4930 -0.2872 -0.7346
  115MOL   H34748455   6.228   1.669   6.645  2.2523  0.9961 -1.8945
  115MOL   H34848456   6.004   1.665   6.578 -0.0174  2.5657  2.5724
  115MOL   H34948457   6.012   1.812   6.488  1.5459  0.3250  0.5523
  115MOL   H35048458   6.186   1.586   6.417  1.1824  1.1004  1.2663
  115MOL   H35148459   6.160   1.738   6.323  0.7724 -1.7454 -1.2060
  115MOL   H35248460   5.946   1.515   6.379 -0.5505  0.5472 -0.0690
  115MOL   H35348461   5.919   1.666   6.295 -0.8313 -0.3344  0.2009
  115MOL   H35448462   5.954   1.505   6.120 -1.8860  0.7776  1.8461
  115MOL   H35548463   6.082   1.610   6.110 -1.4057  0.6295  0.4238
  115MOL   H35648464   6.085   1.337   6.239 -0.4240  0.1916 -0.6068
  115MOL   H35748465   6.222   1.442   6.256 -0.5854  0.9474  0.8225
  115MOL   H35848466   6.180   1.384   6.094  1.6657 -1.0496  1.3627
  115MOL   C35948467   6.129   1.850   6.742  0.1633  0.4855 -0.4940
  115MOL   C36048468   6.024   1.777   6.832  0.2022 -0.2355 -0.5207
  115MOL   C36148469   6.075   1.661   6.912  0.5976 -0.3591  0.0920
  115MOL   C36248470   5.963   1.554   6.944 -0.2966 -0.2278 -0.6214
  115MOL   C36348471   5.905   1.477   6.823 -0.2873  0.6792 -0.3895
  115MOL   C36448472   6.024   1.422   6.748 -0.0145  0.4159  0.9151
  115MOL   C36548473   5.983   1.330   6.628  0.5718  0.0321  0.1779
  115MOL   H36648474   6.091   1.946   6.706 -1.4271 -0.0803 -0.3208
  115MOL   H36748475   6.211   1.868   6.812  0.7665 -3.4728 -0.0793
  115MOL   H36848476   5.935   1.751   6.775 -0.0599 -1.2764  0.3538
  115MOL   H36948477   6.163   1.613   6.870 -0.4339 -0.4004 -2.0669
  115MOL   H37048478   6.115   1.699   7.006  0.9882 -1.4619  0.3791
  115MOL   H37148479   6.006   1.478   7.008 -0.0250 -0.5938 -1.2424
  115MOL   H37248480   5.882   1.594   7.005  0.9638  2.2713 -0.5304
  115MOL   H37348481   5.849   1.395   6.869  1.1966 -0.1580 -0.0203
  115MOL   H37448482   5.840   1.535   6.758  0.7206 -0.0869 -2.1170
  115MOL   H37548483   6.076   1.507   6.703 -1.7278  1.2429  0.4590
  115MOL   H37648484   6.086   1.364   6.816  0.1604 -1.2177 -0.6061
  115MOL   H37748485   5.903   1.370   6.565 -0.1164 -3.3480 -1.2032
  115MOL   H37848486   6.067   1.306   6.564 -0.0655 -3.7670  0.6481
  115MOL   H37948487   5.956   1.233   6.670  0.4597 -0.0230 -0.0203
  115MOL   C38048488   5.973   1.886   6.938 -0.1160 -0.6820 -0.4129
  115MOL   C38148489   5.874   1.996   6.879 -0.0895  0.1198 -0.6055
  115MOL   C38248490   5.744   1.941   6.824 -0.5083  0.0152 -0.8680
  115MOL   C38348491   5.673   1.848   6.917  0.7528 -0.0515 -0.1457
  115MOL   C38448492   5.526   1.808   6.870  0.0448  0.0703 -0.2919
  115MOL   C38548493   5.441   1.719   6.966  0.3227 -0.1074 -0.1577
  115MOL   C38648494   5.381   1.800   7.082  0.1430 -1.2276 -0.4644
  115MOL   H38748495   5.923   1.836   7.021 -0.1584 -0.1863 -0.1366
  115MOL   H38848496   6.052   1.937   6.992 -1.3375  1.0988 -0.2771
  115MOL   H38948497   5.923   2.041   6.792  1.2738  1.0377  0.6002
  115MOL   H39048498   5.765   1.879   6.737 -0.2717 -1.3662  0.1605
  115MOL   H39148499   5.680   2.020   6.785 -4.4849 -2.0877  1.1566
  115MOL   H39248500   5.734   1.761   6.940 -2.9920 -1.8682  3.5587
  115MOL   H39348501   5.674   1.906   7.009 -1.3519 -0.1377 -0.0331
  115MOL   H39448502   5.460   1.892   6.850  2.1472  2.4875  2.5270
  115MOL   H39548503   5.542   1.752   6.778 -1.9564 -0.2479 -0.4662
  115MOL   H39648504   5.501   1.645   7.020  2.5489  0.0590 -2.3482
  115MOL   H39748505   5.361   1.676   6.905  0.0212 -0.8164  0.7131
  115MOL   H39848506   5.302   1.858   7.036  0.8741 -1.5605 -2.2059
  115MOL   H39948507   5.459   1.848   7.142  0.3275  0.3367 -1.9141
  115MOL   H40048508   5.326   1.740   7.154 -2.1846  0.4360 -0.8273
  115MOL   C40148509   5.839   2.107   6.979 -0.1520  0.0099  0.2677
  115MOL   C40248510   5.938   2.224   6.984 -0.5411  0.0699 -0.3066
  115MOL   C40348511   5.886   2.328   7.078  0.2472  0.2273  0.9158
  115MOL   C40448512   5.981   2.445   7.095  0.2984 -0.2904  0.0697
  115MOL   C40548513   5.929   2.559   7.199 -0.2759  0.4497  0.4407
  115MOL   C40648514   5.789   2.614   7.171 -1.0578  0.6276 -0.2056
  115MOL   C40748515   5.765   2.734   7.269 -0.5843 -0.0419  0.4415
  115MOL   H40848516   5.800   2.075   7.075  0.3507  0.2630  0.5583
  115MOL   H40948517   5.750   2.153   6.937 -0.3993 -0.7420 -0.0272
  115MOL   H41048518   5.973   2.266   6.890 -0.0609 -0.1268 -0.2195
  115MOL   H41148519   5.872   2.296   7.182 -1.2392 -0.0450  0.6417
  115MOL   H41248520   5.789   2.360   7.041  1.5227 -1.0108 -3.7471
  115MOL   H41348521   6.001   2.493   7.000 -2.3465  1.3601  0.2716
  115MOL   H41448522   6.074   2.413   7.142  0.5580  0.7003  0.2395
  115MOL   H41548523   5.923   2.523   7.302  1.4052 -2.0321 -0.2748
  115MOL   H41648524   6.004   2.638   7.202  0.8272 -0.4343 -2.6249
  115MOL   H41748525   5.786   2.651   7.069 -1.3600  0.5774 -0.2146
  115MOL   H41848526   5.709   2.540   7.177 -0.3198 -0.1825 -0.3187
  115MOL   H41948527   5.676   2.794   7.248 -1.1849 -0.8094  0.7216
  115MOL   H42048528   5.843   2.803   7.240 -0.9958  0.3356  0.2299
  115MOL   H42148529   5.783   2.709   7.374  1.4180  1.3708  0.4558
  115MOL   H42248530   6.028   2.191   7.036 -2.7843  0.0148  3.7252
  116MOL     C148531   1.228   3.967   1.019  0.1385  0.5052 -0.4020
  116MOL     C248532   1.301   3.841   1.075 -0.1079 -0.2205  0.7748
  116MOL     C348533   1.430   3.875   1.159  0.2330  1.2273  0.7777
  116MOL     C448534   1.393   3.960   1.276  0.2026  0.8045 -0.0853
  116MOL     C548535   1.513   4.008   1.366  0.8629 -0.3187 -0.0885
  116MOL     C648536   1.602   4.108   1.300  0.5176 -0.1060  0.2817
  116MOL     C748537   1.736   4.137   1.370  0.0038  0.4707  0.7188
  116MOL     H848538   1.149   3.929   0.955  0.5613  2.1918 -1.9600
  116MOL     H948539   1.285   4.026   0.947 -2.6625  1.3849 -1.9500
  116MOL    H1048540   1.218   3.801   1.133 -0.1036 -1.0848  0.1952
  116MOL    H1148541   1.486   3.788   1.192 -1.3401 -0.1032 -0.0142
  116MOL    H1248542   1.490   3.934   1.088 -1.4274  0.1509 -1.5979
  116MOL    H1348543   1.345   4.049   1.236  1.9643  1.7104 -0.2706
  116MOL    H1448544   1.320   3.910   1.339 -1.1464 -0.4109 -2.5498
  116MOL    H1548545   1.581   3.929   1.399  0.0423 -0.2032  1.9033
  116MOL    H1648546   1.463   4.051   1.452  1.2480 -0.5179  0.2338
  116MOL    H1748547   1.562   4.207   1.280  0.1269 -0.6294 -1.6236
  116MOL    H1848548   1.641   4.072   1.205 -0.1187  0.7291 -0.3055
  116MOL    H1948549   1.728   4.165   1.475 -0.0701 -1.3543  1.2178
  116MOL    H2048550   1.788   4.223   1.326 -0.0162  0.3744  0.5047
  116MOL    H2148551   1.805   4.053   1.362  0.1193  0.4703  1.7426
  116MOL    H2248552   1.179   4.040   1.083  2.4661  1.2917  0.5624
  116MOL    C2348553   1.333   3.735   0.963  0.1184  0.1487  0.2557
  116MOL    C2448554   1.331   3.585   1.000 -0.0710  0.4733  0.2909
  116MOL    C2548555   1.329   3.500   0.871  0.1698  0.5781 -0.2965
  116MOL    C2648556   1.459   3.500   0.789 -0.1609 -0.0028  0.4260
  116MOL    C2748557   1.472   3.369   0.705  0.0134 -0.2313  0.0040
  116MOL    C2848558   1.573   3.384   0.586  0.3255  0.2371 -0.5434
  116MOL    C2948559   1.559   3.281   0.474  0.1029  0.3544 -0.3534
  116MOL    H3048560   1.256   3.739   0.886 -0.7076 -1.1503  0.9904
  116MOL    H3148561   1.432   3.764   0.929 -1.0414  0.7361 -2.7421
  116MOL    H3248562   1.428   3.557   1.041  1.5564  2.0526 -2.4093
  116MOL    H3348563   1.254   3.535   0.800 -0.3820 -0.1819 -0.0934
  116MOL    H3448564   1.298   3.399   0.895  1.9785 -0.5046 -2.3563
  116MOL    H3548565   1.544   3.506   0.857  0.2037  0.4713 -0.0551
  116MOL    H3648566   1.481   3.591   0.732 -1.3401  0.1648  0.2177
  116MOL    H3748567   1.370   3.347   0.673 -0.8100  2.5114  0.6089
  116MOL    H3848568   1.497   3.291   0.778  0.9822 -1.1621 -1.2909
  116MOL    H3948569   1.665   3.376   0.645 -0.3118 -0.7744  0.3358
  116MOL    H4048570   1.562   3.482   0.540 -0.7506  0.1440 -0.4933
  116MOL    H4148571   1.662   3.260   0.444 -0.0333 -1.3308  0.2827
  116MOL    H4248572   1.498   3.197   0.507  1.2148 -2.0880 -4.1347
  116MOL    H4348573   1.502   3.321   0.390 -1.2754 -0.5985  0.1077
  116MOL    C4448574   1.221   3.533   1.097 -0.9760 -0.7971 -0.1780
  116MOL    C4548575   1.243   3.397   1.166 -0.3525  1.1763  0.0561
  116MOL    C4648576   1.370   3.388   1.258 -0.5862  0.2402 -0.1514
  116MOL    C4748577   1.378   3.487   1.380 -0.2193  0.2227  0.4154
  116MOL    C4848578   1.527   3.502   1.427 -0.2960 -0.1875  0.6759
  116MOL    C4948579   1.546   3.596   1.541  0.0282  0.1744 -0.4748
  116MOL    C5048580   1.681   3.654   1.563 -0.8484 -0.3203  0.0907
  116MOL    H5148581   1.132   3.528   1.033 -0.8686  0.3071 -0.4220
  116MOL    H5248582   1.200   3.594   1.185  0.5082 -1.0822  0.3859
  116MOL    H5348583   1.272   3.323   1.092 -1.2414  0.0758  0.7924
  116MOL    H5448584   1.462   3.394   1.200 -0.7750 -0.0224 -0.4783
  116MOL    H5548585   1.384   3.287   1.297 -0.5031  1.3133  2.7375
  116MOL    H5648586   1.335   3.582   1.349  0.8418  0.1176 -1.4734
  116MOL    H5748587   1.312   3.450   1.458 -1.8517 -0.3989 -1.2182
  116MOL    H5848588   1.588   3.540   1.345  1.5846  1.3832  2.7634
  116MOL    H5948589   1.571   3.407   1.455 -1.5423 -0.7705  0.7151
  116MOL    H6048590   1.508   3.549   1.632  0.5182  1.8580  0.6217
  116MOL    H6148591   1.474   3.677   1.534  0.9780  0.8713 -2.5632
  116MOL    H6248592   1.682   3.680   1.669 -3.6472 -0.9016  0.3053
  116MOL    H6348593   1.692   3.745   1.504 -1.0438 -0.3409  0.0204
  116MOL    H6448594   1.760   3.580   1.550 -0.8154 -0.4999  1.3058
  116MOL    C6548595   1.122   3.349   1.254 -0.4570  0.2668  0.3754
  116MOL    C6648596   1.001   3.291   1.171 -0.5223  0.5197  0.0384
  116MOL    C6748597   0.876   3.391   1.166  0.8305  0.0278  0.5225
  116MOL    C6848598   0.799   3.406   1.299 -0.0053 -0.0299  0.1003
  116MOL    C6948599   0.698   3.523   1.300 -0.0416  0.8513  1.1133
  116MOL    C7048600   0.606   3.510   1.420  0.4758  0.7446 -0.1007
  116MOL    C7148601   0.510   3.626   1.439  0.3315  0.1985  0.3393
  116MOL    H7248602   1.160   3.274   1.324 -1.3251 -1.3370 -0.8289
  116MOL    H7348603   1.083   3.426   1.320  0.8146  1.3055 -0.0739
  116MOL    H7448604   1.035   3.284   1.068  0.9704  3.1497  0.3093
  116MOL    H7548605   0.912   3.490   1.138 -0.3221  0.0296 -0.9745
  116MOL    H7648606   0.808   3.364   1.086  0.5217  1.3710  0.3149
  116MOL    H7748607   0.749   3.309   1.301  0.8178 -0.4496  0.8969
  116MOL    H7848608   0.864   3.403   1.387 -1.2604 -0.4736  1.0185
  116MOL    H7948609   0.752   3.617   1.312 -2.3285  2.1943  1.2270
  116MOL    H8048610   0.642   3.522   1.207  0.6849 -1.5257  0.6577
  116MOL    H8148611   0.663   3.486   1.510  0.7401 -2.0394 -0.9524
  116MOL    H8248612   0.544   3.421   1.404  0.6394  0.5917  0.1125
  116MOL    H8348613   0.435   3.626   1.360 -1.3005 -2.5949  1.8206
  116MOL    H8448614   0.458   3.631   1.536  1.0495  2.1252  0.6527
  116MOL    H8548615   0.576   3.713   1.436 -1.0478  1.4222  3.0096
  116MOL    C8648616   0.970   3.153   1.229 -0.2312  0.1571 -0.0437
  116MOL    C8748617   0.879   3.069   1.130  0.0908  0.2680  0.8467
  116MOL    C8848618   0.956   3.013   1.004 -0.1381  0.0679  0.2882
  116MOL    C8948619   1.070   2.917   1.043 -0.3508  0.2780 -0.0830
  116MOL    C9048620   1.209   2.977   1.036 -0.6381 -0.3479 -0.1724
  116MOL    C9148621   1.314   2.861   1.057  0.2511 -0.7199 -0.0544
  116MOL    C9248622   1.464   2.917   1.055  0.0875  0.3309  0.0136
  116MOL    H9348623   1.065   3.101   1.243 -0.1947  0.4546  0.8110
  116MOL    H9448624   0.934   3.157   1.332 -0.4476 -0.0998 -0.1109
  116MOL    H9548625   0.797   3.135   1.103  0.6407  1.0962  1.2013
  116MOL    H9648626   0.882   2.962   0.942 -2.2615  1.8094  1.3059
  116MOL    H9748627   0.994   3.095   0.943  1.7513 -1.2897 -0.3907
  116MOL    H9848628   1.054   2.871   1.141 -3.3411 -1.0076 -1.1162
  116MOL    H9948629   1.055   2.831   0.979 -0.5903  0.8472 -0.7976
  116MOL   H10048630   1.220   3.051   1.114 -1.5000 -0.7507  0.3439
  116MOL   H10148631   1.223   3.016   0.935  0.8636 -0.4872 -0.0191
  116MOL   H10248632   1.301   2.819   1.157  0.9594 -0.5834  0.0973
  116MOL   H10348633   1.306   2.789   0.976  0.2580  0.8444 -1.4796
  116MOL   H10448634   1.485   2.979   1.142  1.0000 -1.1528  0.8701
  116MOL   H10548635   1.475   2.983   0.969  0.4805 -0.0458 -0.2262
  116MOL   H10648636   1.545   2.844   1.060 -2.4039 -2.4387  2.7031
  116MOL   C10748637   0.805   2.954   1.208 -0.2360  0.3499 -0.3550
  116MOL   C10848638   0.692   3.000   1.294  0.6433 -0.1838 -0.3816
  116MOL   C10948639   0.560   3.038   1.224 -0.9407 -0.1719  0.6118
  116MOL   C11048640   0.460   3.124   1.306 -0.5589  0.0229  0.2078
  116MOL   C11148641   0.343   3.195   1.229  0.2735 -0.4514  0.8349
  116MOL   C11248642   0.388   3.303   1.133  0.3549 -0.9163 -0.1222
  116MOL   C11348643   0.269   3.376   1.063 -0.3343 -0.2766 -0.2390
  116MOL   H11448644   0.879   2.894   1.262 -2.9239 -1.8893  0.9676
  116MOL   H11548645   0.755   2.888   1.137 -0.6971  1.2094 -0.8407
  116MOL   H11648646   0.730   3.093   1.337 -0.6522  0.1613  0.0293
  116MOL   H11748647   0.505   2.947   1.201 -0.8375 -0.4506  1.4688
  116MOL   H11848648   0.575   3.098   1.134 -0.1845 -1.2983 -0.0186
  116MOL   H11948649   0.416   3.050   1.373  0.2875 -0.6257  0.0495
  116MOL   H12048650   0.511   3.201   1.363 -1.1342  2.8567 -2.9662
  116MOL   H12148651   0.269   3.233   1.300 -1.7045 -0.9105 -0.9001
  116MOL   H12248652   0.294   3.122   1.164 -1.1975  1.6401 -0.4328
  116MOL   H12348653   0.453   3.375   1.182 -1.2987  0.7079 -0.2491
  116MOL   H12448654   0.448   3.268   1.048  2.6253  2.3790  0.0030
  116MOL   H12548655   0.295   3.451   0.989 -0.2839  0.2610  0.3263
  116MOL   H12648656   0.219   3.294   1.010  0.5167 -0.9398 -0.0213
  116MOL   H12748657   0.210   3.423   1.142 -1.6356  0.0692 -1.4003
  116MOL   C12848658   0.663   2.895   1.407  0.6709  0.3487 -0.1531
  116MOL   C12948659   0.765   2.892   1.523 -0.3803  0.5032  0.1822
  116MOL   C13048660   0.778   2.751   1.590 -0.7737 -0.1780  0.5154
  116MOL   C13148661   0.848   2.653   1.497  0.0984  0.1260  0.5497
  116MOL   C13248662   0.835   2.508   1.550 -0.2354  0.6820  0.4972
  116MOL   C13348663   0.905   2.401   1.468  0.1824  0.7955  0.1714
  116MOL   C13448664   0.831   2.376   1.329  0.5328 -0.7081 -0.2129
  116MOL   H13548665   0.569   2.910   1.461  0.8987 -1.1591  0.7100
  116MOL   H13648666   0.646   2.797   1.362  3.6245 -0.4165  0.2939
  116MOL   H13748667   0.857   2.942   1.494 -1.8917  4.4057  1.7740
  116MOL   H13848668   0.677   2.720   1.616 -0.4331 -0.7484  1.1795
  116MOL   H13948669   0.817   2.764   1.691 -1.0610  0.3101  0.5640
  116MOL   H14048670   0.953   2.683   1.491  0.2635 -0.6073 -0.5583
  116MOL   H14148671   0.814   2.653   1.393  2.3472 -0.0816 -0.2263
  116MOL   H14248672   0.733   2.472   1.566 -0.3861  0.2242 -1.3839
  116MOL   H14348673   0.883   2.515   1.647  1.0453  0.8621 -0.1456
  116MOL   H14448674   0.927   2.315   1.531  3.3047  1.3132 -0.1426
  116MOL   H14548675   1.007   2.429   1.440  1.9303 -2.2977  3.0011
  116MOL   H14648676   0.735   2.324   1.339  0.5597 -1.0171 -1.5322
  116MOL   H14748677   0.897   2.320   1.263  2.1814  1.6461 -0.5947
  116MOL   H14848678   0.810   2.472   1.281 -0.0435 -0.6514  0.1386
  116MOL   C14948679   0.719   2.989   1.630 -0.5692  0.0941  0.2362
  116MOL   C15048680   0.825   3.065   1.707 -0.2961 -0.2929  0.4269
  116MOL   C15148681   0.763   3.135   1.839  0.5187  0.4350  0.7766
  116MOL   C15248682   0.721   3.039   1.945  0.1082 -0.2736  0.0520
  116MOL   C15348683   0.832   2.949   2.009 -0.6626  0.2005 -0.5284
  116MOL   C15448684   0.790   2.891   2.143 -0.3402  0.5830 -0.0107
  116MOL   C15548685   0.904   2.799   2.194 -0.6766 -0.2762 -0.6957
  116MOL   H15648686   0.659   3.066   1.582 -3.0645 -1.2061  1.2080
  116MOL   H15748687   0.646   2.939   1.692  0.2487 -0.5489  0.6943
  116MOL   H15848688   0.896   2.987   1.735  1.0353  0.3807 -1.0072
  116MOL   H15948689   0.834   3.201   1.889  1.2669 -0.0822  0.4189
  116MOL   H16048690   0.681   3.199   1.807  0.3826  0.6612  1.5855
  116MOL   H16148691   0.639   2.982   1.902 -1.1742  1.3896  0.2499
  116MOL   H16248692   0.677   3.095   2.028 -0.7318 -0.2464 -0.4096
  116MOL   H16348693   0.921   3.004   2.038 -0.1452 -1.1786  0.5822
  116MOL   H16448694   0.856   2.870   1.938 -1.4777  1.4560 -2.2354
  116MOL   H16548695   0.698   2.835   2.123  0.3286 -0.4996 -0.0681
  116MOL   H16648696   0.758   2.967   2.215 -1.6419  1.5192 -1.5282
  116MOL   H16748697   0.859   2.744   2.276  0.2784  0.1749  0.1386
  116MOL   H16848698   0.989   2.862   2.221 -3.0965  2.4484  0.9071
  116MOL   H16948699   0.927   2.721   2.121  1.1929 -0.5593  0.1714
  116MOL   C17048700   0.895   3.175   1.635 -0.2317 -0.7362 -0.3054
  116MOL   C17148701   1.030   3.214   1.696  0.5303 -0.6478  0.4149
  116MOL   C17248702   1.135   3.104   1.682  0.3053  0.1987  0.5913
  116MOL   C17348703   1.181   3.052   1.543  0.1692  0.0224 -0.0083
  116MOL   C17448704   1.271   2.931   1.552  0.0768  0.3330 -0.1421
  116MOL   C17548705   1.293   2.867   1.417 -0.0654 -0.2833 -0.1509
  116MOL   C17648706   1.389   2.745   1.410 -0.3383  0.2510 -0.0170
  116MOL   H17748707   0.831   3.263   1.630 -1.0967 -1.3171  0.3303
  116MOL   H17848708   0.925   3.146   1.534 -2.3547 -0.2448 -1.1075
  116MOL   H17948709   1.023   3.229   1.803  0.4413  0.5164  0.2528
  116MOL   H18048710   1.094   3.014   1.726 -1.4535  0.3543 -0.6951
  116MOL   H18148711   1.226   3.130   1.738  0.2779  0.6374  0.4349
  116MOL   H18248712   1.233   3.135   1.495 -0.8636  0.0526 -1.0944
  116MOL   H18348713   1.093   3.036   1.480 -0.3323  0.7983  0.4821
  116MOL   H18448714   1.253   2.859   1.632  1.0203 -0.2742 -0.4649
  116MOL   H18548715   1.361   2.981   1.587  1.0064  0.1186 -2.1625
  116MOL   H18648716   1.328   2.945   1.350 -3.3188  0.5822 -0.9773
  116MOL   H18748717   1.192   2.840   1.384 -1.4136  1.7863  2.0817
  116MOL   H18848718   1.342   2.651   1.438 -0.6293  0.6867  0.9780
  116MOL   H18948719   1.460   2.766   1.490  1.5269 -0.6402 -1.4238
  116MOL   H19048720   1.440   2.735   1.314  0.7875 -0.2428  0.6204
  116MOL   C19148721   1.086   3.351   1.640  0.2790  0.1696 -0.4450
  116MOL   C19248722   1.034   3.485   1.705 -0.7572  0.0826  0.3342
  116MOL   C19348723   1.060   3.482   1.856  0.3375  0.5260  0.3269
  116MOL   C19448724   0.929   3.462   1.938  0.0884 -0.2832  0.1374
  116MOL   C19548725   0.961   3.404   2.076 -0.1465 -0.1739 -0.1307
  116MOL   C19648726   0.839   3.381   2.177 -0.1563  0.2643  0.3526
  116MOL   C19748727   0.779   3.505   2.241 -1.1116 -0.1992 -0.0096
  116MOL   H19848728   1.047   3.352   1.538 -0.4690 -2.7971 -0.2457
  116MOL   H19948729   1.195   3.353   1.636  0.2309  4.0668 -2.0033
  116MOL   H20048730   0.930   3.511   1.683 -0.1423  0.4705 -2.2941
  116MOL   H20148731   1.116   3.569   1.892 -0.0551  1.0329 -0.2611
  116MOL   H20248732   1.119   3.394   1.881 -1.1632 -1.1634 -1.9226
  116MOL   H20348733   0.859   3.395   1.889 -0.9658 -0.6131  2.0837
  116MOL   H20448734   0.874   3.556   1.944  1.1427  0.4170 -0.7652
  116MOL   H20548735   1.014   3.310   2.061 -0.1814 -0.4768  1.4908
  116MOL   H20648736   1.046   3.463   2.113  0.1056 -1.7400  1.9154
  116MOL   H20748737   0.871   3.326   2.265  1.1525  0.1390 -0.1787
  116MOL   H20848738   0.759   3.324   2.129  0.0858 -1.1696  1.6030
  116MOL   H20948739   0.843   3.552   2.316 -0.8552 -0.6593  0.0607
  116MOL   H21048740   0.688   3.487   2.298 -0.5331  1.7666  1.5884
  116MOL   H21148741   0.759   3.582   2.166 -0.4069 -2.2324 -2.3615
  116MOL   C21248742   1.124   3.591   1.638  0.9760  0.7096 -0.1645
  116MOL   C21348743   1.077   3.740   1.637 -0.2831 -0.4583 -0.2562
  116MOL   C21448744   1.197   3.834   1.634  0.3334  0.4723  0.0124
  116MOL   C21548745   1.292   3.829   1.763 -0.5749  0.0915  0.7145
  116MOL   C21648746   1.419   3.922   1.739  0.1813  0.0096 -0.1259
  116MOL   C21748747   1.504   3.950   1.864 -0.1331  0.1821  0.1275
  116MOL   C21848748   1.609   4.062   1.829  0.2726  0.0928 -0.7104
  116MOL   H21948749   1.139   3.557   1.536 -1.6527 -2.5729  0.4491
  116MOL   H22048750   1.220   3.580   1.687  1.4221 -0.4795 -1.2836
  116MOL   H22148751   1.026   3.759   1.731 -0.3166  0.7625 -0.5184
  116MOL   H22248752   1.263   3.806   1.552 -0.9995 -1.0710 -0.5617
  116MOL   H22348753   1.171   3.938   1.613 -0.9034  0.1409 -0.1079
  116MOL   H22448754   1.315   3.731   1.807 -0.2050  0.7784  2.0850
  116MOL   H22548755   1.243   3.877   1.848  0.2538  0.5874  0.9093
  116MOL   H22648756   1.480   3.867   1.667  0.4353 -0.6739  0.6086
  116MOL   H22748757   1.396   4.014   1.685 -2.4182 -0.4645  0.1404
  116MOL   H22848758   1.443   3.984   1.948  0.6463  0.6442  0.5200
  116MOL   H22948759   1.549   3.855   1.893  1.5667  1.0492  0.4026
  116MOL   H23048760   1.670   4.039   1.742 -0.7126 -0.2989 -1.3028
  116MOL   H23148761   1.676   4.081   1.913  0.6158  0.2879 -1.0317
  116MOL   H23248762   1.552   4.152   1.807 -1.2349 -0.6541  0.0462
  116MOL   C23348763   0.976   3.759   1.513  0.1102 -0.6550  0.3023
  116MOL   C23448764   0.909   3.901   1.504 -0.4274 -0.4232 -0.4514
  116MOL   C23548765   0.835   3.921   1.370  0.8177 -0.0906 -0.0428
  116MOL   C23648766   0.940   3.931   1.254  0.0453  0.0049  0.4264
  116MOL   C23748767   0.868   3.943   1.121 -0.7611 -0.2351 -0.2574
  116MOL   C23848768   0.781   3.822   1.079 -0.3738  0.6414  0.4282
  116MOL   C23948769   0.762   3.812   0.929 -0.3056  0.3083 -0.1210
  116MOL   H24048770   0.900   3.681   1.517 -0.3887 -0.1110  2.3692
  116MOL   H24148771   1.029   3.739   1.420 -0.5121 -2.1187  0.2524
  116MOL   H24248772   0.986   3.977   1.497 -0.8612 -0.0235 -0.9800
  116MOL   H24348773   0.778   4.014   1.362 -0.1032 -0.3406  2.9180
  116MOL   H24448774   0.768   3.836   1.367  1.2094 -0.5636  2.7745
  116MOL   H24548775   0.997   3.839   1.242  4.0837  2.6365 -1.7037
  116MOL   H24648776   0.998   4.021   1.276 -1.9609  1.3256  0.4438
  116MOL   H24748777   0.942   3.967   1.044 -1.0876  0.2281 -0.4289
  116MOL   H24848778   0.807   4.032   1.106  1.5694  1.4051 -0.3617
  116MOL   H24948779   0.830   3.730   1.112 -0.0511  1.2354  1.6553
  116MOL   H25048780   0.691   3.837   1.139 -0.5564 -0.6366  0.4812
  116MOL   H25148781   0.714   3.899   0.884  2.2931  0.1558 -3.3549
  116MOL   H25248782   0.849   3.788   0.869  0.6026 -0.3916  1.4325
  116MOL   H25348783   0.702   3.723   0.912 -0.7460  0.6577 -0.3941
  116MOL   C25448784   0.815   3.942   1.623  0.1592  0.3420 -0.3987
  116MOL   C25548785   0.813   4.095   1.648 -0.7931 -0.6434  0.0554
  116MOL   C25648786   0.934   4.124   1.729  0.0782 -0.3291  0.0326
  116MOL   C25748787   1.000   4.271   1.710 -0.1133  0.3202 -0.5827
  116MOL   C25848788   1.129   4.301   1.793  0.0731 -0.8038 -0.3327
  116MOL   C25948789   1.156   4.450   1.808  0.8947 -0.1874  0.1451
  116MOL   C26048790   1.275   4.477   1.892 -0.7327 -0.5023 -0.7830
  116MOL   H26148791   0.844   3.891   1.715 -0.5888 -0.4141 -0.5779
  116MOL   H26248792   0.720   3.895   1.597  0.2997 -1.2082  1.7660
  116MOL   H26348793   0.820   4.143   1.551 -2.6111 -3.0502 -1.3024
  116MOL   H26448794   1.016   4.062   1.690  0.7708  0.3329  0.4133
  116MOL   H26548795   0.916   4.109   1.835 -0.1253 -2.4887 -0.2824
  116MOL   H26648796   1.012   4.287   1.603  1.3997 -2.2267 -0.8230
  116MOL   H26748797   0.926   4.346   1.738 -1.0273 -0.9426  0.3876
  116MOL   H26848798   1.224   4.260   1.759  1.3402  0.0063  2.0425
  116MOL   H26948799   1.120   4.244   1.885  1.6197 -1.0432 -0.3132
  116MOL   H27048800   1.173   4.490   1.708  1.8975  1.4376  0.9334
  116MOL   H27148801   1.070   4.513   1.834 -1.1452 -2.2526 -1.3402
  116MOL   H27248802   1.298   4.583   1.895 -0.9594 -0.4498 -0.9108
  116MOL   H27348803   1.262   4.436   1.992 -0.1503  1.5968  0.1817
  116MOL   H27448804   1.367   4.428   1.858  0.7023  0.6393  1.3686
  116MOL   C27548805   0.686   4.155   1.725  0.2143  1.3220  0.0125
  116MOL   C27648806   0.555   4.156   1.643 -0.0791  0.5879 -0.4642
  116MOL   C27748807   0.564   4.246   1.519 -0.1513 -0.7444  0.0833
  116MOL   C27848808   0.591   4.400   1.540  0.0806  0.3299 -0.5518
  116MOL   C27948809   0.580   4.470   1.404 -0.0612  0.3964  0.6208
  116MOL   C28048810   0.682   4.413   1.306  0.0345  0.3152 -0.4711
  116MOL   C28148811   0.708   4.515   1.191 -0.3843  0.4677 -0.8683
  116MOL   H28248812   0.709   4.258   1.752  0.2275  0.4839  3.3527
  116MOL   H28348813   0.665   4.103   1.819  1.3360 -0.8436 -0.8939
  116MOL   H28448814   0.543   4.055   1.604  1.2776  0.7103 -1.2431
  116MOL   H28548815   0.626   4.188   1.450 -0.4947 -1.9461  0.7607
  116MOL   H28648816   0.471   4.232   1.465 -0.1537  1.5429 -0.5374
  116MOL   H28748817   0.691   4.427   1.575 -0.0594  3.0701 -2.0748
  116MOL   H28848818   0.517   4.436   1.611 -0.2101 -0.0967 -0.6373
  116MOL   H28948819   0.590   4.577   1.420  1.0113  0.5559 -1.0485
  116MOL   H29048820   0.479   4.448   1.370 -0.7818  3.3092  0.7290
  116MOL   H29148821   0.780   4.391   1.349  0.0783  1.0789 -0.1750
  116MOL   H29248822   0.649   4.317   1.266 -0.4588  1.1614 -2.1373
  116MOL   H29348823   0.777   4.594   1.220  0.5820 -1.4901  2.3640
  116MOL   H29448824   0.613   4.560   1.161  0.4495  2.1032 -1.1033
  116MOL   H29548825   0.759   4.463   1.109 -3.7539 -1.9025 -1.5835
  116MOL   C29648826   0.428   4.201   1.729 -0.3270  0.6221 -0.0667
  116MOL   C29748827   0.371   4.090   1.830  0.1646  0.0988  0.3154
  116MOL   C29848828   0.275   4.003   1.746 -0.2054  0.0080 -0.4585
  116MOL   C29948829   0.176   4.088   1.673  0.5210  0.3436  0.2636
  116MOL   C30048830   0.040   4.008   1.645  0.0538  0.1360  0.3757
  116MOL   C30148831   7.665   4.095   1.550 -0.4553 -0.0544  0.0180
  116MOL   C30248832   0.010   4.127   1.411 -0.1754 -0.4349  0.0116
  116MOL   H30348833   0.453   4.295   1.778 -1.5577  1.2736 -0.6619
  116MOL   H30448834   0.362   4.252   1.659 -1.9727  0.3516  1.2573
  116MOL   H30548835   0.456   4.029   1.860  1.2677  0.8865 -1.1434
  116MOL   H30648836   0.323   3.936   1.675 -0.3184 -1.2024  0.5768
  116MOL   H30748837   0.215   3.947   1.818 -1.7937  1.8472 -0.3094
  116MOL   H30848838   0.215   4.122   1.577  1.4401 -2.1488 -0.2899
  116MOL   H30948839   0.150   4.179   1.726  4.0649  0.3623  2.1307
  116MOL   H31048840   7.698   3.986   1.737  1.3629  1.7288  1.5591
  116MOL   H31148841   0.059   3.905   1.614  0.0531  0.2452  0.0152
  116MOL   H31248842   7.568   4.047   1.538 -1.4518  1.5873  1.2405
  116MOL   H31348843   7.632   4.186   1.601  1.3956  0.4988  0.2921
  116MOL   H31448844   0.102   4.186   1.412  0.4956 -1.4740  3.0530
  116MOL   H31548845   0.045   4.039   1.357  2.0573 -0.4108  1.3589
  116MOL   H31648846   7.649   4.169   1.343 -0.9408 -0.6339  0.7249
  116MOL   C31748847   0.317   4.154   1.958  0.4876 -0.0495  0.3947
  116MOL   C31848848   0.426   4.208   2.062  0.2142  0.0692 -1.2932
  116MOL   C31948849   0.383   4.325   2.155  0.3364  0.3490  0.0172
  116MOL   C32048850   0.253   4.297   2.234  0.1072  0.8305  0.5887
  116MOL   C32148851   0.233   4.402   2.352  0.3011  0.5152 -0.4801
  116MOL   C32248852   0.175   4.539   2.300  0.2797 -0.4464  0.0670
  116MOL   C32348853   0.173   4.647   2.404 -0.0242  0.0463  0.0058
  116MOL   H32448854   0.239   4.093   2.004 -0.7426  0.6227 -0.7448
  116MOL   H32548855   0.262   4.242   1.926 -0.1252 -0.0035  1.5534
  116MOL   H32648856   0.507   4.253   2.005 -0.6974  1.4031 -1.5542
  116MOL   H32748857   0.359   4.412   2.094  1.3596  1.1023  0.6742
  116MOL   H32848858   0.460   4.352   2.228  1.2934 -0.8214 -0.5373
  116MOL   H32948859   0.255   4.196   2.275  2.2559 -0.3142 -2.2441
  116MOL   H33048860   0.174   4.302   2.159 -0.6302 -0.0557  1.2835
  116MOL   H33148861   0.323   4.421   2.411 -0.8708  0.9099  1.2087
  116MOL   H33248862   0.169   4.358   2.428 -1.6789  3.7114 -0.2319
  116MOL   H33348863   0.076   4.518   2.259 -1.0692  0.7898  2.5434
  116MOL   H33448864   0.229   4.564   2.209 -2.3847 -1.6972 -1.9334
  116MOL   H33548865   0.094   4.637   2.478 -1.5753  0.6963 -1.5170
  116MOL   H33648866   0.143   4.742   2.361  0.4214  0.3367  0.3442
  116MOL   H33748867   0.268   4.655   2.458 -0.0525 -0.0802  0.0763
  116MOL   C33848868   0.484   4.076   2.130 -0.0478 -0.5993  0.5681
  116MOL   C33948869   0.606   4.090   2.227  0.3703 -0.2892 -0.3790
  116MOL   C34048870   0.724   4.153   2.149 -0.5656 -0.6480  0.4084
  116MOL   C34148871   0.854   4.188   2.227 -0.0735  1.0275  0.6234
  116MOL   C34248872   0.968   4.209   2.126  0.0476 -0.5931  0.4456
  116MOL   C34348873   1.114   4.226   2.177 -0.3315 -0.2826  0.1734
  116MOL   C34448874   1.169   4.109   2.242  0.3446  0.0320 -0.3502
  116MOL   H34548875   0.518   4.013   2.048  1.7443  2.3344 -1.0342
  116MOL   H34648876   0.401   4.020   2.174 -0.4407  0.6962  1.5152
  116MOL   H34748877   0.572   4.159   2.305 -0.0627 -0.0066 -0.8158
  116MOL   H34848878   0.753   4.080   2.074  0.6558  0.1975  0.0252
  116MOL   H34948879   0.691   4.247   2.104 -1.5493 -2.1385 -2.0533
  116MOL   H35048880   0.900   4.121   2.300 -0.0315  1.4151  0.9552
  116MOL   H35148881   0.835   4.285   2.272  0.5512  1.5366 -0.1967
  116MOL   H35248882   0.968   4.117   2.067 -0.1654  1.1108 -2.2693
  116MOL   H35348883   0.939   4.280   2.049 -3.8802 -0.9767  1.4732
  116MOL   H35448884   1.184   4.267   2.103 -1.5370  2.3857  0.4311
  116MOL   H35548885   1.103   4.308   2.249  2.5865  1.0079 -0.7567
  116MOL   H35648886   1.138   4.099   2.346  0.7808  0.5886 -0.1693
  116MOL   H35748887   1.277   4.102   2.231  0.2253 -1.4565 -0.6349
  116MOL   H35848888   1.126   4.021   2.193  1.1379  0.3115 -1.5892
  116MOL   C35948889   0.642   3.963   2.303 -0.2818  0.2764 -0.4591
  116MOL   C36048890   0.545   3.930   2.418  0.9667  0.1872  0.2793
  116MOL   C36148891   0.480   3.792   2.401 -0.2543 -0.4628 -0.6950
  116MOL   C36248892   0.391   3.765   2.278  0.2987 -0.0368 -0.0122
  116MOL   C36348893   0.345   3.619   2.274 -0.8098  0.5406 -0.0511
  116MOL   C36448894   0.248   3.585   2.159 -0.0124 -0.3927 -0.6961
  116MOL   C36548895   0.107   3.647   2.184  0.2602 -0.3086  0.2018
  116MOL   H36648896   0.744   3.977   2.338 -0.5183 -1.0256  0.8453
  116MOL   H36748897   0.632   3.876   2.238  0.9814 -1.6217  1.7534
  116MOL   H36848898   0.458   3.995   2.403 -0.0326 -1.0525  0.6869
  116MOL   H36948899   0.558   3.719   2.381  0.1817 -0.4093  0.7675
  116MOL   H37048900   0.446   3.763   2.500 -0.0272  1.4097 -0.0362
  116MOL   H37148901   0.304   3.830   2.281  2.3015  2.7507  0.5707
  116MOL   H37248902   0.447   3.774   2.185  0.9434  0.5832  0.4293
  116MOL   H37348903   0.438   3.562   2.274 -1.2386 -0.1688 -0.2563
  116MOL   H37448904   0.292   3.588   2.364  0.5008 -2.8081 -0.3549
  116MOL   H37548905   0.283   3.615   2.060  2.1074  1.6869  0.6538
  116MOL   H37648906   0.229   3.477   2.163 -1.8902 -0.0288  1.2574
  116MOL   H37748907   0.043   3.598   2.111  1.0720 -3.0811  1.2603
  116MOL   H37848908   0.062   3.617   2.279  0.3185 -0.1779  0.2710
  116MOL   H37948909   0.109   3.755   2.176 -0.5709 -0.2183  1.1447
  116MOL   C38048910   0.600   3.959   2.559  0.1095 -0.0735 -0.7275
  116MOL   C38148911   0.644   4.099   2.580  0.0297 -0.9318  0.1966
  116MOL   C38248912   0.529   4.193   2.630 -0.0406  0.5392  0.2057
  116MOL   C38348913   0.553   4.346   2.615 -0.2378 -0.1005  0.5846
  116MOL   C38448914   0.445   4.418   2.688  0.0979 -0.3744  0.4594
  116MOL   C38548915   0.480   4.570   2.708  0.4283 -0.1234  0.1978
  116MOL   C38648916   0.603   4.614   2.794  0.1509  0.4420 -0.4949
  116MOL   H38748917   0.515   3.936   2.624  0.8906 -0.7707  0.0653
  116MOL   H38848918   0.669   3.879   2.586  0.0210 -0.5345 -1.8232
  116MOL   H38948919   0.677   4.136   2.483  0.4544  0.2138  0.7735
  116MOL   H39048920   0.503   4.167   2.732  0.0933 -0.6799 -0.0654
  116MOL   H39148921   0.440   4.158   2.576  1.5075  1.3045 -2.9860
  116MOL   H39248922   0.652   4.372   2.653  0.7018 -0.2922 -1.6239
  116MOL   H39348923   0.555   4.383   2.512  0.1063  1.3076  1.0858
  116MOL   H39448924   0.348   4.404   2.639  0.1826  0.4640  0.0342
  116MOL   H39548925   0.435   4.377   2.788 -2.4185  0.8779  0.7686
  116MOL   H39648926   0.403   4.625   2.762  2.1206 -0.9632  3.6596
  116MOL   H39748927   0.493   4.614   2.609  0.3439 -2.1025 -0.7152
  116MOL   H39848928   0.618   4.721   2.813  0.6182  0.2170  0.4118
  116MOL   H39948929   0.693   4.584   2.741  0.2937  1.6191 -0.9459
  116MOL   H40048930   0.598   4.551   2.883 -0.2861  1.5043  0.2561
  116MOL   C40148931   0.761   4.107   2.679  0.0086 -0.4563 -0.5030
  116MOL   C40248932   0.876   4.014   2.652 -0.1039 -0.2106 -0.3969
  116MOL   C40348933   1.001   4.090   2.687  0.1798  0.3129  0.0828
  116MOL   C40448934   1.126   4.001   2.690  0.7251  0.8427  0.9833
  116MOL   C40548935   1.136   3.896   2.581 -0.6295  0.1912  0.1406
  116MOL   C40648936   1.274   3.848   2.549 -0.0015 -0.2865 -0.1318
  116MOL   C40748937   1.336   3.759   2.654  0.7301  0.5898 -0.5424
  116MOL   H40848938   0.730   4.092   2.782  0.0527 -0.3375 -0.4727
  116MOL   H40948939   0.795   4.210   2.667 -1.1721 -0.1914 -1.7590
  116MOL   H41048940   0.874   3.978   2.549  0.7094  0.6112 -0.7071
  116MOL   H41148941   0.994   4.140   2.784  1.1692  0.6866 -0.0333
  116MOL   H41248942   1.012   4.164   2.607  0.5800  0.6155  0.4171
  116MOL   H41348943   1.125   3.946   2.785  0.9706 -1.6302 -0.3937
  116MOL   H41448944   1.212   4.065   2.672  2.2997 -1.9031 -1.9029
  116MOL   H41548945   1.063   3.816   2.586  0.6635 -1.2148 -2.0721
  116MOL   H41648946   1.096   3.948   2.494 -0.3166  1.4039  0.7164
  116MOL   H41748947   1.262   3.779   2.466 -3.6881 -1.8979  1.6422
  116MOL   H41848948   1.336   3.933   2.520  3.0956 -1.9403  1.3912
  116MOL   H41948949   1.438   3.742   2.619  0.9939 -0.6454  0.7640
  116MOL   H42048950   1.280   3.666   2.654  0.8059  0.5413 -0.0997
  116MOL   H42148951   1.343   3.796   2.757 -1.8174  0.7407 -0.3893
  116MOL   H42248952   0.873   3.923   2.711 -2.4177 -0.2570 -0.5173
  117MOL     C148953   4.921   6.134   7.205 -0.2102 -0.4841  0.1448
  117MOL     C248954   5.023   6.250   7.236 -0.2804 -0.7002 -0.2223
  117MOL     C348955   5.139   6.262   7.130  0.4334  0.4786  0.4186
  117MOL     C448956   5.235   6.152   7.111 -0.8615 -0.1096  0.6481
  117MOL     C548957   5.358   6.184   7.031  0.3673  0.7223  0.0480
  117MOL     C648958   5.444   6.061   7.011  0.3349  0.4301  0.2609
  117MOL     C748959   5.565   6.080   6.918  0.0750  0.0426 -0.7295
  117MOL     H848960   4.963   6.035   7.223  2.2546  1.0500  3.3561
  117MOL     H948961   4.888   6.158   7.103  2.5537  0.0109 -0.6831
  117MOL    H1048962   4.958   6.337   7.230 -0.3693 -0.6434  1.2894
  117MOL    H1148963   5.089   6.279   7.034  0.3218 -2.1527 -0.0462
  117MOL    H1248964   5.202   6.346   7.155 -1.3683  2.3020 -0.9358
  117MOL    H1348965   5.255   6.108   7.209  0.5703  0.6504  0.7081
  117MOL    H1448966   5.181   6.075   7.057 -0.1975  1.5825 -2.4970
  117MOL    H1548967   5.419   6.258   7.084 -0.2509  2.5776 -1.7836
  117MOL    H1648968   5.318   6.224   6.938  0.7832  0.5372 -0.2130
  117MOL    H1748969   5.386   5.985   6.958  0.8808 -0.6168  1.1577
  117MOL    H1848970   5.483   6.023   7.105 -0.0872 -0.4541  0.0817
  117MOL    H1948971   5.611   6.177   6.938  1.8653 -0.3302 -2.7811
  117MOL    H2048972   5.531   6.096   6.815 -1.2069  0.2359 -0.2831
  117MOL    H2148973   5.625   5.990   6.929 -0.4063 -0.1348  0.5376
  117MOL    H2248974   4.831   6.132   7.266  1.2165 -0.1723  2.2949
  117MOL    C2348975   5.071   6.232   7.379 -0.4378  0.0910  0.2800
  117MOL    C2448976   4.966   6.263   7.485 -0.5037  0.2175 -0.0720
  117MOL    C2548977   5.013   6.369   7.590  0.0053  0.9206 -0.8947
  117MOL    C2648978   5.040   6.504   7.532  0.0562  0.7314 -0.9453
  117MOL    C2748979   4.974   6.614   7.615 -0.4606 -0.0983  0.2852
  117MOL    C2848980   4.978   6.750   7.558 -0.7721 -0.1721 -0.2418
  117MOL    C2948981   4.881   6.843   7.634  0.6906 -0.1729 -0.1741
  117MOL    H3048982   5.130   6.142   7.392  0.5745  0.1944 -2.9785
  117MOL    H3148983   5.146   6.309   7.396 -0.1281 -0.4060  1.1786
  117MOL    H3248984   4.871   6.295   7.443 -0.2210  1.0307 -0.1108
  117MOL    H3348985   5.106   6.332   7.632 -1.6566 -1.2350  0.9599
  117MOL    H3448986   4.938   6.376   7.668  1.8751  1.8939  0.8496
  117MOL    H3548987   5.009   6.515   7.428 -0.8918 -0.2298 -0.7725
  117MOL    H3648988   5.148   6.518   7.533 -0.1042  2.1822 -2.1466
  117MOL    H3748989   5.020   6.628   0.000 -0.5259  0.2817  0.2611
  117MOL    H3848990   4.871   6.584   7.635 -0.1227 -1.1534  0.4874
  117MOL    H3948991   4.936   6.744   7.457  0.3295 -0.6235 -0.6825
  117MOL    H4048992   5.077   6.792   7.544 -0.8023  1.1684  3.1008
  117MOL    H4148993   4.911   6.843   0.026  0.8443 -4.6153 -0.1287
  117MOL    H4248994   4.884   6.945   7.596 -1.7657  0.1730  0.4352
  117MOL    H4348995   4.779   6.805   7.624  0.0135  2.0150 -1.9631
  117MOL    C4448996   4.933   6.120   7.550 -0.3979 -0.0012 -0.0746
  117MOL    C4548997   4.815   6.122   7.651  0.2213  0.4270  0.4831
  117MOL    C4648998   4.667   6.130   7.599 -0.3880  0.4513 -0.1817
  117MOL    C4748999   4.567   6.169   7.708  0.4188  0.3696  0.0910
  117MOL    C4849000   4.439   6.213   7.640  0.0954  0.2111 -0.4545
  117MOL    C4949001   4.334   6.258   0.038 -0.0616  0.3772  0.3775
  117MOL    C5049002   4.208   6.311   7.685 -0.0933  0.3447 -0.0683
  117MOL    H5149003   5.022   6.093   7.606  0.0682  2.8022  0.5957
  117MOL    H5249004   4.921   6.046   7.470 -0.1602 -0.7126  0.5445
  117MOL    H5349005   4.814   6.219   7.702  2.5104  0.4677  0.5005
  117MOL    H5449006   4.639   6.033   7.559  2.2570 -0.2179 -0.4741
  117MOL    H5549007   4.663   6.197   7.513  4.1250  0.1776 -0.7209
  117MOL    H5649008   4.555   6.090   0.067  0.7988 -1.3947 -1.7281
  117MOL    H5749009   4.608   6.259   0.041  0.6989  1.4407 -2.1090
  117MOL    H5849010   4.403   6.136   7.573 -1.6319  1.0541 -0.5159
  117MOL    H5949011   4.460   6.299   7.576  0.9987  0.2056 -0.1803
  117MOL    H6049012   4.374   6.332   0.107 -0.8437  1.6553 -0.5035
  117MOL    H6149013   4.312   6.167   0.093 -0.5996  0.4166  0.2232
  117MOL    H6249014   4.149   6.235   7.636  0.9295  0.1381 -1.0172
  117MOL    H6349015   4.224   6.404   7.630 -1.3483  1.2123  0.9987
  117MOL    H6449016   4.146   6.335   0.057  1.4274  0.9538  0.8978
  117MOL    C6549017   4.822   5.992   0.019 -0.6168  0.1723 -0.1461
  117MOL    C6649018   4.914   5.980   0.140 -0.3126 -0.2189  0.4007
  117MOL    C6749019   4.919   5.833   0.185 -0.3106 -0.6415  0.1770
  117MOL    C6849020   5.013   5.736   0.113 -0.2094 -0.5116  0.9336
  117MOL    C6949021   5.025   5.592   0.183 -0.2055 -0.4280 -0.6627
  117MOL    C7049022   5.130   5.510   0.109  0.9115  0.4370 -0.5294
  117MOL    C7149023   5.074   5.449   7.696 -0.7486  0.3134  0.5417
  117MOL    H7249024   4.731   5.964   0.072 -1.4985  0.4933 -1.4856
  117MOL    H7349025   4.853   5.914   7.662 -2.0693  1.2313 -1.9867
  117MOL    H7449026   5.010   6.012   0.099 -2.3298  2.3559 -2.5882
  117MOL    H7549027   4.942   5.831   0.292  2.5533  0.9240 -0.3564
  117MOL    H7649028   4.822   5.784   0.186 -0.3991 -0.4614  0.3880
  117MOL    H7749029   4.989   5.717   0.008  0.4313 -0.1711  0.7227
  117MOL    H7849030   5.114   5.776   0.111 -0.5535  0.4794 -3.5719
  117MOL    H7949031   5.063   5.598   0.285  3.3086  1.0972 -1.9701
  117MOL    H8049032   4.928   5.544   0.191  1.3763 -3.6551 -0.3783
  117MOL    H8149033   5.164   5.428   0.173  1.4787  0.7904 -0.3785
  117MOL    H8249034   5.217   5.573   0.087  1.0424  0.3162 -0.3554
  117MOL    H8349035   5.160   5.400   7.650 -1.7301 -0.3379 -0.6516
  117MOL    H8449036   4.993   5.380   0.006 -0.6215  0.6841  2.0988
  117MOL    H8549037   5.052   5.532   7.628 -0.4664  0.8334  1.0895
  117MOL    C8649038   4.880   6.078   0.257  0.3121 -0.9010  0.0344
  117MOL    C8749039   4.963   6.061   0.397  0.4532  0.6363  0.3791
  117MOL    C8849040   5.116   6.041   0.375  0.2362 -0.0923 -0.2427
  117MOL    C8949041   5.188   6.164   0.317  0.5288  0.1408 -0.1388
  117MOL    C9049042   5.343   6.123   0.329 -1.3610  0.4961  0.0916
  117MOL    C9149043   5.407   6.164   0.466 -0.1162 -0.1373 -0.2914
  117MOL    C9249044   5.561   6.149   0.461  0.4182 -0.5094 -0.2233
  117MOL    H9349045   4.887   6.182   0.224  1.1951 -0.9300  0.1291
  117MOL    H9449046   4.779   6.051   0.288  0.2055 -1.2037 -0.5870
  117MOL    H9549047   4.926   5.972   0.446  1.8239 -0.2749 -0.2148
  117MOL    H9649048   5.161   6.003   0.467  3.0197  0.1854 -1.4464
  117MOL    H9749049   5.123   5.950   0.316 -3.4382 -0.3283 -0.4768
  117MOL    H9849050   5.146   6.196   0.222  2.3252 -1.1116 -1.3577
  117MOL    H9949051   5.169   6.255   0.375  0.1113  0.9331 -1.4788
  117MOL   H10049052   5.390   6.185   0.253 -1.5525 -0.9912 -1.2781
  117MOL   H10149053   5.363   6.021   0.298  1.5656  0.4197  2.1645
  117MOL   H10249054   5.399   6.271   0.489  2.5634  0.0442 -0.0925
  117MOL   H10349055   5.351   6.117   0.547  0.7923  0.8394  0.9276
  117MOL   H10449056   5.594   6.205   0.374  2.3978 -0.1815  0.7236
  117MOL   H10549057   5.605   6.052   0.439  0.0258 -0.6375 -0.4453
  117MOL   H10649058   5.608   6.186   0.552  2.5492  0.6844 -1.7662
  117MOL   C10749059   4.926   6.181   0.492  0.2027 -0.8404 -0.7376
  117MOL   C10849060   4.909   6.137   0.635  0.2891  0.1187 -0.1506
  117MOL   C10949061   4.780   6.054   0.676  0.4973  0.2599  0.4225
  117MOL   C11049062   4.645   6.131   0.649 -0.4701 -0.4774 -0.4129
  117MOL   C11149063   4.527   6.063   0.712 -0.2047  0.1513 -0.0976
  117MOL   C11249064   4.389   6.128   0.688 -0.2346 -0.6635 -0.2254
  117MOL   C11349065   4.334   6.100   0.545  0.2150  0.0573 -0.1887
  117MOL   H11449066   4.827   6.213   0.459  0.2810  1.6074  1.3120
  117MOL   H11549067   4.994   6.266   0.490 -0.6710 -0.0975  0.3578
  117MOL   H11649068   4.898   6.234   0.683  1.5378  1.0794 -1.7426
  117MOL   H11749069   4.765   6.015   0.777 -0.0872 -3.8859 -1.1779
  117MOL   H11849070   4.760   5.965   0.617  0.5042  0.9400 -0.6267
  117MOL   H11949071   4.659   6.223   0.705  1.9671 -0.0927 -1.6048
  117MOL   H12049072   4.633   6.143   0.541  0.3646  2.2986 -0.2437
  117MOL   H12149073   4.548   6.055   0.819 -1.0071 -1.7996 -0.0454
  117MOL   H12249074   4.511   5.959   0.682 -0.6679  0.3862 -0.6806
  117MOL   H12349075   4.323   6.089   0.765 -1.2689 -0.5125 -1.0163
  117MOL   H12449076   4.405   6.235   0.705 -0.4814 -0.8822  1.5167
  117MOL   H12549077   4.401   6.138   0.468 -0.5786 -0.2851 -1.0584
  117MOL   H12649078   4.318   5.993   0.534 -0.2581  0.0204  0.7347
  117MOL   H12749079   4.235   6.147   0.539  0.6281  0.9414 -0.1685
  117MOL   C12849080   5.039   6.086   0.702  0.8480  0.7054  0.1408
  117MOL   C12949081   5.049   6.082   0.855 -0.5620  0.1501  0.1960
  117MOL   C13049082   5.022   6.220   0.923  0.1234  0.1347 -0.0243
  117MOL   C13149083   5.118   6.332   0.905  0.0301 -0.7111  0.3015
  117MOL   C13249084   5.106   6.464   0.995 -0.2700  0.4180  0.3047
  117MOL   C13349085   5.150   6.446   1.139  0.2763  0.4652  0.7310
  117MOL   C13449086   5.159   6.587   1.217 -0.4305  0.0018  0.5829
  117MOL   H13549087   5.061   5.990   0.655  0.7216  0.4464  0.6068
  117MOL   H13649088   5.117   6.156   0.672  0.1034  2.5640  2.3482
  117MOL   H13749089   4.967   6.023   0.894 -1.2036 -0.0482 -1.4232
  117MOL   H13849090   5.005   6.204   1.030 -1.1455  2.4264  0.1507
  117MOL   H13949091   4.931   6.268   0.885 -0.1494  1.3465  2.1004
  117MOL   H14049092   5.129   6.362   0.801  0.0560 -0.1273  0.4710
  117MOL   H14149093   5.217   6.293   0.929 -0.4959 -2.2145  0.0788
  117MOL   H14249094   5.003   6.498   0.991 -0.5272 -0.1535  1.7634
  117MOL   H14349095   5.153   6.554   0.956 -0.6724  1.2589  1.7550
  117MOL   H14449096   5.240   6.384   1.137 -1.9259 -2.8929  1.6095
  117MOL   H14549097   5.091   6.378   1.201 -0.8346  0.3373 -0.4346
  117MOL   H14649098   5.232   6.658   1.178 -2.3427  2.3548  1.1509
  117MOL   H14749099   5.184   6.554   1.318  1.3762 -1.7708 -0.4191
  117MOL   H14849100   5.061   6.635   1.214 -0.1370  0.6419  1.0084
  117MOL   C14949101   5.186   6.019   0.903 -0.0594 -0.1329  0.3934
  117MOL   C15049102   5.207   5.865   0.899  0.3962 -0.8335  0.3256
  117MOL   C15149103   5.118   5.795   1.003  0.5411  0.3806  0.1727
  117MOL   C15249104   5.050   5.672   0.960 -0.6533  0.4078  0.3842
  117MOL   C15349105   4.964   5.614   1.071 -0.2976 -0.2664  0.0162
  117MOL   C15449106   4.878   5.503   1.001  0.0896  0.4890  0.2190
  117MOL   C15549107   4.807   5.415   1.099 -0.7458  0.1000 -0.0304
  117MOL   H15649108   5.262   6.057   0.836  0.0043  0.4297  0.7818
  117MOL   H15749109   5.217   6.071   0.994  0.5563  3.0482 -1.5566
  117MOL   H15849110   5.169   5.824   0.806  0.5693 -0.1442 -0.0510
  117MOL   H15949111   5.177   5.763   1.089 -0.0255 -1.9841 -0.2911
  117MOL   H16049112   5.047   5.868   1.041 -2.5511 -0.4932 -3.6316
  117MOL   H16149113   5.117   5.603   0.908 -2.2042  0.8626 -2.3349
  117MOL   H16249114   4.977   5.694   0.882  0.0142 -1.3207 -0.7703
  117MOL   H16349115   4.897   5.693   1.106  1.1409  1.0020 -0.0181
  117MOL   H16449116   5.021   5.579   1.157 -2.9539 -0.7501  1.6059
  117MOL   H16549117   4.950   5.442   0.945 -1.3868 -0.4939 -0.6680
  117MOL   H16649118   4.810   5.544   0.926 -0.2006  0.4885  0.4802
  117MOL   H16749119   4.749   5.340   1.044 -0.8122 -0.1417  0.3729
  117MOL   H16849120   4.734   5.474   1.155 -0.4822 -0.9266  1.4073
  117MOL   H16949121   4.881   5.374   1.167 -0.1227  1.1296 -0.0881
  117MOL   C17049122   5.359   5.816   0.918 -0.0529  0.4324  0.3252
  117MOL   C17149123   5.453   5.846   0.799  0.2087  0.2096 -0.2404
  117MOL   C17249124   5.591   5.793   0.831 -0.8514 -0.1984  0.4941
  117MOL   C17349125   5.696   5.866   0.741  0.1710 -0.2375 -0.5905
  117MOL   C17449126   5.833   5.848   0.805 -0.0080 -0.4747 -0.0702
  117MOL   C17549127   5.946   5.939   0.740 -0.1057  0.1367 -0.2483
  117MOL   C17649128   6.076   5.926   0.821 -0.0186  0.1141  0.4158
  117MOL   H17749129   5.355   5.710   0.943 -0.6683  0.1855 -0.7837
  117MOL   H17849130   5.385   5.856   1.016  0.6299  0.2842  0.2051
  117MOL   H17949131   5.454   5.955   0.800 -2.9832  0.3057 -0.2113
  117MOL   H18049132   5.599   5.688   0.802  0.2091  0.5676 -2.1622
  117MOL   H18149133   5.613   5.812   0.935  0.6517  2.6042 -0.3047
  117MOL   H18249134   5.666   5.971   0.745  2.5515  0.4015  1.4580
  117MOL   H18349135   5.701   5.834   0.637  0.3718 -0.9906 -0.3529
  117MOL   H18449136   5.870   5.746   0.797  1.5428 -0.0031  0.9356
  117MOL   H18549137   5.829   5.868   0.912 -0.5290 -1.8983  0.1886
  117MOL   H18649138   5.902   6.039   0.744 -0.9219 -0.2258 -0.0329
  117MOL   H18749139   5.953   5.913   0.635  0.4205 -0.5300 -0.0495
  117MOL   H18849140   6.075   5.986   0.912 -0.7210  0.8061 -0.0443
  117MOL   H18949141   6.152   5.976   0.761 -1.6096  0.9936 -0.9241
  117MOL   H19049142   6.113   5.825   0.841 -2.2168 -0.9909 -0.8274
  117MOL   C19149143   5.400   5.816   0.656  0.9760  0.9498  0.6907
  117MOL   C19249144   5.365   5.676   0.602  0.5057 -0.4688  0.1189
  117MOL   C19349145   5.261   5.696   0.492 -0.4207  0.2856  0.3221
  117MOL   C19449146   5.116   5.680   0.546  0.6135 -0.3867  0.0323
  117MOL   C19549147   5.072   5.547   0.582 -0.0943  0.2453  0.0257
  117MOL   C19649148   4.922   5.537   0.604 -0.2023  0.0574 -0.1752
  117MOL   C19749149   4.897   5.390   0.627 -0.0559 -0.0546  0.1090
  117MOL   H19849150   5.464   5.858   0.578  0.4051 -0.4059 -0.5238
  117MOL   H19949151   5.312   5.879   0.641  1.1730  1.2618  0.8444
  117MOL   H20049152   5.332   5.615   0.686 -0.8281  0.1063  0.0316
  117MOL   H20149153   5.262   5.617   0.416 -0.2134  0.1984  0.4161
  117MOL   H20249154   5.287   5.778   0.425 -1.8851 -0.8742 -1.7336
  117MOL   H20349155   5.053   5.723   0.468  0.0196  0.2113  0.8373
  117MOL   H20449156   5.096   5.752   0.625  0.9696 -1.7818  1.4091
  117MOL   H20549157   5.097   5.470   0.509 -1.3072 -1.2264  1.1269
  117MOL   H20649158   5.126   5.503   0.666  0.7552  1.0391 -0.1104
  117MOL   H20749159   4.866   5.570   0.517  1.9469 -3.0032 -2.8445
  117MOL   H20849160   4.885   5.588   0.693  2.6261 -2.2949  2.4772
  117MOL   H20949161   4.929   5.361   0.727  2.2282  1.6830 -0.0790
  117MOL   H21049162   4.944   5.317   0.561 -1.8705 -1.1634  0.0230
  117MOL   H21149163   4.792   5.361   0.625 -0.0576  0.0058 -0.7398
  117MOL   C21249164   5.485   5.593   0.545 -0.5492  0.0368  0.1616
  117MOL   C21349165   5.458   5.441   0.504  0.0191  0.1281 -0.1202
  117MOL   C21449166   5.541   5.403   0.379  0.0376  0.1243 -0.1670
  117MOL   C21549167   5.488   5.485   0.252  0.7986  0.4406  0.3224
  117MOL   C21649168   5.601   5.482   0.142  0.8203  0.3978  0.4290
  117MOL   C21749169   5.558   5.561   0.015  0.6580 -0.2181 -0.2824
  117MOL   C21849170   5.689   5.595   7.651 -0.0875 -0.1698  0.6351
  117MOL   H21949171   5.572   5.589   0.610  0.1542  0.4807 -0.7436
  117MOL   H22049172   5.519   5.652   0.460  1.2145  0.7193  1.3274
  117MOL   H22149173   5.352   5.421   0.494 -0.1743  1.2152 -0.2547
  117MOL   H22249174   5.640   5.442   0.403 -0.7722  1.4963  1.0438
  117MOL   H22349175   5.535   5.296   0.363 -0.8165  0.0595  0.5032
  117MOL   H22449176   5.456   5.588   0.271  1.2626  0.3049  1.9143
  117MOL   H22549177   5.400   5.435   0.213  0.7428 -0.2088  1.2903
  117MOL   H22649178   5.694   5.525   0.179  2.6860 -4.1601  1.3121
  117MOL   H22749179   5.604   5.374   0.128 -0.5662  0.6711 -2.4794
  117MOL   H22849180   5.492   5.503   7.663 -0.1184  0.2177  0.1100
  117MOL   H22949181   5.515   5.657   0.041  0.0128 -0.6458  0.2436
  117MOL   H23049182   5.746   5.513   7.606 -0.4105 -0.1188  0.1299
  117MOL   H23149183   5.752   5.658   7.713  3.5358  0.0606 -3.0418
  117MOL   H23249184   5.659   5.658   7.568  0.0589  1.0193  1.4813
  117MOL   C23349185   5.505   5.352   0.625  0.2127 -0.6571 -0.5450
  117MOL   C23449186   5.465   5.198   0.615 -0.3390 -0.2849  0.1606
  117MOL   C23549187   5.553   5.110   0.704 -0.6417 -0.0104 -0.2628
  117MOL   C23649188   5.695   5.074   0.647  0.1486  0.0653 -0.1683
  117MOL   C23749189   5.694   5.001   0.518  0.5070 -0.4998 -0.4354
  117MOL   C23849190   5.818   4.908   0.484  0.0847 -0.2301  0.4909
  117MOL   C23949191   5.799   4.817   0.361  0.2178 -0.9274  0.0857
  117MOL   H24049192   5.485   5.399   0.721  0.7469 -3.1652  0.8534
  117MOL   H24149193   5.614   5.350   0.625  0.3466  2.1682  3.1987
  117MOL   H24249194   5.474   5.160   0.513  1.0545  0.4319 -0.0028
  117MOL   H24349195   5.501   5.016   0.719  0.3094 -1.1941 -3.8959
  117MOL   H24449196   5.553   5.146   0.807 -0.4784 -0.0009 -0.2660
  117MOL   H24549197   5.745   5.006   0.716  2.6311  2.1851  0.2197
  117MOL   H24649198   5.757   5.162   0.628  0.2069  0.0544 -0.0255
  117MOL   H24749199   5.672   5.058   0.427 -1.6165 -1.3009 -0.4533
  117MOL   H24849200   5.606   4.937   0.514  1.5598 -2.0089  0.2346
  117MOL   H24949201   5.913   4.960   0.485  0.9981 -1.8522  0.1061
  117MOL   H25049202   5.845   4.839   0.564  1.2482 -0.0783  0.2367
  117MOL   H25149203   5.690   4.815   0.354  0.1427  0.1745  0.9090
  117MOL   H25249204   5.841   4.875   0.279 -1.5847 -0.4505 -0.5172
  117MOL   H25349205   5.840   4.716   0.357  1.4297 -0.4443  0.0281
  117MOL   C25449206   5.316   5.197   0.659 -0.1729  0.5672  0.4810
  117MOL   C25549207   5.226   5.095   0.587 -0.1337 -0.5388  0.0734
  117MOL   C25649208   5.191   5.145   0.445  0.6130 -0.0613  1.1115
  117MOL   C25749209   5.088   5.065   0.355 -0.4554 -0.3385 -0.3625
  117MOL   C25849210   5.114   5.101   0.209  0.4475  0.4333  0.4869
  117MOL   C25949211   5.039   5.009   0.117  0.2101 -1.1352  0.1658
  117MOL   C26049212   5.069   5.027   7.680 -0.4838 -0.4588 -0.0031
  117MOL   H26149213   5.272   5.296   0.651  0.1006  0.6261 -0.4482
  117MOL   H26249214   5.294   5.177   0.763  1.1006 -1.0890  0.4422
  117MOL   H26349215   5.283   5.004   0.571 -0.0426 -0.3171 -0.9078
  117MOL   H26449216   5.283   5.161   0.389 -0.9712  0.4429 -1.4869
  117MOL   H26549217   5.153   5.247   0.448 -1.0063 -0.6714  2.0442
  117MOL   H26649218   5.095   4.956   0.362 -1.1075 -0.6003 -3.2108
  117MOL   H26749219   4.988   5.084   0.394 -0.9101 -0.5128 -1.4245
  117MOL   H26849220   5.221   5.110   0.192  0.1874 -0.9379 -2.1688
  117MOL   H26949221   5.069   5.200   0.196 -0.4118  0.3972  2.8997
  117MOL   H27049222   5.060   4.908   0.153  1.2521 -0.4365  1.5734
  117MOL   H27149223   4.933   5.017   0.138  0.5406  0.3071  1.3600
  117MOL   H27249224   5.046   5.125   7.638 -2.6345 -0.6568  0.5988
  117MOL   H27349225   5.169   5.013   7.639  0.2930  0.2094  1.6343
  117MOL   H27449226   4.996   4.968   7.625 -0.1785 -0.1925 -0.6916
  117MOL   C27549227   5.094   5.061   0.667  0.3750  0.2786  0.8822
  117MOL   C27649228   5.114   4.959   0.787 -0.4404 -0.9748  0.7110
  117MOL   C27749229   5.101   4.813   0.737  0.2671  0.3991 -0.5723
  117MOL   C27849230   5.119   4.711   0.842 -0.7302  0.4193 -0.5917
  117MOL   C27949231   5.119   4.562   0.794  0.7708  0.1988  0.8779
  117MOL   C28049232   4.985   4.511   0.715 -0.4398 -0.3318  0.4305
  117MOL   C28149233   4.985   4.366   0.669  0.0881 -0.0215 -0.4720
  117MOL   H28249234   5.016   5.027   0.600  1.8974 -0.9153 -0.3152
  117MOL   H28349235   5.066   5.159   0.708 -0.5461  1.2380 -1.9383
  117MOL   H28449236   5.214   4.966   0.829 -0.5099 -3.8198  1.4142
  117MOL   H28549237   5.013   4.798   0.675  0.1795  0.9088 -0.5725
  117MOL   H28649238   5.180   4.797   0.664 -0.1443  1.0449 -1.1654
  117MOL   H28749239   5.045   4.711   0.921  0.3406 -1.6499  0.4467
  117MOL   H28849240   5.213   4.705   0.897 -2.0714 -0.7133  1.6300
  117MOL   H28949241   5.145   4.495   0.877  2.2894  0.2410  0.4539
  117MOL   H29049242   5.203   4.541   0.728  2.0179  0.9400  2.1969
  117MOL   H29149243   4.895   4.525   0.775 -2.3631 -0.5196 -2.2863
  117MOL   H29249244   4.989   4.579   0.629  0.9760 -1.2995 -0.2830
  117MOL   H29349245   5.081   4.355   0.619  0.1940 -0.2956 -0.2095
  117MOL   H29449246   4.903   4.333   0.606  0.4517 -0.1253 -0.8927
  117MOL   H29549247   4.982   4.301   0.757  0.0742 -0.7822 -1.0338
  117MOL   C29649248   5.010   4.988   0.891  0.0434 -0.2447  0.3602
  117MOL   C29749249   5.058   5.030   1.030  0.7727 -0.3172  0.2917
  117MOL   C29849250   4.936   5.036   1.121  0.1939  0.0152 -0.4448
  117MOL   C29949251   4.897   4.904   1.196 -0.3088  0.2034 -0.3024
  117MOL   C30049252   5.004   4.858   1.304 -0.3520  0.6690 -0.0078
  117MOL   C30149253   4.979   4.712   1.336  0.3829  0.1257 -0.7407
  117MOL   C30249254   5.071   4.648   1.446  0.8160 -0.5759 -0.7091
  117MOL   H30349255   4.940   5.060   0.850  0.0492  0.9452  2.3633
  117MOL   H30449256   4.955   4.895   0.910  0.7980 -0.7039  0.3123
  117MOL   H30549257   5.125   4.957   1.074 -0.2042 -1.3495  0.0816
  117MOL   H30649258   4.945   5.110   1.200 -1.9597 -0.3937  0.2291
  117MOL   H30749259   4.845   5.075   1.075  0.2906 -1.7296 -2.1806
  117MOL   H30849260   4.877   4.824   1.124  1.2075 -0.7895  0.3640
  117MOL   H30949261   4.802   4.934   1.242  0.6183  0.9321  1.1579
  117MOL   H31049262   5.003   4.924   1.391 -2.5522  1.2422 -0.4472
  117MOL   H31149263   5.103   4.852   1.259 -0.1045 -3.7332  0.8838
  117MOL   H31249264   4.876   4.693   1.366  1.4232  0.0729  2.9533
  117MOL   H31349265   4.991   4.649   1.247  0.1103  0.3339 -0.9263
  117MOL   H31449266   5.171   4.627   1.408  1.8052 -0.3533  1.6854
  117MOL   H31549267   5.070   4.688   1.547 -1.0001 -3.4382  0.4422
  117MOL   H31649268   5.029   4.549   1.461  3.6346 -1.6427  0.3625
  117MOL   C31749269   5.131   5.174   1.027  0.0813 -0.3693 -0.2079
  117MOL   C31849270   5.237   5.199   1.145  0.3648 -0.3425  0.1562
  117MOL   C31949271   5.382   5.158   1.112 -0.7821  0.4051  0.2381
  117MOL   C32049272   5.403   5.008   1.095 -0.4508  1.0565  0.7635
  117MOL   C32149273   5.552   4.960   1.104 -0.0806  0.2789 -0.4837
  117MOL   C32249274   5.598   4.811   1.069  0.0458 -0.3020 -0.6871
  117MOL   C32349275   5.522   4.710   1.148  0.9505 -0.3798 -0.4476
  117MOL   H32449276   5.053   5.249   1.035  1.3889  0.8652  1.4393
  117MOL   H32549277   5.170   5.205   0.930  1.1594 -0.4752  0.1823
  117MOL   H32649278   5.198   5.153   1.236  1.2156  0.1876  0.7963
  117MOL   H32749279   5.437   5.183   1.202  0.5005 -1.6403  0.0567
  117MOL   H32849280   5.415   5.214   1.024 -0.8296  1.9562  1.1996
  117MOL   H32949281   5.371   4.977   0.995  1.4310  2.1234 -0.1908
  117MOL   H33049282   5.337   4.948   1.158 -0.5951 -0.0199 -0.3820
  117MOL   H33149283   5.579   4.990   1.205  0.4326  1.5611 -0.9875
  117MOL   H33249284   5.613   5.016   1.034 -0.3073 -0.5544 -1.3591
  117MOL   H33349285   5.706   4.806   1.087 -0.3742 -0.5578  2.0706
  117MOL   H33449286   5.574   4.802   0.963 -2.4526  1.5307 -0.3289
  117MOL   H33549287   5.418   4.741   1.157  0.4492 -1.9791 -0.4617
  117MOL   H33649288   5.565   4.690   1.246  2.5214  0.8510 -0.8704
  117MOL   H33749289   5.513   4.615   1.094  0.5427 -0.3263 -0.4784
  117MOL   C33849290   5.238   5.357   1.184 -0.2533  0.3180 -0.1356
  117MOL   C33949291   5.314   5.408   1.312  0.5055  0.6555  0.0642
  117MOL   C34049292   5.296   5.311   1.437  0.8734 -0.7621 -0.2601
  117MOL   C34149293   5.148   5.313   1.476  0.0799 -0.0507  0.0819
  117MOL   C34249294   5.130   5.242   1.606  0.5559 -0.6979  0.4470
  117MOL   C34349295   4.987   5.198   1.637  0.8895 -0.5070  0.3434
  117MOL   C34449296   4.959   5.128   1.776  0.3961  0.5913 -0.3581
  117MOL   H34549297   5.138   5.400   1.181 -0.0598  0.7207 -1.1151
  117MOL   H34649298   5.297   5.407   1.107 -1.8611  0.6158 -1.1887
  117MOL   H34749299   5.418   5.394   1.284 -0.3630  0.7102 -3.4539
  117MOL   H34849300   5.319   5.209   1.406 -0.4984 -1.0635 -0.3092
  117MOL   H34949301   5.368   5.337   1.515  0.3068 -0.9877  0.3431
  117MOL   H35049302   5.076   5.278   1.403 -0.1672 -0.2508  0.4167
  117MOL   H35149303   5.121   5.419   1.477 -0.0913 -0.0561  3.2135
  117MOL   H35249304   5.183   5.147   1.605  0.7666 -0.5675 -1.5460
  117MOL   H35349305   5.168   5.313   1.679 -1.1648 -1.3003  1.9789
  117MOL   H35449306   4.919   5.282   1.624  0.8818 -0.4113  0.9915
  117MOL   H35549307   4.962   5.142   1.547 -0.3763  0.1788  0.2647
  117MOL   H35649308   4.850   5.129   1.788  0.3755 -0.8812 -0.3523
  117MOL   H35749309   4.993   5.183   1.864 -1.3284  2.1687 -0.6343
  117MOL   H35849310   5.005   5.031   1.790 -0.1588  0.1933 -1.2830
  117MOL   C35949311   5.289   5.553   1.331  0.2630 -0.2689 -0.1358
  117MOL   C36049312   5.343   5.624   1.452 -0.9744 -0.3314  0.7076
  117MOL   C36149313   5.484   5.661   1.427 -0.0514 -0.2900  0.8004
  117MOL   C36249314   5.572   5.716   1.548  0.2445 -0.4097 -0.2936
  117MOL   C36349315   5.725   5.690   1.551 -0.1554 -0.0129 -0.7710
  117MOL   C36449316   5.806   5.804   1.621 -0.2799  0.5766 -0.6657
  117MOL   C36549317   5.959   5.781   1.611  0.2049 -0.7631 -0.1743
  117MOL   H36649318   5.183   5.575   1.324 -0.5382 -4.1857 -1.3287
  117MOL   H36749319   5.314   5.608   1.240  1.1518  0.6301  0.6358
  117MOL   H36849320   5.342   5.557   1.538  2.4305 -0.1848  0.9549
  117MOL   H36949321   5.537   5.567   1.407 -0.6197 -1.2687  3.6148
  117MOL   H37049322   5.496   5.726   1.341  0.2505 -0.6204  0.5889
  117MOL   H37149323   5.538   5.818   1.567 -0.7929 -0.7650 -0.1951
  117MOL   H37249324   5.528   5.653   1.626 -1.8416  0.2732 -0.8731
  117MOL   H37349325   5.743   5.593   1.595  0.9300  0.3350 -0.4305
  117MOL   H37449326   5.757   5.686   1.447  0.1986  1.5771 -0.7389
  117MOL   H37549327   5.773   5.894   1.569  0.3968  0.0016 -2.0991
  117MOL   H37649328   5.778   5.816   1.726 -1.0509 -1.3141 -0.6356
  117MOL   H37749329   6.013   5.756   1.702 -1.5835 -0.9360  0.8583
  117MOL   H37849330   5.984   5.693   1.551  1.3592 -2.5796  2.8685
  117MOL   H37949331   6.008   5.875   1.585 -0.6778 -0.5396 -1.0784
  117MOL   C38049332   5.261   5.749   1.489 -0.0997  0.1717  0.6838
  117MOL   C38149333   5.123   5.725   1.559 -0.5860 -0.1686  0.2973
  117MOL   C38249334   5.139   5.675   1.698 -0.1909  0.5113  0.8956
  117MOL   C38349335   5.005   5.635   1.764 -0.6418  0.3037 -0.1057
  117MOL   C38449336   5.026   5.553   1.899  0.4243 -0.1795  0.1871
  117MOL   C38549337   4.900   5.491   1.946  0.2608 -0.0357 -0.6329
  117MOL   C38649338   4.921   5.431   2.089  0.1881 -0.0433 -0.7768
  117MOL   H38749339   5.310   5.819   1.556 -1.9393  1.2610  0.9279
  117MOL   H38849340   5.253   5.797   1.392 -1.2277 -1.1381  0.1179
  117MOL   H38949341   5.069   5.650   1.500 -1.3181  1.0168 -0.5550
  117MOL   H39049342   5.199   5.745   1.756  1.6154 -2.6092  2.9174
  117MOL   H39149343   5.202   5.587   1.685  0.1548  0.7101  1.2279
  117MOL   H39249344   4.946   5.726   1.775 -0.8808  0.3625 -1.7177
  117MOL   H39349345   4.950   5.567   1.699  0.3407  1.1091 -1.7982
  117MOL   H39449346   5.106   5.479   1.892  0.5291 -0.0956  0.4865
  117MOL   H39549347   5.057   5.626   1.974 -0.1159  0.6918 -0.4293
  117MOL   H39649348   4.865   5.405   1.889  0.9744  1.0843 -2.7753
  117MOL   H39749349   4.813   5.557   1.941 -1.4141 -1.9426  1.8087
  117MOL   H39849350   4.826   5.394   2.128  0.5715  1.0128  1.2494
  117MOL   H39949351   4.956   5.505   2.161 -0.4750 -1.5470  1.1396
  117MOL   H40049352   5.004   5.361   2.098 -0.4777 -0.7556 -0.0860
  117MOL   C40149353   5.047   5.862   1.558 -0.3266 -0.0400 -0.1641
  117MOL   C40249354   4.976   5.889   1.422  0.1215 -0.0657 -0.3584
  117MOL   C40349355   4.903   6.023   1.418  0.1891  0.7579  0.7949
  117MOL   C40449356   4.811   6.047   1.538  0.6325 -0.0633 -0.3285
  117MOL   C40549357   4.694   5.941   1.544  0.1447 -0.0042 -0.1569
  117MOL   C40649358   4.595   5.964   1.656  0.0622 -0.2406 -0.1024
  117MOL   C40749359   4.639   5.940   1.796  0.2080 -0.2960 -0.6368
  117MOL   H40849360   5.123   5.938   1.577  0.8562 -1.9720  3.3025
  117MOL   H40949361   4.972   5.868   1.637  0.9223 -0.8643  1.0978
  117MOL   H41049362   4.913   5.802   1.398 -0.1916 -0.1438  0.7329
  117MOL   H41149363   4.847   6.014   1.325  0.2974 -2.8223  0.9851
  117MOL   H41249364   4.975   6.104   1.412 -0.1574  0.9812 -0.4959
  117MOL   H41349365   4.758   6.142   1.541  2.3168  0.8505  1.5979
  117MOL   H41449366   4.868   6.050   1.631  0.4782  2.6844 -0.2799
  117MOL   H41549367   4.648   5.961   1.447  0.7058 -2.4707 -0.9578
  117MOL   H41649368   4.729   5.838   1.548 -0.9418 -0.3581  0.3855
  117MOL   H41749369   4.545   6.060   1.648 -0.8001 -0.5828  1.0409
  117MOL   H41849370   4.520   5.886   1.641 -0.9356  0.4075  1.3468
  117MOL   H41949371   4.717   6.014   1.812  0.3791 -0.2938 -1.4800
  117MOL   H42049372   4.668   5.836   1.806  3.7032  0.5909 -0.8549
  117MOL   H42149373   4.559   5.967   1.866 -0.6120 -3.2350 -0.3900
  117MOL   H42249374   5.051   5.890   1.343  0.9679  3.0721  0.4527
  118MOL     C149375   4.268   2.559   1.467  0.4294  0.1875  0.1366
  118MOL     C249376   4.243   2.450   1.368  0.0252 -0.8074 -0.5767
  118MOL     C349377   4.184   2.503   1.236 -0.1062  0.1222 -0.2910
  118MOL     C449378   4.035   2.539   1.248 -0.3443  0.4482  0.1650
  118MOL     C549379   3.961   2.583   1.114 -0.8086 -0.1699  0.7303
  118MOL     C649380   3.804   2.596   1.125 -0.4192 -0.2087  0.0279
  118MOL     C749381   3.733   2.649   0.999  0.0598  0.6416  0.2035
  118MOL     H849382   4.345   2.628   1.434  0.8228 -0.1165  0.4164
  118MOL     H949383   4.304   2.522   1.563  3.0400 -0.0676 -0.9143
  118MOL    H1049384   4.346   2.415   1.354 -0.1252 -0.7679 -1.8692
  118MOL    H1149385   4.248   2.583   1.199 -0.2403  0.5788  0.4664
  118MOL    H1249386   4.192   2.432   1.154  2.0032 -0.2236  0.1947
  118MOL    H1349387   3.980   2.449   1.276 -0.8736  1.0342  1.0016
  118MOL    H1449388   4.006   2.613   1.321  0.3207 -0.8831  1.8116
  118MOL    H1549389   3.976   2.506   1.038  0.8239  1.6324 -0.8224
  118MOL    H1649390   4.006   2.676   1.079 -0.1236 -0.6400  0.3567
  118MOL    H1749391   3.784   2.660   1.211  0.7582 -0.0713  0.2191
  118MOL    H1849392   3.769   2.500   1.162  0.7551 -0.4798  0.4753
  118MOL    H1949393   3.626   2.662   1.014 -0.0878  2.3006 -2.0488
  118MOL    H2049394   3.746   2.579   0.917 -0.0048 -0.9101  1.4975
  118MOL    H2149395   3.779   2.743   0.967  4.6597 -2.0849 -1.6678
  118MOL    H2249396   4.180   2.621   1.488 -0.2777 -0.6064 -0.4557
  118MOL    C2349397   4.169   2.332   1.439 -0.3130 -0.4981 -0.1909
  118MOL    C2449398   4.153   2.204   1.351 -0.2477  0.3677 -0.4005
  118MOL    C2549399   4.074   2.090   1.424  0.4227  0.1781  0.0335
  118MOL    C2649400   4.128   2.037   1.562 -0.4218 -0.4314  0.1303
  118MOL    C2749401   4.046   1.922   1.622 -0.1504 -0.0264  0.2630
  118MOL    C2849402   4.109   1.889   1.758 -0.1802 -0.0371  0.2378
  118MOL    C2949403   4.028   1.788   1.842 -0.0604 -0.4188  0.2892
  118MOL    H3049404   4.228   2.302   1.525  1.2537 -0.5582 -1.2524
  118MOL    H3149405   4.072   2.368   1.472  1.1406  2.9188  0.5973
  118MOL    H3249406   4.097   2.237   1.264 -0.2699  2.2476  0.2862
  118MOL    H3349407   4.069   2.004   1.359  0.3449  1.1793 -1.2988
  118MOL    H3449408   3.971   2.121   1.442  0.8635  0.7633  1.6597
  118MOL    H3549409   4.128   2.119   1.634 -1.5557 -0.2204 -0.0929
  118MOL    H3649410   4.227   1.994   1.551 -1.0392 -2.1400  1.1563
  118MOL    H3749411   4.048   1.839   1.551  1.9338 -0.5025  0.8423
  118MOL    H3849412   3.941   1.947   1.634  0.0918 -0.3948  3.9420
  118MOL    H3949413   4.122   1.978   1.819  0.5676  1.1441 -1.5997
  118MOL    H4049414   4.211   1.851   1.756  0.4125  1.5495  0.0232
  118MOL    H4149415   3.999   1.703   1.780 -1.7609 -0.4358  1.0679
  118MOL    H4249416   4.101   1.758   1.916 -0.2574 -1.6641 -0.0175
  118MOL    H4349417   3.935   1.829   1.882  0.1099  1.0266 -0.7362
  118MOL    C4449418   4.288   2.152   1.302  0.0349  0.0173 -0.0788
  118MOL    C4549419   4.299   2.025   1.225  0.0563  0.1135  0.2091
  118MOL    C4649420   4.199   2.012   1.106  0.2660  0.2466 -0.5071
  118MOL    C4749421   4.221   2.117   0.992 -0.0480  0.5196 -0.9178
  118MOL    C4849422   4.088   2.156   0.926 -0.1583 -1.2790  0.2892
  118MOL    C4949423   4.029   2.044   0.838  0.3165 -0.3901  0.2046
  118MOL    C5049424   3.875   2.066   0.807  0.7277  0.1475 -0.1338
  118MOL    H5149425   4.354   2.146   1.389  0.6394  0.9431 -0.4604
  118MOL    H5249426   4.340   2.233   1.250 -1.5147  1.2658  0.2978
  118MOL    H5349427   4.261   1.956   1.300 -0.4635 -1.2685 -1.3047
  118MOL    H5449428   4.105   2.014   1.161  0.9282 -1.5113  0.7255
  118MOL    H5549429   4.209   1.909   1.072 -2.6173 -0.9937  2.1473
  118MOL    H5649430   4.253   2.211   1.036  2.0444  0.3707 -2.0724
  118MOL    H5749431   4.298   2.091   0.920 -0.6764  0.5302 -1.5991
  118MOL    H5849432   4.101   2.252   0.876 -1.8366 -0.7632  0.8256
  118MOL    H5949433   4.019   2.186   1.005  1.0356  0.7823  0.6001
  118MOL    H6049434   4.035   1.950   0.891 -1.3563  1.0027  2.9948
  118MOL    H6149435   4.092   2.020   0.753  1.1270  0.3323  0.5940
  118MOL    H6249436   3.855   2.161   0.755  2.0976  0.5116 -0.0144
  118MOL    H6349437   3.823   2.063   0.902 -1.7118  1.7169 -1.3628
  118MOL    H6449438   3.830   1.987   0.746  3.0872 -1.1197 -0.2879
  118MOL    C6549439   4.444   1.988   1.196  0.3288 -0.4762 -0.2341
  118MOL    C6649440   4.489   1.847   1.141 -0.2056 -0.4570 -0.2518
  118MOL    C6749441   4.472   1.724   1.238 -0.3601 -0.0101 -0.2305
  118MOL    C6849442   4.336   1.674   1.276 -0.4358  0.4658  0.7873
  118MOL    C6949443   4.326   1.517   1.316 -0.3913  0.0701  0.1405
  118MOL    C7049444   4.185   1.465   1.334 -0.2547 -0.2050 -0.2895
  118MOL    C7149445   4.113   1.514   1.465 -0.0796 -0.0631 -0.6447
  118MOL    H7249446   4.478   2.064   1.125  0.8238 -0.7462 -0.2873
  118MOL    H7349447   4.502   2.005   1.287  0.1067 -0.2623 -0.1317
  118MOL    H7449448   4.433   1.838   1.047  0.4424  2.4253 -0.9475
  118MOL    H7549449   4.530   1.644   1.192  2.5369  1.3145  0.9549
  118MOL    H7649450   4.523   1.744   1.332 -1.4733 -0.0488  0.3881
  118MOL    H7749451   4.300   1.716   1.371  0.9716  3.1017  0.1929
  118MOL    H7849452   4.257   1.713   1.211  0.7385  0.4579 -0.6609
  118MOL    H7949453   4.380   1.454   1.246  1.5779 -0.2457  1.8724
  118MOL    H8049454   4.382   1.493   1.406 -0.7193 -0.4272  0.2143
  118MOL    H8149455   4.195   1.358   1.348  0.2709 -0.0565  0.5206
  118MOL    H8249456   4.132   1.488   1.242  1.4941  0.1273 -1.2540
  118MOL    H8349457   4.191   1.498   1.540 -1.6700 -1.7648  0.6941
  118MOL    H8449458   4.089   1.619   1.452  1.2527  0.1026 -1.9047
  118MOL    H8549459   4.020   1.466   1.496 -0.5836  0.0993 -1.8791
  118MOL    C8649460   4.633   1.852   1.086 -0.3243  0.6258  0.3489
  118MOL    C8749461   4.683   1.969   0.999 -0.5111 -0.2146 -0.5169
  118MOL    C8849462   4.840   1.956   0.982 -0.6052  0.6400  0.2496
  118MOL    C8949463   4.902   1.837   0.902 -0.1803 -0.0828  0.3318
  118MOL    C9049464   5.054   1.850   0.880 -0.6180 -0.2665 -0.2234
  118MOL    C9149465   5.107   1.729   0.814  0.4836  0.1715 -0.1682
  118MOL    C9249466   5.255   1.752   0.786 -0.1184  0.3606 -0.3063
  118MOL    H9349467   4.690   1.854   1.179 -0.1074  0.8200  0.2139
  118MOL    H9449468   4.648   1.756   1.037 -0.5788 -0.0088  1.5067
  118MOL    H9549469   4.673   2.056   1.063  0.7455  0.4965 -1.2572
  118MOL    H9649470   4.878   2.050   0.942  1.1575  0.5837  1.7233
  118MOL    H9749471   4.887   1.960   1.081  0.0131  0.4974 -0.0322
  118MOL    H9849472   4.876   1.743   0.952 -1.5723  1.4511  2.5616
  118MOL    H9949473   4.856   1.827   0.803 -3.1896  2.6291  1.3885
  118MOL   H10049474   5.103   1.870   0.975  0.1488  0.1222 -0.6925
  118MOL   H10149475   5.073   1.935   0.814 -2.6556 -0.2466 -0.8387
  118MOL   H10249476   5.091   1.640   0.876 -1.5145  0.7764  0.2091
  118MOL   H10349477   5.077   1.700   0.713  0.0738  0.9497 -0.2699
  118MOL   H10449478   5.297   1.658   0.749  0.2783 -0.7406  2.8503
  118MOL   H10549479   5.307   1.769   0.880 -1.7982  0.6372  0.5718
  118MOL   H10649480   5.274   1.829   0.711 -0.3969  1.9971  1.2624
  118MOL   C10749481   4.609   1.987   0.868 -0.6126 -0.6425 -0.7579
  118MOL   C10849482   4.632   2.127   0.802  0.3640  0.5651  0.2012
  118MOL   C10949483   4.586   2.119   0.650  0.1244  0.8281 -0.0136
  118MOL   C11049484   4.436   2.082   0.627 -0.3540  0.3063 -0.1065
  118MOL   C11149485   4.393   2.064   0.485  0.5776  0.4568  0.2764
  118MOL   C11249486   4.248   2.035   0.471  0.6785  0.3173 -0.3750
  118MOL   C11349487   4.193   2.031   0.329  0.4321  0.0975 -0.3084
  118MOL   H11449488   4.503   1.979   0.894 -1.0882  2.0388 -1.7835
  118MOL   H11549489   4.628   1.900   0.805  0.1385 -0.0157 -1.3903
  118MOL   H11649490   4.739   2.146   0.788  0.4392  0.7171  0.9667
  118MOL   H11749491   4.653   2.049   0.598  0.2212  0.7595  0.2028
  118MOL   H11849492   4.608   2.210   0.595  0.3846 -0.1178 -1.5067
  118MOL   H11949493   4.414   1.986   0.673 -0.8069 -1.1114 -3.1558
  118MOL   H12049494   4.373   2.159   0.671 -2.0752 -0.4504 -1.1989
  118MOL   H12149495   4.448   1.978   0.446  0.7021  0.9267 -0.5946
  118MOL   H12249496   4.418   2.155   0.431 -1.0152  0.9960  0.4368
  118MOL   H12349497   4.224   1.938   0.514 -1.4200  1.6145  1.4958
  118MOL   H12449498   4.186   2.101   0.532 -0.0989 -0.9792  0.2657
  118MOL   H12549499   4.203   2.126   0.277 -2.6583  0.8976  0.5011
  118MOL   H12649500   4.264   1.965   0.278  0.9668 -0.0581  0.6185
  118MOL   H12749501   4.093   1.987   0.327  0.5330 -0.1662  0.5691
  118MOL   C12849502   4.588   2.244   0.885 -0.7834  0.0823  0.1444
  118MOL   C12949503   4.574   2.378   0.812  0.1661 -0.1847  0.6960
  118MOL   C13049504   4.707   2.439   0.759  0.0373 -0.8769  0.3401
  118MOL   C13149505   4.829   2.440   0.856  0.3843 -0.2076 -0.0606
  118MOL   C13249506   4.940   2.537   0.818 -1.0106  0.4421 -0.5206
  118MOL   C13349507   5.024   2.493   0.699  0.2125  0.0622 -0.3510
  118MOL   C13449508   5.128   2.599   0.644 -0.6474  0.0140  0.3417
  118MOL   H13549509   4.491   2.228   0.933 -1.0246  2.5612  0.5902
  118MOL   H13649510   4.657   2.256   0.968 -0.9311  0.7662  0.1734
  118MOL   H13749511   4.502   2.367   0.731  0.3745  0.4523  0.4182
  118MOL   H13849512   4.698   2.544   0.731 -1.8403 -0.1132  3.4603
  118MOL   H13949513   4.734   2.380   0.672  0.1740 -0.0544 -0.1726
  118MOL   H14049514   4.880   2.344   0.853  0.2424 -0.2779 -0.2461
  118MOL   H14149515   4.798   2.448   0.960  1.7879  1.9470  0.2359
  118MOL   H14249516   5.014   2.525   0.897 -1.6957 -0.4552 -0.0103
  118MOL   H14349517   4.903   2.639   0.818 -3.1607 -0.3006  0.8880
  118MOL   H14449518   4.971   2.474   0.605  1.2608  0.2920 -1.0010
  118MOL   H14549519   5.088   2.409   0.726  1.9305  1.3561 -0.3066
  118MOL   H14649520   5.153   2.577   0.540  0.0041 -0.2788  0.5572
  118MOL   H14749521   5.211   2.592   0.714  0.3878 -0.3710 -0.9285
  118MOL   H14849522   5.076   2.695   0.652 -2.0645 -0.3121 -3.9541
  118MOL   C14949523   4.509   2.488   0.901  0.3319 -0.2511 -0.0317
  118MOL   C15049524   4.402   2.570   0.830 -0.1710 -0.1063  0.2626
  118MOL   C15149525   4.368   2.698   0.910 -0.1926  0.0770 -0.8580
  118MOL   C15249526   4.261   2.796   0.851  0.2886 -0.1069  0.6035
  118MOL   C15349527   4.240   2.918   0.942  0.1262 -0.0267 -0.2126
  118MOL   C15449528   4.105   2.988   0.912 -0.1194  0.3982  0.6602
  118MOL   C15549529   4.085   3.024   0.762  0.2093 -0.0355 -0.1252
  118MOL   H15649530   4.473   2.459   1.000  0.5378 -1.6536 -0.3671
  118MOL   H15749531   4.582   2.566   0.925  0.5954 -1.1295  2.1335
  118MOL   H15849532   4.448   2.615   0.742  1.3943 -1.7301  0.2131
  118MOL   H15949533   4.333   2.672   1.009  1.5104 -1.0643 -0.5249
  118MOL   H16049534   4.457   2.759   0.929  0.1768  1.0230 -4.9923
  118MOL   H16149535   4.164   2.746   0.849  1.7742 -3.2177  2.0977
  118MOL   H16249536   4.285   2.816   0.747  1.3254 -2.0424  0.4445
  118MOL   H16349537   4.324   2.986   0.926  1.2067 -1.1373  0.6721
  118MOL   H16449538   4.243   2.886   1.046 -1.0044  1.2888  0.2462
  118MOL   H16549539   4.096   3.076   0.976 -1.2491  1.0498 -0.3765
  118MOL   H16649540   4.022   2.923   0.938 -0.5765  1.2062  1.2667
  118MOL   H16749541   4.098   2.935   0.700 -0.3476 -0.3943  0.2677
  118MOL   H16849542   4.159   3.093   0.724  0.5470  0.0072  0.6060
  118MOL   H16949543   3.984   3.063   0.748  0.2558 -0.9453 -3.3234
  118MOL   C17049544   4.273   2.486   0.793 -0.1358  0.2888 -0.8128
  118MOL   C17149545   4.201   2.517   0.659 -0.0436  0.5669  0.2156
  118MOL   C17249546   4.284   2.486   0.537  0.1880  0.0062 -0.2122
  118MOL   C17349547   4.235   2.542   0.401  0.5250  0.5286  0.3204
  118MOL   C17449548   4.340   2.530   0.285 -0.4853 -0.1522  0.3082
  118MOL   C17549549   4.386   2.386   0.240 -0.7030  0.8042  0.4653
  118MOL   C17649550   4.481   2.383   0.126 -0.2826 -0.7119 -0.2184
  118MOL   H17749551   4.198   2.502   0.870 -0.9963 -1.1580 -1.3307
  118MOL   H17849552   4.298   2.380   0.797  1.4657  0.6636 -0.3140
  118MOL   H17949553   4.197   2.626   0.649  1.3487  0.7157  1.0717
  118MOL   H18049554   4.307   2.380   0.528 -0.3133 -0.2781  1.6913
  118MOL   H18149555   4.388   2.515   0.552  0.6955 -0.3061 -2.8223
  118MOL   H18249556   4.213   2.649   0.411 -0.7511  0.3054 -0.0347
  118MOL   H18349557   4.145   2.489   0.370  0.3474  1.6043 -1.0515
  118MOL   H18449558   4.431   2.582   0.314  0.6150  0.2943 -3.5947
  118MOL   H18549559   4.302   2.587   0.200 -0.3192 -0.0604  0.2951
  118MOL   H18649560   4.303   2.318   0.221 -0.1650  0.1066  0.6052
  118MOL   H18749561   4.433   2.344   0.329 -1.0298  0.3890  0.4476
  118MOL   H18849562   4.569   2.442   0.152 -0.3341 -0.1334 -1.3159
  118MOL   H18949563   4.448   2.425   0.031 -1.0242  2.1486  1.2533
  118MOL   H19049564   4.517   2.281   0.112  2.2145 -0.0636  1.1648
  118MOL   C19149565   4.053   2.456   0.668 -0.9865 -0.4418  0.4325
  118MOL   C19249566   3.940   2.512   0.575  0.2155 -1.1167  0.2741
  118MOL   C19349567   3.816   2.418   0.576  0.0273 -0.2345 -0.6917
  118MOL   C19449568   3.833   2.300   0.486  0.1178  0.0357  0.4535
  118MOL   C19549569   3.699   2.217   0.475  0.3496  0.4057 -0.8084
  118MOL   C19649570   3.584   2.277   0.398  0.9548 -0.1050 -0.1555
  118MOL   C19749571   3.592   2.308   0.247  0.1668  0.0825  0.3089
  118MOL   H19849572   4.017   2.484   0.767 -0.0577  2.6075 -0.0280
  118MOL   H19949573   4.054   2.347   0.665 -0.4529 -0.4258  0.0296
  118MOL   H20049574   3.978   2.521   0.473  1.5625 -2.5691  0.6258
  118MOL   H20149575   3.727   2.469   0.538 -0.2835  0.0444  0.3976
  118MOL   H20249576   3.778   2.398   0.676 -0.1218 -0.1275 -0.7266
  118MOL   H20349577   3.924   2.246   0.512  0.6535  0.3933 -0.6360
  118MOL   H20449578   3.857   2.356   0.395 -1.9563  0.1080 -0.0672
  118MOL   H20549579   3.713   2.118   0.430  1.1643  0.3735 -0.4939
  118MOL   H20649580   3.655   2.202   0.573  0.3487  0.9830 -0.7247
  118MOL   H20749581   3.546   2.364   0.453 -0.2827 -0.7049 -0.0382
  118MOL   H20849582   3.498   2.210   0.408  0.9560 -0.3076 -1.4039
  118MOL   H20949583   3.650   2.225   0.208 -1.3268  0.1367 -2.1734
  118MOL   H21049584   3.646   2.400   0.224  0.8627 -0.9552 -2.3673
  118MOL   H21149585   3.493   2.297   0.201  0.9313  1.8755 -1.8721
  118MOL   C21249586   3.893   2.650   0.621 -0.6320 -0.0090 -0.3366
  118MOL   C21349587   3.806   2.727   0.510  0.1837  0.1178 -0.5747
  118MOL   C21449588   3.747   2.857   0.567  0.3475 -0.5613 -0.3691
  118MOL   C21549589   3.623   2.837   0.662 -0.7423 -0.6449  0.0948
  118MOL   C21649590   3.563   2.973   0.703 -0.0996  0.1947 -0.0774
  118MOL   C21749591   3.436   2.963   0.785  0.3881  0.0487 -0.2116
  118MOL   C21849592   3.473   2.939   0.929  0.3163 -0.3483  0.4824
  118MOL   H21949593   3.980   2.712   0.642 -0.8758  0.3814 -0.4815
  118MOL   H22049594   3.839   2.638   0.716  0.8106 -0.0097  0.4968
  118MOL   H22149595   3.725   2.662   0.476 -0.3553 -2.0171  4.4508
  118MOL   H22249596   3.826   2.908   0.621  0.4359  0.3462 -1.3428
  118MOL   H22349597   3.712   2.925   0.489 -1.3165  0.4041  1.1659
  118MOL   H22449598   3.653   2.778   0.748  0.3131  0.9929  0.8978
  118MOL   H22549599   3.557   2.774   0.604 -1.7570  1.8445 -1.5517
  118MOL   H22649600   3.641   3.034   0.749 -1.0640  0.8547  0.6992
  118MOL   H22749601   3.526   3.011   0.608 -0.0800 -0.2284 -0.2556
  118MOL   H22849602   3.386   3.060   0.784  0.5922  0.1549 -0.0480
  118MOL   H22949603   3.380   2.885   0.733 -2.0898  2.0978 -0.6806
  118MOL   H23049604   3.387   2.978   0.985 -0.2384 -2.5499  1.2492
  118MOL   H23149605   3.561   2.995   0.959  0.0993 -0.4294  1.2807
  118MOL   H23249606   3.483   2.832   0.947  1.2994 -0.5677 -1.3063
  118MOL   C23349607   3.881   2.768   0.379  0.0772 -0.8978  0.1443
  118MOL   C23449608   3.836   2.693   0.251  0.1282  0.2630 -0.0043
  118MOL   C23549609   3.696   2.743   0.206  0.1130  0.5436  0.8369
  118MOL   C23649610   3.684   2.879   0.139 -0.4450 -0.4884  0.1894
  118MOL   C23749611   3.542   2.889   0.067  0.0056  0.3270 -0.5237
  118MOL   C23849612   3.529   3.016   7.698  0.0433  0.1137 -0.0527
  118MOL   C23949613   3.524   3.141   0.083 -0.7579  0.2139 -0.1405
  118MOL   H24049614   3.983   2.739   0.405 -0.0780 -0.8179  0.8369
  118MOL   H24149615   3.876   2.875   0.361 -0.6909 -1.1069 -1.0266
  118MOL   H24249616   3.834   2.584   0.262 -2.2134  0.2578 -0.2626
  118MOL   H24349617   3.631   2.744   0.293 -1.0604  3.1891 -0.0429
  118MOL   H24449618   3.648   2.666   0.145 -0.8878  1.0932  0.9239
  118MOL   H24549619   3.757   2.897   0.059 -0.7604 -1.1523 -0.2515
  118MOL   H24649620   3.702   2.952   0.218  0.4927 -1.6537  1.0563
  118MOL   H24749621   3.465   2.886   0.144 -0.4373  3.0173 -0.8329
  118MOL   H24849622   3.535   2.802   0.002 -0.0306 -0.2914  0.2999
  118MOL   H24949623   3.618   3.023   7.635 -0.3162 -1.9756 -0.8383
  118MOL   H25049624   3.436   3.004   7.642 -0.4700  1.2864  0.5337
  118MOL   H25149625   3.455   3.125   0.166 -0.3932 -1.2631 -0.0995
  118MOL   H25249626   3.629   3.146   0.112 -1.3343  0.5693  1.9678
  118MOL   H25349627   3.494   3.227   0.022 -0.8061  0.6150  0.4494
  118MOL   C25449628   3.939   2.712   0.138 -0.6091  0.3563 -1.0187
  118MOL   C25549629   3.899   2.645   7.711  0.3033 -0.5210 -0.8691
  118MOL   C25649630   3.861   2.498   0.012  0.3380  0.0282  0.5664
  118MOL   C25749631   3.980   2.402   0.048  0.1319  0.4089  0.0822
  118MOL   C25849632   3.942   2.256   0.095 -0.3025  0.1095 -0.0467
  118MOL   C25949633   3.893   2.161   7.693 -0.9015 -0.3342  0.0883
  118MOL   C26049634   3.857   2.020   0.032 -0.3919 -0.4753  0.5447
  118MOL   H26149635   4.040   2.694   0.176 -0.3126  2.5946 -0.6462
  118MOL   H26249636   3.951   2.818   0.117  2.9260  0.1362 -0.5242
  118MOL   H26349637   3.809   2.701   7.688  0.1730  0.0633  0.9746
  118MOL   H26449638   3.805   2.465   7.639  1.8674  0.9086 -0.8045
  118MOL   H26549639   3.790   2.489   0.094  2.3826 -2.5812  2.1163
  118MOL   H26649640   4.055   2.389   7.682  0.0667  3.7190 -0.5571
  118MOL   H26749641   4.033   2.442   0.134  2.4165 -1.1143 -0.5544
  118MOL   H26849642   3.862   2.263   0.169 -2.0498 -0.4203 -1.8265
  118MOL   H26949643   4.024   2.213   0.153 -0.0171  0.0290 -0.5125
  118MOL   H27049644   3.810   2.206   7.637  0.3258 -0.6232 -2.0201
  118MOL   H27149645   3.976   2.142   7.625 -0.1373  1.7740  0.3868
  118MOL   H27249646   3.813   2.013   0.132 -0.7049 -0.0368  0.4373
  118MOL   H27349647   3.787   1.977   7.673 -1.8124 -2.4783  3.0040
  118MOL   H27449648   3.939   1.949   0.023  0.4982  0.8077 -1.6772
  118MOL   C27549649   4.009   2.670   7.597  1.1238 -0.3847 -0.1652
  118MOL   C27649650   4.009   2.802   7.512 -0.7075 -0.1143 -0.4172
  118MOL   C27749651   3.900   2.801   7.396  0.4333  0.1967  0.6511
  118MOL   C27849652   3.757   2.792   7.446  0.0022  0.5679 -0.0329
  118MOL   C27949653   3.642   2.802   7.341  1.0676  0.2680 -0.2139
  118MOL   C28049654   3.507   2.825   7.407  0.6643  0.2641 -0.2628
  118MOL   C28149655   3.387   2.774   7.323 -0.1986 -0.9343 -0.1243
  118MOL   H28249656   3.994   2.599   7.515 -1.6727  1.5395 -1.4004
  118MOL   H28349657   4.107   2.642   7.636  0.5757 -0.9937  0.7814
  118MOL   H28449658   3.985   2.884   7.579  1.1878 -0.9096  1.2933
  118MOL   H28549659   3.908   2.898   7.346 -1.9731  0.1553  0.1160
  118MOL   H28649660   3.912   2.720   7.325 -0.0773  0.8707 -0.2016
  118MOL   H28749661   3.741   2.863   7.527  1.8233  1.4904 -0.4480
  118MOL   H28849662   3.734   2.691   7.480 -2.6500  0.7887 -1.0127
  118MOL   H28949663   3.639   2.713   7.279  2.0250 -0.5881  0.9510
  118MOL   H29049664   3.665   2.884   7.273  1.5259  0.0725 -0.2956
  118MOL   H29149665   3.509   2.780   7.506 -2.3921  0.0036 -0.2829
  118MOL   H29249666   3.496   2.932   7.424 -2.7047 -0.0645 -0.1198
  118MOL   H29349667   3.368   2.838   7.237 -2.8514 -0.6985  0.6139
  118MOL   H29449668   3.291   2.776   7.375 -0.2588 -0.8430 -0.2392
  118MOL   H29549669   3.414   2.675   7.287  0.2400 -0.2128 -1.8250
  118MOL   C29649670   4.144   2.829   7.455 -0.3882  0.9059 -0.1932
  118MOL   C29749671   4.171   2.980   7.428 -0.1978 -0.5589 -0.3612
  118MOL   C29849672   4.314   2.981   7.369  0.2074  0.7855 -0.4347
  118MOL   C29949673   4.366   3.128   7.353  0.3352  0.4324  0.3607
  118MOL   C30049674   4.486   3.117   7.262  0.5382  0.1422  0.0402
  118MOL   C30149675   4.543   3.254   7.233 -0.1168 -0.3217 -0.0285
  118MOL   C30249676   4.453   3.341   7.142 -0.2591 -0.4868 -0.3011
  118MOL   H30349677   4.216   2.785   7.524 -0.6320  2.8462  1.3372
  118MOL   H30449678   4.149   2.772   7.362 -1.4793  1.0971 -0.3838
  118MOL   H30549679   4.113   3.023   7.346  1.7495  1.3165 -0.8208
  118MOL   H30649680   4.386   2.920   7.425 -0.6919 -0.5706 -0.7411
  118MOL   H30749681   4.308   2.934   7.271  0.5180  0.6632 -0.3961
  118MOL   H30849682   4.411   3.160   7.447  0.2628  0.5196  0.3655
  118MOL   H30949683   4.287   3.193   7.314 -0.6625  0.4593  2.3470
  118MOL   H31049684   4.472   3.062   7.169 -0.2153 -0.6401  0.5988
  118MOL   H31149685   4.560   3.059   7.318  1.2607 -2.4596 -3.4070
  118MOL   H31249686   4.568   3.303   7.327  0.7829 -0.7273 -0.0515
  118MOL   H31349687   4.632   3.236   7.172 -0.8155 -1.8805 -0.6160
  118MOL   H31449688   4.418   3.289   7.053  1.1249  1.1964 -1.8973
  118MOL   H31549689   4.360   3.378   7.185 -0.4425 -0.3302 -0.8248
  118MOL   H31649690   4.489   3.437   7.105  1.8594 -1.3758 -0.6136
  118MOL   C31749691   4.152   3.072   7.556  0.0137  0.4339  0.1548
  118MOL   C31849692   4.025   3.162   7.558  0.6332 -0.2132 -0.0276
  118MOL   C31949693   4.025   3.216   7.706 -0.4703 -0.1141 -0.8059
  118MOL   C32049694   3.968   3.115   0.094  0.6862 -0.1042  0.4910
  118MOL   C32149695   4.003   3.143   0.236  0.5896 -0.7417  0.1947
  118MOL   C32249696   4.147   3.098   0.263 -0.2698 -0.3142  0.2024
  118MOL   C32349697   4.166   3.120   0.414  0.2906  0.9223 -0.1820
  118MOL   H32449698   4.238   3.136   7.578 -0.5204  0.7541  1.2968
  118MOL   H32549699   4.153   3.006   7.642 -1.6152  1.1424  0.7305
  118MOL   H32649700   3.932   3.107   7.543  0.3364 -0.2911  1.9783
  118MOL   H32749701   3.973   3.311   7.705  0.4075  0.3720 -2.8010
  118MOL   H32849702   4.123   3.247   0.029  0.0452 -3.3485  0.7556
  118MOL   H32949703   4.011   3.017   0.077  4.1690  1.6376 -1.3416
  118MOL   H33049704   3.859   3.119   0.099  0.6749  4.0172 -0.6509
  118MOL   H33149705   3.927   3.113   0.308  0.2484 -0.3042  0.0240
  118MOL   H33249706   3.992   3.251   0.247  0.7908 -0.3291 -3.1297
  118MOL   H33349707   4.224   3.145   0.202 -0.0879  1.8938  2.0668
  118MOL   H33449708   4.158   2.990   0.260 -0.3544 -0.3105 -0.2502
  118MOL   H33549709   4.084   3.070   0.466 -0.0332 -0.6585 -2.1430
  118MOL   H33649710   4.163   3.225   0.441 -1.8675  1.2421 -1.5564
  118MOL   H33749711   4.263   3.087   0.451 -0.1299 -0.2500 -0.0916
  118MOL   C33849712   4.028   3.269   7.444 -0.3156  1.0179  0.0645
  118MOL   C33949713   3.941   3.401   7.449  0.1512  0.2040 -0.2479
  118MOL   C34049714   3.792   3.372   7.468  0.1028  0.4185 -0.3684
  118MOL   C34149715   3.707   3.323   7.351  0.2199  0.5680 -0.2826
  118MOL   C34249716   3.566   3.303   7.386 -0.3185 -0.3388  0.0336
  118MOL   C34349717   3.495   3.227   7.272  0.7248 -0.7971  0.4851
  118MOL   C34449718   3.345   3.235   7.287 -0.2445  0.2762 -0.4286
  118MOL   H34549719   4.015   3.218   7.349  0.0513  1.8034 -0.4140
  118MOL   H34649720   4.133   3.300   7.437 -0.0841  0.1136 -0.5357
  118MOL   H34749721   3.970   3.457   7.538  0.0221 -0.2189  0.0622
  118MOL   H34849722   3.769   3.306   7.551 -0.1972  0.0344 -0.7514
  118MOL   H34949723   3.750   3.461   7.514 -1.2475  1.3518 -3.3049
  118MOL   H35049724   3.739   3.224   7.319 -0.2340  0.4848 -0.4900
  118MOL   H35149725   3.712   3.391   7.267  0.6923 -0.0427 -0.7571
  118MOL   H35249726   3.549   3.242   7.475  0.1428 -0.0050  0.3550
  118MOL   H35349727   3.523   3.401   7.407  0.3855 -0.3216  1.4270
  118MOL   H35449728   3.529   3.260   7.173 -0.4734  2.6398  1.1537
  118MOL   H35549729   3.526   3.123   7.281  3.3645  0.0443  1.3977
  118MOL   H35649730   3.314   3.174   7.372  1.4055  0.2030  0.1380
  118MOL   H35749731   3.286   3.202   7.202  1.2753 -0.0603 -1.3561
  118MOL   H35849732   3.328   3.338   7.318  0.7429  0.1888  0.4419
  118MOL   C35949733   3.960   3.505   7.324  0.6737 -0.2418  0.1474
  118MOL   C36049734   3.873   3.636   7.330  0.2958  0.4268 -0.0188
  118MOL   C36149735   3.911   3.732   7.446 -0.2097 -0.6768 -0.8973
  118MOL   C36249736   4.059   3.780   7.451 -0.5065 -0.2797  0.0533
  118MOL   C36349737   4.086   3.903   7.548  0.3528 -0.2114  0.0985
  118MOL   C36449738   4.067   3.853   7.695  0.0194 -0.2209  0.0420
  118MOL   C36549739   3.983   3.944   0.077 -0.4964  0.7596  0.9954
  118MOL   H36649740   3.936   3.444   7.236 -1.3358 -0.1236  0.5876
  118MOL   H36749741   4.065   3.531   7.309  0.3005  0.7845 -0.7221
  118MOL   H36849742   3.770   3.610   7.351  0.1774  0.1452 -0.9464
  118MOL   H36949743   3.844   3.817   7.450 -1.8301 -1.9694  1.1082
  118MOL   H37049744   3.886   3.672   7.534  0.4866  0.1186 -0.1431
  118MOL   H37149745   4.138   3.704   7.456  0.8625  1.1509  0.6130
  118MOL   H37249746   4.075   3.819   7.351 -1.6047 -0.7205 -0.3033
  118MOL   H37349747   4.188   3.938   7.537  1.1924 -2.9404 -1.1710
  118MOL   H37449748   4.021   3.988   7.529  0.4613 -0.4645 -1.4483
  118MOL   H37549749   4.021   3.754   7.691  1.5444 -0.9013 -0.7012
  118MOL   H37649750   4.160   3.843   0.037  0.1629 -0.7551 -0.2934
  118MOL   H37749751   3.879   3.952   0.046 -1.2098 -0.3071  3.0270
  118MOL   H37849752   3.990   3.908   0.180  3.8454  2.1167  1.2795
  118MOL   H37949753   4.025   4.045   0.081  0.4388  0.5458 -2.1208
  118MOL   C38049754   3.860   3.703   7.189 -0.5372 -0.3391  0.2381
  118MOL   C38149755   3.732   3.789   7.176  0.0241 -0.0406 -0.3610
  118MOL   C38249756   3.752   3.913   7.082 -0.7075  0.4485 -0.9481
  118MOL   C38349757   3.862   4.007   7.137 -0.1675 -0.2887 -0.5973
  118MOL   C38449758   3.845   4.080   7.275 -0.3783  0.2820 -0.1240
  118MOL   C38549759   3.948   4.186   7.288  0.0363  0.0832 -0.5327
  118MOL   C38649760   3.910   4.274   7.406  0.2705 -0.6567  0.0050
  118MOL   H38749761   3.954   3.757   7.188 -1.1202  0.6780 -1.8096
  118MOL   H38849762   3.862   3.628   7.109 -1.4971  1.9844 -2.0249
  118MOL   H38949763   3.720   3.839   7.273  0.0884  1.1548 -0.9592
  118MOL   H39049764   3.655   3.962   7.069  0.1127  1.8810 -1.7395
  118MOL   H39149765   3.781   3.888   6.980  1.3173  2.6834 -0.9495
  118MOL   H39249766   3.958   3.955   7.148 -0.3430 -0.2530  1.3877
  118MOL   H39349767   3.873   4.070   7.049 -1.7327 -0.1850 -0.7339
  118MOL   H39449768   3.746   4.128   7.275  0.2380  1.6295  1.4837
  118MOL   H39549769   3.852   4.006   7.355  1.6223 -0.7545 -1.2320
  118MOL   H39649770   3.956   4.244   7.196  2.9032  0.6455  0.0088
  118MOL   H39749771   4.042   4.134   7.304 -0.4423 -0.0845  1.9055
  118MOL   H39849772   3.995   4.340   7.426  2.4809 -2.9419 -1.4737
  118MOL   H39949773   3.893   4.206   7.490  2.6676 -0.1905  0.9088
  118MOL   H40049774   3.823   4.335   7.385 -1.0831 -2.7883 -0.7308
  118MOL   C40149775   3.600   3.709   7.153  0.1418 -0.2936  0.9258
  118MOL   C40249776   3.586   3.644   7.020  0.0247  0.4874 -0.5264
  118MOL   C40349777   3.476   3.535   7.012  0.1261 -0.4825 -0.6524
  118MOL   C40449778   3.475   3.448   6.888 -0.0366 -0.0237  0.9040
  118MOL   C40549779   3.494   3.535   6.760 -0.6019  0.2983 -0.4188
  118MOL   C40649780   3.437   3.450   6.637 -0.6385  0.1122 -0.2132
  118MOL   C40749781   3.473   3.504   6.499  0.1124 -0.1043 -0.5627
  118MOL   H40849782   3.511   3.770   7.173  0.0045  0.2494 -1.2504
  118MOL   H40949783   3.601   3.628   7.226  0.2764 -0.4324  0.7679
  118MOL   H41049784   3.683   3.600   6.994  0.9532  1.7735  0.6489
  118MOL   H41149785   3.384   3.594   7.010  1.0848  1.3120  2.6397
  118MOL   H41249786   3.475   3.475   7.103 -3.4177 -1.0565 -1.0361
  118MOL   H41349787   3.382   3.392   6.878  0.3648 -0.4341 -0.6967
  118MOL   H41449788   3.564   3.389   6.910  0.3179  0.5917  1.1286
  118MOL   H41549789   3.433   3.625   6.764  0.2347  0.8296  0.2756
  118MOL   H41649790   3.600   3.555   6.746 -0.4612 -0.4227 -0.4003
  118MOL   H41749791   3.472   3.347   6.635  1.2540  0.7207  0.2325
  118MOL   H41849792   3.329   3.445   6.649 -0.8118  0.9661 -1.3174
  118MOL   H41949793   3.581   3.513   6.491  0.2132 -0.5566  0.2920
  118MOL   H42049794   3.436   3.605   6.476  0.3880  0.1251 -0.0124
  118MOL   H42149795   3.441   3.435   6.421 -1.0896  2.1942 -2.1663
  118MOL   H42249796   3.562   3.725   6.952 -3.0816  0.5620  0.5878
   7.71343   7.71343   7.71343
